Title
82326
    1SAPS     N    1   4.743   2.506  10.912 -0.1506  0.4839  0.1602
    1SAPS   HN1    2   4.696   2.575  10.974 -0.2565  1.7797 -1.2952
    1SAPS   HN2    3   4.773   2.566  10.832 -1.0327  1.5648  0.6084
    1SAPS   HN3    4   4.668   2.447  10.871 -1.3302  2.4054 -0.5675
    1SAPS   C12    5   4.853   2.435  10.982  0.3037  0.0332  0.2394
    1SAPS  H12A    6   4.926   2.514  10.990 -0.7558  1.1504 -0.7395
    1SAPS   C13    7   4.820   2.382  11.122 -0.1827  0.5948  0.7381
    1SAPS  O13A    8   4.723   2.428  11.186 -0.7797  0.1933  0.2211
    1SAPS  O13B    9   4.906   2.308  11.180  0.3272 -0.1412  0.3319
    1SAPS   C11   10   4.895   2.317  10.884 -0.0435 -0.2769  0.2248
    1SAPS  H11A   11   4.805   2.254  10.873  1.2851 -2.4424  0.9665
    1SAPS  H11B   12   4.974   2.261  10.940 -1.6525 -2.1627  0.7540
    1SAPS     P   13   5.024   2.257  10.667 -0.1190  0.0928  0.0191
    1SAPS   O13   14   5.162   2.318  10.663 -0.3775 -0.0084  0.1745
    1SAPS   O14   15   5.013   2.115  10.713 -0.0864  0.1035 -0.2812
    1SAPS   O12   16   4.941   2.360  10.756 -0.9562  0.3350 -0.0519
    1SAPS   O11   17   4.964   2.282  10.531  0.2697 -0.4085 -0.0172
    1SAPS    C1   18   4.959   2.409  10.475  0.6461 -0.5286 -0.1251
    1SAPS    HA   19   4.920   2.485  10.547 -0.3048 -0.0610 -1.1075
    1SAPS    HB   20   5.061   2.442  10.444 -0.3109  3.4019  0.2879
    1SAPS    C2   21   4.875   2.408  10.346 -0.5089  0.2462 -0.5191
    1SAPS    HS   22   4.897   2.506  10.297  1.3920 -0.4979 -1.2387
    1SAPS   O21   23   4.731   2.392  10.375 -0.1453  0.1999 -0.5259
    1SAPS   C21   24   4.671   2.507  10.408 -0.4582 -0.7494  0.7142
    1SAPS   O22   25   4.724   2.616  10.417 -0.7752  0.2859 -0.2852
    1SAPS   C22   26   4.528   2.490  10.441  0.0602  0.4260  0.0618
    1SAPS   H2R   27   4.497   2.385  10.422  0.2542  0.1619  1.1027
    1SAPS   H2S   28   4.523   2.494  10.552 -0.4927 -0.7218  0.0965
    1SAPS    C3   29   4.910   2.300  10.241 -0.2859 -0.1564  0.0269
    1SAPS    HX   30   4.911   2.199  10.288  2.5237  0.5635  1.7461
    1SAPS    HY   31   5.019   2.312  10.218 -0.4982 -3.2578 -3.6847
    1SAPS   O31   32   4.843   2.315  10.116 -0.1749  0.0342  0.0939
    1SAPS   C31   33   4.731   2.244  10.118  0.3274 -0.4084  0.4956
    1SAPS   O32   34   4.688   2.182  10.216  0.2451  0.6704 -0.0242
    1SAPS   C32   35   4.670   2.244   9.978 -0.5968  0.8347  0.0404
    1SAPS   H2X   36   4.746   2.228   9.899  0.8345 -1.3194  1.7426
    1SAPS   H2Y   37   4.622   2.344   9.971  1.0899  1.6760  0.1407
    1SAPS   C23   38   4.437   2.591  10.368 -0.5206 -0.1442  0.1722
    1SAPS   H3R   39   4.489   2.685  10.341  1.7090 -1.4702 -0.3827
    1SAPS   H3S   40   4.351   2.591  10.438  0.2966 -2.3874  1.2802
    1SAPS   C24   41   4.382   2.532  10.234 -0.4801 -0.3729  0.4142
    1SAPS   H4R   42   4.338   2.432  10.255  0.7647 -0.6887  1.6808
    1SAPS   H4S   43   4.458   2.533  10.153  0.0332  1.6829  0.8655
    1SAPS   C25   44   4.281   2.634  10.178 -0.5058  0.7322 -0.4505
    1SAPS   H5R   45   4.261   2.713  10.251  1.1178  2.0021 -1.3006
    1SAPS   C26   46   4.238   2.638  10.052 -1.3191 -0.6228 -0.6853
    1SAPS   H6R   47   4.178   2.725  10.023  2.6517  2.4601 -0.5273
    1SAPS   C27   48   4.268   2.544   9.939 -0.3058 -0.0178  0.5586
    1SAPS   H7R   49   4.198   2.458   9.930 -0.0334 -0.0424 -1.8039
    1SAPS   H7S   50   4.367   2.497   9.955 -0.3757 -0.2653  0.2640
    1SAPS   C28   51   4.264   2.620   9.804  0.3555 -0.2941 -0.5034
    1SAPS   H8R   52   4.170   2.674   9.784 -1.1088 -1.8391  1.6437
    1SAPS   C29   53   4.339   2.590   9.697  0.8266 -0.7261 -0.4555
    1SAPS   H9R   54   4.338   2.652   9.606  1.9885  1.2139  0.7824
    1SAPS  C210   55   4.450   2.485   9.673  0.3523  0.2958  0.0986
    1SAPS  H10R   56   4.465   2.437   9.772 -0.9671  1.1948  0.7644
    1SAPS  H10S   57   4.545   2.539   9.655 -0.7847  2.5031  0.3830
    1SAPS  C211   58   4.428   2.383   9.565  0.4841  0.1190  0.3241
    1SAPS  H11R   59   4.404   2.285   9.609 -0.4825  1.1370  2.1707
    1SAPS  C212   60   4.440   2.398   9.429  0.0555 -0.5830  0.6648
    1SAPS  H12R   61   4.415   2.312   9.366  1.5838  0.1794 -1.0927
    1SAPS  C213   62   4.470   2.526   9.360  0.0310 -0.0245 -0.0821
    1SAPS  H13R   63   4.576   2.523   9.328  0.0206 -3.1269 -0.1134
    1SAPS  H13S   64   4.456   2.612   9.429 -0.2987 -1.1538  1.3123
    1SAPS  C214   65   4.379   2.538   9.244 -0.0119  0.3687  0.2825
    1SAPS  H14R   66   4.278   2.495   9.258  0.4001 -0.6193  0.3192
    1SAPS  C215   67   4.411   2.578   9.118 -0.8207  0.1407 -0.1326
    1SAPS  H15R   68   4.332   2.581   9.042 -1.2985 -1.8460  0.2357
    1SAPS  C216   69   4.544   2.621   9.060 -0.8526  0.1621 -0.0187
    1SAPS  H16R   70   4.618   2.539   9.072  0.3145  1.2703  0.6317
    1SAPS  H16S   71   4.564   2.710   9.124 -0.5674  0.9828 -1.2129
    1SAPS  C217   72   4.546   2.684   8.915  0.1398  1.0031 -0.7159
    1SAPS  H17R   73   4.646   2.732   8.913  0.2822  0.9239  1.4118
    1SAPS  H17S   74   4.468   2.761   8.895 -0.4300  0.3162 -1.1383
    1SAPS  C218   75   4.530   2.578   8.802 -0.7878 -0.4926  0.9444
    1SAPS  H18R   76   4.571   2.490   8.857  1.7687 -1.0854 -1.6320
    1SAPS  H18S   77   4.594   2.603   8.715 -3.3956  3.1154 -0.1305
    1SAPS  C219   78   4.395   2.541   8.756  0.5157  0.5053 -0.2607
    1SAPS  H19R   79   4.315   2.600   8.806  1.3159  1.8732 -0.5552
    1SAPS  H19S   80   4.382   2.433   8.778 -2.2621  0.8016 -0.0164
    1SAPS  C220   81   4.375   2.558   8.604  0.0720  0.8931  0.1769
    1SAPS  H20R   82   4.276   2.538   8.560 -0.6235  2.7359  0.8127
    1SAPS  H20S   83   4.448   2.482   8.568  0.5485  1.7259 -0.6309
    1SAPS  H20T   84   4.408   2.660   8.577 -0.9387  0.9465 -0.9214
    1SAPS   C33   85   4.555   2.141   9.961 -0.3938 -0.0568 -0.5748
    1SAPS   H3X   86   4.472   2.144  10.035  2.7744  0.3692  3.3275
    1SAPS   H3Y   87   4.601   2.041   9.980 -0.0163  0.2176 -0.0420
    1SAPS   C34   88   4.495   2.134   9.824 -0.6321  0.6161  0.3184
    1SAPS   H4X   89   4.568   2.162   9.745 -1.6024  1.7877 -0.2064
    1SAPS   H4Y   90   4.416   2.212   9.834  0.8633  1.9782  2.2234
    1SAPS   C35   91   4.419   2.002   9.780 -0.1667 -0.6842 -0.2259
    1SAPS   H5X   92   4.356   1.984   9.870  0.9975 -0.8717  0.5748
    1SAPS   H5Y   93   4.490   1.916   9.774  1.0924  0.3882 -1.2033
    1SAPS   C36   94   4.324   1.995   9.655 -0.1598 -0.6727  0.0408
    1SAPS   H6X   95   4.265   2.089   9.664  2.1738  0.9965 -0.8706
    1SAPS   H6Y   96   4.259   1.906   9.658 -0.6962 -0.3549 -1.4357
    1SAPS   C37   97   4.396   2.010   9.518 -0.4068  0.9441 -0.2215
    1SAPS   H7X   98   4.446   1.912   9.507 -3.2138 -0.8719  1.7650
    1SAPS   H7Y   99   4.466   2.096   9.523 -1.5696  1.8758  1.2195
    1SAPS   C38  100   4.300   2.019   9.402  0.7744  0.1378 -0.0802
    1SAPS   H8X  101   4.237   2.110   9.412  1.4366  0.4907  1.0578
    1SAPS   H8Y  102   4.239   1.928   9.419  0.0393  0.6768  0.1849
    1SAPS   C39  103   4.372   2.011   9.267  0.3920  0.8643 -0.4427
    1SAPS   H9X  104   4.407   1.909   9.242  2.0621  1.2467  0.2395
    1SAPS   H9Y  105   4.458   2.081   9.258  2.0908 -0.8932  1.1574
    1SAPS  C310  106   4.281   2.052   9.152 -0.2968 -0.2415 -0.0828
    1SAPS  H10X  107   4.251   2.158   9.167  1.2387  0.2432 -0.2020
    1SAPS  H10Y  108   4.186   1.995   9.155 -0.1988 -0.4445 -0.7207
    1SAPS  C311  109   4.359   2.046   9.019  0.4846 -0.2400  0.1338
    1SAPS  H11X  110   4.371   1.937   9.001 -1.5633 -0.5885  0.6042
    1SAPS  H11Y  111   4.459   2.092   9.029 -0.0011  0.9235 -0.1839
    1SAPS  C312  112   4.283   2.111   8.900  0.2273  0.1785 -0.2084
    1SAPS  H12X  113   4.256   2.211   8.938 -2.7923 -0.5804 -0.0899
    1SAPS  H12Y  114   4.193   2.056   8.864  1.8647 -1.6452 -1.7749
    1SAPS  C313  115   4.372   2.119   8.769  0.3473  0.8876  0.2406
    1SAPS  H13X  116   4.403   2.013   8.761 -1.1143  0.1539  3.1061
    1SAPS  H13Y  117   4.462   2.179   8.795  0.5376  0.5001  0.4756
    1SAPS  C314  118   4.303   2.176   8.643  0.2560 -0.2019  0.5413
    1SAPS  H14X  119   4.297   2.287   8.649 -0.6511 -0.3001  1.6662
    1SAPS  H14Y  120   4.200   2.136   8.635 -0.4255  0.9608  2.6490
    1SAPS  C315  121   4.376   2.149   8.507  0.2348 -0.0224 -0.2764
    1SAPS  H15X  122   4.332   2.214   8.429  1.2305  0.0843 -0.7724
    1SAPS  H15Y  123   4.365   2.042   8.478 -0.2855  0.3358 -1.4877
    1SAPS  C316  124   4.534   2.179   8.510 -0.6703 -0.3437 -0.0291
    1SAPS  H16X  125   4.580   2.096   8.567  0.5627 -0.3468 -0.9731
    1SAPS  H16Y  126   4.530   2.278   8.561 -1.5693  0.7809 -2.1253
    1SAPS  C317  127   4.590   2.196   8.371 -0.0340 -0.2614  0.5131
    1SAPS  H17X  128   4.688   2.248   8.381  0.1748 -0.5562  0.0459
    1SAPS  H17Y  129   4.531   2.262   8.304 -0.5982 -2.2334 -1.0372
    1SAPS  C318  130   4.632   2.058   8.298  0.0501 -0.2015  0.6866
    1SAPS  H18X  131   4.736   2.067   8.259 -0.2787  0.2369 -0.1224
    1SAPS  H18Y  132   4.569   2.037   8.209  0.0447 -0.8271  0.8391
    1SAPS  H18Z  133   4.628   1.971   8.366  0.7908 -1.5882 -0.9603
    2SAPS     N  134   1.181   2.994  10.886 -0.3721  0.4937 -0.6464
    2SAPS   HN1  135   1.133   2.944  10.809  2.8454 -0.6521 -2.0701
    2SAPS   HN2  136   1.272   3.030  10.850 -0.1725  0.8833  0.2216
    2SAPS   HN3  137   1.221   2.926  10.953 -2.6399  1.1741  1.5542
    2SAPS   C12  138   1.111   3.103  10.960 -0.3730  0.1711 -0.2066
    2SAPS  H12A  139   1.023   3.129  10.904  1.1816  3.0062 -1.5583
    2SAPS   C13  140   1.074   3.063  11.106 -0.2260 -0.2712 -0.8898
    2SAPS  O13A  141   1.136   2.964  11.157  0.5213 -0.0105  0.2304
    2SAPS  O13B  142   0.993   3.137  11.176 -0.0952  0.0129  0.9508
    2SAPS   C11  143   1.210   3.229  10.950 -0.1867  0.0055 -0.6507
    2SAPS  H11A  144   1.311   3.192  10.978  0.2499  1.8659  0.3832
    2SAPS  H11B  145   1.193   3.301  11.033 -1.6939  0.6696 -1.4801
    2SAPS     P  146   1.102   3.399  10.777  0.1238 -0.3199  0.1274
    2SAPS   O13  147   0.975   3.372  10.843  0.6776 -0.2197  0.2857
    2SAPS   O14  148   1.164   3.527  10.788  0.0858 -0.2474 -0.2978
    2SAPS   O12  149   1.210   3.290  10.824 -0.7227 -0.4159 -0.5690
    2SAPS   O11  150   1.080   3.364  10.625  0.1900  0.3064  0.5014
    2SAPS    C1  151   1.106   3.233  10.579  0.2288  0.2256 -0.3808
    2SAPS    HA  152   1.214   3.213  10.562  0.1259 -2.4682  1.5318
    2SAPS    HB  153   1.063   3.155  10.645 -1.5149  1.4845  0.0405
    2SAPS    C2  154   1.054   3.234  10.433  0.0394 -0.2685  0.0287
    2SAPS    HS  155   1.061   3.129  10.396  0.6258  0.1967 -1.2373
    2SAPS   O21  156   1.110   3.338  10.354  0.8175  0.0410  0.0244
    2SAPS   C21  157   1.210   3.319  10.273  0.3802 -0.3150  0.9400
    2SAPS   O22  158   1.264   3.206  10.256  0.2652  0.9616 -0.2183
    2SAPS   C22  159   1.258   3.448  10.207  0.5029 -0.0359 -0.1360
    2SAPS   H2R  160   1.208   3.536  10.253 -0.2906 -0.2268 -0.6090
    2SAPS   H2S  161   1.364   3.469  10.234  0.2877  1.1112 -0.1261
    2SAPS    C3  162   0.898   3.247  10.431  0.6021  0.1322 -0.0468
    2SAPS    HX  163   0.862   3.326  10.501  2.1688  1.0233 -0.2037
    2SAPS    HY  164   0.859   3.155  10.479 -0.6412  0.2552 -0.7540
    2SAPS   O31  165   0.840   3.262  10.296  0.6478 -0.2318  0.1892
    2SAPS   C31  166   0.768   3.378  10.268 -0.6647 -0.3803 -0.1416
    2SAPS   O32  167   0.760   3.471  10.344  0.0052  0.1468 -0.3086
    2SAPS   C32  168   0.709   3.364  10.127 -0.0768 -0.4634 -0.4111
    2SAPS   H2X  169   0.676   3.258  10.135  2.2748 -1.1565  1.5325
    2SAPS   H2Y  170   0.797   3.351  10.060  0.9700 -2.5548  1.2486
    2SAPS   C23  171   1.250   3.463  10.047 -0.1799 -0.4640 -0.1977
    2SAPS   H3R  172   1.295   3.374   9.998  1.7273  0.2859  0.1105
    2SAPS   H3S  173   1.310   3.546  10.006 -0.5969 -0.1233 -0.1218
    2SAPS   C24  174   1.103   3.480  10.007  0.6350 -0.6399 -0.7632
    2SAPS   H4R  175   1.053   3.382  10.021  1.1593 -0.7183  0.7194
    2SAPS   H4S  176   1.105   3.502   9.898 -0.2837  1.5021 -0.4052
    2SAPS   C25  177   1.023   3.595  10.077 -0.7919 -0.0781 -0.3953
    2SAPS   H5R  178   0.952   3.572  10.158 -0.1568 -0.0584  0.1751
    2SAPS   C26  179   1.035   3.724  10.042  0.0915 -0.0635  0.6381
    2SAPS   H6R  180   0.983   3.802  10.100 -1.9731  0.5161 -1.8571
    2SAPS   C27  181   1.111   3.795   9.935 -0.7534  0.2602  0.5600
    2SAPS   H7R  182   1.163   3.721   9.870 -0.4565  1.3329 -0.4608
    2SAPS   H7S  183   1.193   3.848   9.987  0.8394 -1.5070 -0.0342
    2SAPS   C28  184   1.012   3.886   9.861 -0.2599  0.9257  0.3188
    2SAPS   H8R  185   0.993   3.981   9.912 -1.9821  0.8220 -0.0881
    2SAPS   C29  186   0.949   3.865   9.746 -0.0585  0.6248 -0.8183
    2SAPS   H9R  187   0.888   3.949   9.711 -0.2774  0.6851 -0.3054
    2SAPS  C210  188   0.964   3.740   9.664  0.2292 -0.2267  1.1325
    2SAPS  H10R  189   0.865   3.714   9.622  1.6078 -1.0682 -1.9337
    2SAPS  H10S  190   0.999   3.652   9.722  1.2707  0.0533  0.9590
    2SAPS  C211  191   1.058   3.746   9.542  0.0477  0.3000 -0.7934
    2SAPS  H11R  192   1.058   3.846   9.496  0.7668  1.1737  0.9918
    2SAPS  C212  193   1.128   3.651   9.479  0.0751  0.3878  0.2934
    2SAPS  H12R  194   1.194   3.678   9.395 -1.2455 -1.8214 -1.5686
    2SAPS  C213  195   1.127   3.501   9.514 -0.9111 -0.5160  0.3505
    2SAPS  H13R  196   1.097   3.448   9.421  0.5010  1.9326 -1.6152
    2SAPS  H13S  197   1.047   3.490   9.590 -0.3067  0.9935  1.2468
    2SAPS  C214  198   1.252   3.449   9.576 -0.6374  0.5006  0.0679
    2SAPS  H14R  199   1.259   3.445   9.685  1.0364 -0.4836 -0.0354
    2SAPS  C215  200   1.360   3.412   9.503  0.1074 -0.2098 -0.2305
    2SAPS  H15R  201   1.454   3.391   9.556  2.2572  3.0513 -2.3928
    2SAPS  C216  202   1.374   3.411   9.353 -0.1131 -0.0334  0.3946
    2SAPS  H16R  203   1.273   3.410   9.306  0.2740  0.1412 -0.4467
    2SAPS  H16S  204   1.423   3.318   9.318  2.4281  1.9634 -1.8440
    2SAPS  C217  205   1.442   3.530   9.291 -0.4970  0.6235 -0.8731
    2SAPS  H17R  206   1.550   3.537   9.318 -0.0827 -1.7347 -1.7111
    2SAPS  H17S  207   1.394   3.622   9.330  0.5295 -0.1173  2.5351
    2SAPS  C218  208   1.425   3.533   9.137 -0.1757  0.4405  0.3333
    2SAPS  H18R  209   1.458   3.637   9.111  1.7838 -0.5151 -1.3075
    2SAPS  H18S  210   1.316   3.519   9.120 -0.1812 -0.8757  1.3761
    2SAPS  C219  211   1.510   3.429   9.067  0.0448 -0.2539  0.1849
    2SAPS  H19R  212   1.492   3.327   9.106 -1.6369 -0.7680 -1.7504
    2SAPS  H19S  213   1.616   3.451   9.093  0.8836 -1.7567 -1.7554
    2SAPS  C220  214   1.492   3.426   8.914 -0.2251 -0.9010 -0.0557
    2SAPS  H20R  215   1.586   3.379   8.879 -0.9581 -3.0936  0.6991
    2SAPS  H20S  216   1.485   3.531   8.880 -1.3863 -0.6732  0.8136
    2SAPS  H20T  217   1.402   3.364   8.892 -1.3196 -0.1201  1.9933
    2SAPS   C33  218   0.615   3.474  10.080 -0.4334  1.0666 -0.1864
    2SAPS   H3X  219   0.682   3.558  10.052  1.5582 -1.1436 -2.6461
    2SAPS   H3Y  220   0.543   3.507  10.157  1.6081  1.3342  1.7125
    2SAPS   C34  221   0.541   3.432   9.957  0.2387  0.2195 -0.1056
    2SAPS   H4X  222   0.437   3.470   9.945 -0.4210 -0.6941  2.1825
    2SAPS   H4Y  223   0.524   3.323   9.970 -1.1696  0.3349 -0.7742
    2SAPS   C35  224   0.622   3.454   9.827  0.1188 -0.2710 -0.5359
    2SAPS   H5X  225   0.714   3.393   9.836  0.7083  0.7118  0.3377
    2SAPS   H5Y  226   0.652   3.561   9.824 -0.2510 -0.1514 -0.1485
    2SAPS   C36  227   0.551   3.421   9.698  0.1458  0.7126 -0.3111
    2SAPS   H6X  228   0.477   3.341   9.719 -0.0090  1.1925  1.0576
    2SAPS   H6Y  229   0.622   3.375   9.626  2.7392 -1.1014  3.1219
    2SAPS   C37  230   0.469   3.533   9.637 -0.1876 -0.1638  0.5135
    2SAPS   H7X  231   0.422   3.592   9.719  0.1875  0.6247  0.1772
    2SAPS   H7Y  232   0.410   3.471   9.566  0.4540 -1.2915  0.9421
    2SAPS   C38  233   0.562   3.637   9.561  0.6633 -0.0587 -0.4212
    2SAPS   H8X  234   0.619   3.584   9.482  0.2331 -1.1011 -0.0541
    2SAPS   H8Y  235   0.633   3.671   9.638  1.0982 -0.7220 -0.5169
    2SAPS   C39  236   0.480   3.752   9.493 -0.3285  0.6855 -0.0247
    2SAPS   H9X  237   0.410   3.803   9.563 -2.2542 -1.1229 -0.5388
    2SAPS   H9Y  238   0.419   3.720   9.406 -0.2167  1.8032 -0.5328
    2SAPS  C310  239   0.580   3.859   9.448 -0.1661  0.0001 -1.0217
    2SAPS  H10X  240   0.657   3.863   9.528  1.6057  0.7818 -2.6856
    2SAPS  H10Y  241   0.530   3.958   9.444  0.6761  0.5160  0.3543
    2SAPS  C311  242   0.633   3.847   9.302 -0.9170 -0.2426  0.2435
    2SAPS  H11X  243   0.546   3.820   9.238 -0.5403 -0.4326 -0.1906
    2SAPS  H11Y  244   0.701   3.759   9.308 -1.0967 -0.3096  1.8483
    2SAPS  C312  245   0.693   3.978   9.248 -0.1585  0.2399  0.1930
    2SAPS  H12X  246   0.769   4.024   9.315  1.0496 -2.0030  0.4581
    2SAPS  H12Y  247   0.605   4.044   9.232  1.3069  1.9657 -1.0341
    2SAPS  C313  248   0.780   3.955   9.128 -0.4092  0.8934  0.0064
    2SAPS  H13X  249   0.814   4.054   9.090  1.0905 -0.0846 -1.3787
    2SAPS  H13Y  250   0.724   3.911   9.043 -0.5252 -0.3510  0.6929
    2SAPS  C314  251   0.911   3.877   9.159 -0.2751  0.2360  0.3310
    2SAPS  H14X  252   0.903   3.769   9.180  1.0515  0.1039  0.2418
    2SAPS  H14Y  253   0.965   3.921   9.245  1.4132 -0.4398 -0.3508
    2SAPS  C315  254   1.007   3.892   9.040  0.9964  0.4939 -0.3929
    2SAPS  H15X  255   1.022   4.001   9.021  1.3202  0.5032 -0.0949
    2SAPS  H15Y  256   0.954   3.849   8.952 -0.6327  2.7333 -0.6016
    2SAPS  C316  257   1.137   3.822   9.070  0.2911 -0.2503  0.0623
    2SAPS  H16X  258   1.117   3.725   9.119 -2.1944  0.7913  1.2801
    2SAPS  H16Y  259   1.196   3.883   9.142  0.8788  1.4755 -1.7712
    2SAPS  C317  260   1.231   3.806   8.951  0.1801  0.5063 -0.1360
    2SAPS  H17X  261   1.182   3.737   8.880  1.2779 -1.6931  1.1393
    2SAPS  H17Y  262   1.324   3.756   8.985 -0.9222 -0.6062  1.4054
    2SAPS  C318  263   1.272   3.932   8.879 -0.1557  0.0697  0.4898
    2SAPS  H18X  264   1.346   3.901   8.801  2.3079  1.0910  2.2934
    2SAPS  H18Y  265   1.310   4.010   8.948 -2.3241 -0.2638  2.1381
    2SAPS  H18Z  266   1.176   3.964   8.833 -1.9934 -0.2471  3.8138
    3SAPS     N  267   4.477   4.805  10.831  0.0010 -0.2883 -0.3179
    3SAPS   HN1  268   4.565   4.853  10.803 -1.9541  2.5892 -2.0993
    3SAPS   HN2  269   4.466   4.732  10.758 -0.8283 -0.3913 -0.1070
    3SAPS   HN3  270   4.403   4.877  10.819  1.2556  0.7425 -2.4054
    3SAPS   C12  271   4.477   4.759  10.970 -0.1014  0.4714 -0.1438
    3SAPS  H12A  272   4.566   4.700  10.982  0.3163  0.9989 -0.6059
    3SAPS   C13  273   4.482   4.869  11.067 -0.5313  0.5003  0.1223
    3SAPS  O13A  274   4.531   4.984  11.040  0.1472 -0.1640  0.0415
    3SAPS  O13B  275   4.455   4.840  11.187 -0.1880  0.5609 -0.3207
    3SAPS   C11  276   4.358   4.665  10.999 -0.6553  0.2257  0.8192
    3SAPS  H11A  277   4.265   4.716  10.968  0.0446  0.4114 -1.0949
    3SAPS  H11B  278   4.337   4.645  11.107  0.7449 -1.0743  0.8834
    3SAPS     P  279   4.249   4.449  10.898 -0.4266  0.5634 -0.0579
    3SAPS   O13  280   4.253   4.345  11.002 -0.2723  0.4712  0.3282
    3SAPS   O14  281   4.128   4.533  10.880  0.3263  0.0582 -0.2277
    3SAPS   O12  282   4.373   4.544  10.922 -0.1684  0.1414 -0.9042
    3SAPS   O11  283   4.292   4.386  10.763 -0.4352  0.4889  0.3659
    3SAPS    C1  284   4.339   4.477  10.660 -0.3967 -0.4975 -0.2678
    3SAPS    HA  285   4.270   4.563  10.646  1.1709  0.4963 -2.4262
    3SAPS    HB  286   4.437   4.517  10.696 -0.2701 -1.5339  0.5990
    3SAPS    C2  287   4.359   4.415  10.522  0.8419 -0.1641 -0.1271
    3SAPS    HS  288   4.360   4.504  10.457  0.9458  0.2752  0.4711
    3SAPS   O21  289   4.241   4.328  10.500 -0.3429 -0.3458 -0.2496
    3SAPS   C21  290   4.128   4.397  10.478  0.0457  1.1516 -0.2130
    3SAPS   O22  291   4.114   4.518  10.485 -0.1267 -0.4151  0.2543
    3SAPS   C22  292   4.021   4.299  10.423  0.6658 -0.3207  0.1978
    3SAPS   H2R  293   4.033   4.205  10.482  0.1200 -0.7567 -0.3668
    3SAPS   H2S  294   3.920   4.332  10.456  0.5680  0.1126 -0.5201
    3SAPS    C3  295   4.497   4.340  10.501  0.5654 -1.0519 -0.1924
    3SAPS    HX  296   4.512   4.252  10.566  0.0264 -0.8046  0.2761
    3SAPS    HY  297   4.582   4.409  10.522  0.0463  0.2655 -2.1059
    3SAPS   O31  298   4.508   4.309  10.363  0.0233 -0.2143 -0.5653
    3SAPS   C31  299   4.443   4.200  10.320  0.5168  0.6273  0.9390
    3SAPS   O32  300   4.408   4.111  10.397 -0.2048  0.1735 -0.1334
    3SAPS   C32  301   4.451   4.185  10.171  0.9584  0.1000  0.0285
    3SAPS   H2X  302   4.558   4.198  10.143  1.6708 -1.8967  1.5493
    3SAPS   H2Y  303   4.385   4.257  10.118 -0.4907 -0.3323  1.1697
    3SAPS   C23  304   4.030   4.277  10.276 -0.0021 -0.2624 -0.2853
    3SAPS   H3R  305   3.957   4.199  10.247 -0.7651  0.6891 -1.0075
    3SAPS   H3S  306   4.129   4.241  10.240 -0.1354 -1.1787  0.2361
    3SAPS   C24  307   3.985   4.407  10.206  0.3737 -0.4024  0.6589
    3SAPS   H4R  308   4.051   4.487  10.245 -0.4310  1.2104 -1.1327
    3SAPS   H4S  309   3.884   4.440  10.238  0.8520  2.9410 -0.8746
    3SAPS   C25  310   3.993   4.389  10.055  0.7761 -0.0291  0.1426
    3SAPS   H5R  311   4.032   4.289  10.030  0.2398 -0.2676  0.2466
    3SAPS   C26  312   3.947   4.470   9.955  0.1787 -0.4825  0.0341
    3SAPS   H6R  313   3.948   4.441   9.849 -3.5103  1.5235 -0.7216
    3SAPS   C27  314   3.885   4.607   9.969 -0.3649 -0.7677  0.1739
    3SAPS   H7R  315   3.845   4.626  10.072  0.6906  0.9322  0.3159
    3SAPS   H7S  316   3.804   4.595   9.894  0.8085 -2.2701 -0.8955
    3SAPS   C28  317   3.994   4.709   9.942 -0.1122  0.5182 -0.8564
    3SAPS   H8R  318   4.081   4.712  10.010  0.3360  0.3065 -1.4053
    3SAPS   C29  319   4.000   4.796   9.839  0.1423  0.1027 -0.6848
    3SAPS   H9R  320   4.092   4.857   9.840 -0.0493  0.4019  0.9469
    3SAPS  C210  321   3.898   4.800   9.730 -0.1827 -0.0517  0.1346
    3SAPS  H10R  322   3.843   4.704   9.724  0.7091 -0.5124 -1.0649
    3SAPS  H10S  323   3.948   4.791   9.631  1.1520 -1.1524  0.8799
    3SAPS  C211  324   3.792   4.915   9.737  0.2753 -0.1996 -0.5116
    3SAPS  H11R  325   3.759   4.942   9.839 -0.8982 -2.1367 -0.3308
    3SAPS  C212  326   3.706   4.957   9.640 -0.0352  0.3331 -0.8215
    3SAPS  H12R  327   3.630   5.035   9.656 -0.5987 -0.0023 -1.7548
    3SAPS  C213  328   3.707   4.903   9.502 -0.3758 -0.1275 -0.1361
    3SAPS  H13R  329   3.809   4.921   9.461 -1.1883  2.0259 -1.4051
    3SAPS  H13S  330   3.640   4.959   9.434 -0.1589 -0.5612 -0.7150
    3SAPS  C214  331   3.670   4.759   9.482  0.6476  0.2396  0.5858
    3SAPS  H14R  332   3.625   4.698   9.563 -1.8705  2.0884  0.7103
    3SAPS  C215  333   3.679   4.702   9.361 -0.1352  0.6745 -0.1506
    3SAPS  H15R  334   3.658   4.597   9.335  3.3403  0.1016 -1.0791
    3SAPS  C216  335   3.737   4.782   9.241 -0.6345  0.3942 -0.6655
    3SAPS  H16R  336   3.832   4.742   9.200 -0.6217  0.5684 -0.8139
    3SAPS  H16S  337   3.749   4.890   9.265  1.1041  0.2888 -0.9673
    3SAPS  C217  338   3.629   4.759   9.127 -0.4019  0.6199  0.4404
    3SAPS  H17R  339   3.531   4.793   9.166  0.1905  0.9007  1.7284
    3SAPS  H17S  340   3.619   4.650   9.106 -1.0080  0.6807  0.3804
    3SAPS  C218  341   3.644   4.832   8.999 -0.2272  0.9306  0.1980
    3SAPS  H18R  342   3.745   4.813   8.957 -0.8044 -1.1866 -0.3457
    3SAPS  H18S  343   3.653   4.941   9.020  1.2532  0.3598  2.9787
    3SAPS  C219  344   3.541   4.791   8.897  0.0102 -0.2275 -0.4781
    3SAPS  H19R  345   3.477   4.882   8.896  1.9750  1.3657  2.8382
    3SAPS  H19S  346   3.478   4.704   8.927  0.7071 -0.1749  1.2109
    3SAPS  C220  347   3.595   4.769   8.756 -0.0303  0.0290 -0.3081
    3SAPS  H20R  348   3.606   4.869   8.707 -1.7307  0.8272  0.8390
    3SAPS  H20S  349   3.515   4.719   8.698 -2.4066 -0.2413  2.9283
    3SAPS  H20T  350   3.682   4.700   8.756  0.7784  0.8983  2.7609
    3SAPS   C33  351   4.388   4.056  10.118 -0.0910  0.3317 -0.6478
    3SAPS   H3X  352   4.286   4.057  10.161  0.6857  0.5956  1.2931
    3SAPS   H3Y  353   4.438   3.977  10.178  0.0734  0.4269 -0.6595
    3SAPS   C34  354   4.378   4.034   9.969 -0.6764  0.1125  0.0115
    3SAPS   H4X  355   4.357   3.929   9.940 -0.5795  0.0947  0.0041
    3SAPS   H4Y  356   4.477   4.040   9.919 -0.2683 -3.7555  0.0729
    3SAPS   C35  357   4.277   4.125   9.893  0.1297 -0.1185  0.0901
    3SAPS   H5X  358   4.306   4.228   9.922  1.1824 -0.1190 -0.8889
    3SAPS   H5Y  359   4.170   4.117   9.919 -1.1013  1.1927 -3.7531
    3SAPS   C36  360   4.266   4.108   9.739 -0.6647 -0.1464  0.6386
    3SAPS   H6X  361   4.356   4.150   9.689 -0.8923  0.8240  1.0318
    3SAPS   H6Y  362   4.173   4.164   9.712  0.2548  2.0893  1.9333
    3SAPS   C37  363   4.234   3.964   9.692  0.3199 -0.7837  0.8838
    3SAPS   H7X  364   4.172   3.905   9.762  1.2458 -1.8012  0.8798
    3SAPS   H7Y  365   4.329   3.911   9.669 -0.3678 -0.1983 -4.5205
    3SAPS   C38  366   4.164   3.946   9.557  0.0485  0.4621 -0.1786
    3SAPS   H8X  367   4.068   4.002   9.557 -1.0248 -1.2705  1.2263
    3SAPS   H8Y  368   4.143   3.839   9.537 -0.3583  0.0867  1.9759
    3SAPS   C39  369   4.237   4.008   9.435 -0.1471 -0.0222  0.6534
    3SAPS   H9X  370   4.328   3.944   9.434 -0.3184 -0.2760 -1.0315
    3SAPS   H9Y  371   4.259   4.114   9.456 -1.8463  0.5053 -0.0164
    3SAPS  C310  372   4.167   4.004   9.303  0.1581 -0.0637 -0.0343
    3SAPS  H10X  373   4.059   3.996   9.329  0.1262  1.7837  0.6025
    3SAPS  H10Y  374   4.195   3.914   9.246  0.1570 -0.7752  1.0563
    3SAPS  C311  375   4.209   4.122   9.206 -0.1262 -0.1230  0.3338
    3SAPS  H11X  376   4.211   4.217   9.264  1.1751  0.4430 -0.5848
    3SAPS  H11Y  377   4.123   4.132   9.137 -0.2384  0.0798  0.5010
    3SAPS  C312  378   4.342   4.083   9.148 -0.3954  0.2780  0.0202
    3SAPS  H12X  379   4.346   3.993   9.083 -0.3794 -0.1169  0.5565
    3SAPS  H12Y  380   4.405   4.049   9.233 -1.1014 -1.3141 -0.0610
    3SAPS  C313  381   4.424   4.194   9.070  0.0675  0.1148 -0.2955
    3SAPS  H13X  382   4.418   4.279   9.141  0.0610 -1.2517  1.4058
    3SAPS  H13Y  383   4.363   4.227   8.983 -0.1207 -0.0816 -0.2400
    3SAPS  C314  384   4.568   4.144   9.021  1.3410 -0.2896  0.1187
    3SAPS  H14X  385   4.602   4.082   9.106 -0.4874 -1.4073  0.0986
    3SAPS  H14Y  386   4.627   4.238   9.016 -0.3544  0.7946 -0.4481
    3SAPS  C315  387   4.564   4.075   8.885 -0.1290  0.2023 -0.1325
    3SAPS  H15X  388   4.539   4.148   8.805  0.6156  0.5523 -0.0517
    3SAPS  H15Y  389   4.469   4.018   8.890 -0.4282  0.4625 -2.0665
    3SAPS  C316  390   4.693   4.006   8.851  0.6350 -0.1289 -0.2925
    3SAPS  H16X  391   4.715   3.944   8.940 -0.6921 -0.4970 -0.1990
    3SAPS  H16Y  392   4.769   4.087   8.861 -1.2176  1.7822 -0.8449
    3SAPS  C317  393   4.688   3.927   8.722 -0.3154 -0.5216  0.0646
    3SAPS  H17X  394   4.794   3.911   8.695 -0.9305 -2.4583 -1.3931
    3SAPS  H17Y  395   4.648   3.991   8.640  2.3941  1.0672 -0.1415
    3SAPS  C318  396   4.617   3.792   8.730 -0.8737 -0.7363 -0.0714
    3SAPS  H18X  397   4.532   3.803   8.800 -0.9782 -1.5408 -0.0691
    3SAPS  H18Y  398   4.686   3.715   8.771 -0.1057 -0.1487 -0.2206
    3SAPS  H18Z  399   4.588   3.757   8.628  0.0758  1.3054 -1.1136
    4SAPS     N  400   4.023   5.579  11.117  0.1633  0.2732  0.1775
    4SAPS   HN1  401   3.975   5.598  11.027 -3.1529  1.8721  2.0849
    4SAPS   HN2  402   3.957   5.541  11.187  0.3307  0.9983  0.7375
    4SAPS   HN3  403   4.055   5.675  11.139 -0.6323  1.0260 -1.7332
    4SAPS   C12  404   4.145   5.491  11.102 -0.0357 -0.6701 -0.1213
    4SAPS  H12A  405   4.203   5.510  11.191  0.7465  3.1961 -1.2386
    4SAPS   C13  406   4.115   5.338  11.112 -0.6927 -0.0660  0.0028
    4SAPS  O13A  407   4.000   5.293  11.141  0.3621  0.6937 -0.1154
    4SAPS  O13B  408   4.218   5.264  11.098  0.5634  0.9005 -0.6507
    4SAPS   C11  409   4.226   5.525  10.974  0.1650  0.1181 -0.2318
    4SAPS  H11A  410   4.163   5.511  10.884 -2.5725  1.4738  1.3426
    4SAPS  H11B  411   4.308   5.450  10.980  0.3423  0.3474  0.2761
    4SAPS     P  412   4.378   5.692  10.871  0.4687  0.1024 -0.2883
    4SAPS   O13  413   4.509   5.652  10.927  0.0607 -0.0057 -0.1302
    4SAPS   O14  414   4.337   5.646  10.739 -0.0794  0.5732 -0.2201
    4SAPS   O12  415   4.266   5.665  10.973  0.5509  0.2082 -1.0606
    4SAPS   O11  416   4.370   5.848  10.866 -0.2006  0.3888  0.0779
    4SAPS    C1  417   4.254   5.906  10.805  0.6738 -0.2256 -0.7535
    4SAPS    HA  418   4.173   5.837  10.773 -0.0396 -0.1139  0.7361
    4SAPS    HB  419   4.202   5.979  10.871 -0.7710  0.8906 -2.9901
    4SAPS    C2  420   4.296   5.988  10.679 -0.6662 -1.1172 -0.3481
    4SAPS    HS  421   4.204   6.031  10.636 -1.7885  0.3119  3.1399
    4SAPS   O21  422   4.377   5.915  10.582  0.0430 -0.4088  0.0279
    4SAPS   C21  423   4.306   5.829  10.510 -0.4275 -0.7500  1.0133
    4SAPS   O22  424   4.185   5.803  10.527 -0.5350 -0.1462  0.1109
    4SAPS   C22  425   4.396   5.761  10.406 -0.1859 -0.1395 -0.5567
    4SAPS   H2R  426   4.499   5.801  10.405  0.3470 -1.2947  1.6873
    4SAPS   H2S  427   4.400   5.654  10.436  1.3095  0.3261  1.0992
    4SAPS    C3  428   4.379   6.116  10.724  0.1208 -0.2288 -0.5481
    4SAPS    HX  429   4.466   6.073  10.778 -0.9475 -1.1777  0.4703
    4SAPS    HY  430   4.324   6.174  10.800  1.4642 -0.2923  0.4969
    4SAPS   O31  431   4.424   6.194  10.606  0.1262  0.7953 -0.5053
    4SAPS   C31  432   4.334   6.287  10.567 -0.6152  0.0327  0.1548
    4SAPS   O32  433   4.229   6.303  10.613 -0.3017 -0.2982 -0.8029
    4SAPS   C32  434   4.396   6.379  10.471 -0.7887  0.3499  0.0437
    4SAPS   H2X  435   4.486   6.323  10.436 -2.0840 -1.6289 -0.2733
    4SAPS   H2Y  436   4.417   6.472  10.528  0.1002 -0.2473  0.7207
    4SAPS   C23  437   4.334   5.769  10.262 -0.7012  0.3424  0.4682
    4SAPS   H3R  438   4.226   5.742  10.261 -0.2880 -1.4223 -0.1831
    4SAPS   H3S  439   4.391   5.686  10.214 -1.2988 -1.0892  2.0916
    4SAPS   C24  440   4.364   5.905  10.192 -0.2677  0.0734 -0.5989
    4SAPS   H4R  441   4.369   5.876  10.085  0.4371 -1.4948 -0.1808
    4SAPS   H4S  442   4.468   5.935  10.220 -0.7185  0.2255  0.9968
    4SAPS   C25  443   4.266   6.012  10.229  0.2545 -0.1753 -0.0327
    4SAPS   H5R  444   4.247   6.027  10.336 -1.5798 -1.2153 -0.1635
    4SAPS   C26  445   4.193   6.087  10.148 -0.2514  0.2379 -0.0586
    4SAPS   H6R  446   4.132   6.166  10.195 -2.5176 -0.8744 -0.9940
    4SAPS   C27  447   4.182   6.077   9.997  0.5966  0.2891 -0.2176
    4SAPS   H7R  448   4.073   6.088   9.978  0.3837 -2.0291 -0.5767
    4SAPS   H7S  449   4.216   5.975   9.970  0.3253  0.4386 -1.1465
    4SAPS   C28  450   4.269   6.172   9.916  0.8520  0.4066  0.5988
    4SAPS   H8R  451   4.271   6.277   9.947  1.1465  1.0826 -1.4981
    4SAPS   C29  452   4.329   6.145   9.793  0.6723 -0.4665 -0.4253
    4SAPS   H9R  453   4.394   6.216   9.739 -1.0782  1.0416 -0.6431
    4SAPS  C210  454   4.321   6.018   9.714  0.5460 -0.3093 -0.2362
    4SAPS  H10R  455   4.279   6.040   9.614 -2.4560 -2.4105  0.4303
    4SAPS  H10S  456   4.249   5.950   9.763  1.2750 -0.7496  0.2509
    4SAPS  C211  457   4.460   5.968   9.704 -0.4080 -0.2770  0.7452
    4SAPS  H11R  458   4.508   5.962   9.802 -1.2092  2.2642  1.3518
    4SAPS  C212  459   4.522   5.918   9.594  0.0594 -0.0594 -0.6948
    4SAPS  H12R  460   4.616   5.864   9.613  0.3738  0.2102 -1.4687
    4SAPS  C213  461   4.458   5.900   9.455 -0.0161  0.2381  0.1108
    4SAPS  H13R  462   4.347   5.907   9.463 -0.0207  1.7540 -0.9101
    4SAPS  H13S  463   4.485   5.794   9.432  4.5331  1.2147  0.1434
    4SAPS  C214  464   4.509   5.994   9.356  1.1474  0.6301 -0.2635
    4SAPS  H14R  465   4.523   6.096   9.396 -0.3164  0.5407  0.5510
    4SAPS  C215  466   4.546   5.969   9.230 -0.2751  0.2944 -0.0468
    4SAPS  H15R  467   4.581   6.051   9.166  0.2132 -0.3059 -0.5581
    4SAPS  C216  468   4.535   5.830   9.166 -0.2644  0.0407  0.7230
    4SAPS  H16R  469   4.449   5.845   9.097  1.5043  3.0149 -1.0178
    4SAPS  H16S  470   4.492   5.750   9.230 -2.8540  0.2461 -0.6221
    4SAPS  C217  471   4.656   5.781   9.094 -0.1533 -0.2965 -0.6868
    4SAPS  H17R  472   4.654   5.670   9.092  3.3850 -0.4726 -0.8067
    4SAPS  H17S  473   4.748   5.806   9.150 -1.0089 -1.2005  1.2121
    4SAPS  C218  474   4.660   5.824   8.945  0.6718  0.4340 -0.1541
    4SAPS  H18R  475   4.645   5.934   8.947  0.7832  0.5588 -2.6733
    4SAPS  H18S  476   4.578   5.773   8.890 -3.5025  1.0617  4.7977
    4SAPS  C219  477   4.793   5.797   8.882  0.2023  0.1002 -0.0703
    4SAPS  H19R  478   4.796   5.693   8.845  0.1411 -0.9436  2.6710
    4SAPS  H19S  479   4.864   5.811   8.966  0.1444  0.4995 -0.0834
    4SAPS  C220  480   4.844   5.888   8.772 -0.8321 -0.3889  0.3639
    4SAPS  H20R  481   4.892   5.828   8.692 -0.2838  1.6078 -0.8753
    4SAPS  H20S  482   4.908   5.969   8.814 -0.2716 -1.2736  1.2729
    4SAPS  H20T  483   4.758   5.944   8.730 -0.7995 -0.9075 -0.3972
    4SAPS   C33  484   4.304   6.413  10.344  0.0038 -0.2194  0.0410
    4SAPS   H3X  485   4.210   6.463  10.375 -0.4911 -1.1307  0.0337
    4SAPS   H3Y  486   4.252   6.334  10.287 -0.5798 -0.1339  0.4491
    4SAPS   C34  487   4.386   6.478  10.224  0.5966 -0.3644 -0.1735
    4SAPS   H4X  488   4.443   6.563  10.268 -1.7361  1.2715 -0.1517
    4SAPS   H4Y  489   4.326   6.521  10.142  1.6414 -0.8663 -1.2337
    4SAPS   C35  490   4.478   6.372  10.161  0.5264 -0.5658 -0.5302
    4SAPS   H5X  491   4.422   6.277  10.150 -1.7263  0.7000 -0.4910
    4SAPS   H5Y  492   4.570   6.351  10.221  0.9629  0.1980 -0.9181
    4SAPS   C36  493   4.530   6.427  10.027 -0.1552 -0.3895  0.4443
    4SAPS   H6X  494   4.593   6.518  10.042 -0.1999 -0.2653 -0.1129
    4SAPS   H6Y  495   4.445   6.458   9.963 -0.4246 -0.3133  0.8383
    4SAPS   C37  496   4.618   6.328   9.948 -0.5401 -0.8230  0.4000
    4SAPS   H7X  497   4.564   6.240   9.909  1.2712 -1.7075 -0.2474
    4SAPS   H7Y  498   4.707   6.304  10.010 -0.0851  3.4899  1.7595
    4SAPS   C38  499   4.673   6.386   9.811  0.2055  0.1943 -0.4755
    4SAPS   H8X  500   4.721   6.486   9.823 -1.6611  1.1968 -1.0305
    4SAPS   H8Y  501   4.583   6.402   9.748  0.9917  0.4182 -1.5926
    4SAPS   C39  502   4.755   6.287   9.730 -0.3909  0.7004  0.0864
    4SAPS   H9X  503   4.717   6.183   9.738 -0.7376  0.9786  3.1859
    4SAPS   H9Y  504   4.862   6.294   9.760 -0.6985 -1.0167  1.7609
    4SAPS  C310  505   4.750   6.321   9.581  0.5189 -0.0625 -0.0198
    4SAPS  H10X  506   4.790   6.423   9.561 -0.8912  0.3920 -0.6225
    4SAPS  H10Y  507   4.644   6.318   9.551  0.4786  1.2720 -0.0705
    4SAPS  C311  508   4.830   6.223   9.496 -0.3271  0.2666  0.7916
    4SAPS  H11X  509   4.781   6.125   9.519 -3.3294  0.8169 -2.3791
    4SAPS  H11Y  510   4.934   6.231   9.535 -1.0244  2.3689  2.3923
    4SAPS  C312  511   4.805   6.257   9.350  0.4770 -0.0111  0.2488
    4SAPS  H12X  512   4.838   6.363   9.346  0.4521 -0.0292 -0.9863
    4SAPS  H12Y  513   4.696   6.248   9.333  0.8539 -0.7301 -2.1319
    4SAPS  C313  514   4.890   6.169   9.256  0.7775  0.1456 -0.4094
    4SAPS  H13X  515   4.857   6.065   9.275 -1.4160  0.4728 -2.0000
    4SAPS  H13Y  516   4.994   6.192   9.288  0.5020 -0.8486  1.3468
    4SAPS  C314  517   4.868   6.197   9.112  0.1793 -0.1725  0.3709
    4SAPS  H14X  518   4.761   6.174   9.094  0.4296 -1.2277  0.1562
    4SAPS  H14Y  519   4.919   6.117   9.054 -0.1741 -0.1026 -0.0310
    4SAPS  C315  520   4.899   6.341   9.061 -0.2601 -0.2880  0.2431
    4SAPS  H15X  521   4.998   6.361   9.107  0.9128 -2.4976 -1.1263
    4SAPS  H15Y  522   4.825   6.413   9.102 -0.3605 -0.5098  0.4523
    4SAPS  C316  523   4.892   6.369   8.902 -0.1590 -0.1667  0.2893
    4SAPS  H16X  524   4.966   6.307   8.847  0.6109 -1.3808  2.5174
    4SAPS  H16Y  525   4.915   6.478   8.896  1.6149 -0.5418 -0.2185
    4SAPS  C317  526   4.753   6.350   8.851 -0.6162 -0.2432  0.3178
    4SAPS  H17X  527   4.672   6.388   8.918 -1.2798 -0.2447 -0.4636
    4SAPS  H17Y  528   4.726   6.242   8.837 -1.3518 -0.0085 -0.1640
    4SAPS  C318  529   4.732   6.408   8.707  0.6336  0.9035 -0.8440
    4SAPS  H18X  530   4.792   6.346   8.637  0.4978  0.2663 -0.4156
    4SAPS  H18Y  531   4.756   6.516   8.707 -3.0527  1.8595 -1.7022
    4SAPS  H18Z  532   4.624   6.395   8.683  0.1219 -2.0469  2.2548
    5SAPS     N  533   3.333   3.818  10.758  0.2669  0.0144 -0.0195
    5SAPS   HN1  534   3.294   3.895  10.701  0.3559 -1.0969 -1.6199
    5SAPS   HN2  535   3.424   3.851  10.796  0.8820  0.9028 -2.1328
    5SAPS   HN3  536   3.336   3.727  10.709 -0.7586 -0.1501  0.2009
    5SAPS   C12  537   3.230   3.807  10.871  0.3735 -0.0640  0.0476
    5SAPS  H12A  538   3.252   3.720  10.931  1.1121 -0.9241 -1.4282
    5SAPS   C13  539   3.234   3.933  10.964 -0.0718 -0.2672 -0.0672
    5SAPS  O13A  540   3.293   4.040  10.935  0.2065 -0.2923 -0.0694
    5SAPS  O13B  541   3.153   3.929  11.064  0.1813  0.2192  0.1888
    5SAPS   C11  542   3.091   3.796  10.809  0.4999  0.0967 -0.5140
    5SAPS  H11A  543   3.019   3.792  10.894 -2.0509  3.2042 -2.2917
    5SAPS  H11B  544   3.084   3.703  10.748  1.3287  0.6733 -1.5237
    5SAPS     P  545   2.895   3.950  10.704  0.3026  0.1453  0.2053
    5SAPS   O13  546   2.814   3.829  10.703  1.0381  0.2712 -0.5600
    5SAPS   O14  547   2.848   4.052  10.796 -0.3028  0.3315 -0.0854
    5SAPS   O12  548   3.051   3.906  10.724  0.5263 -0.1482 -0.0165
    5SAPS   O11  549   2.905   4.012  10.561  0.0635 -0.2093  0.0846
    5SAPS    C1  550   2.880   3.940  10.435 -0.2482  0.6115  0.6167
    5SAPS    HA  551   2.804   3.861  10.451 -1.0313  1.2312  0.0584
    5SAPS    HB  552   2.817   4.007  10.372  0.3259  0.1784 -0.4323
    5SAPS    C2  553   3.004   3.889  10.363 -0.3965 -0.7649  0.2232
    5SAPS    HS  554   3.083   3.863  10.436 -0.7134  1.1713  1.3391
    5SAPS   O21  555   3.052   3.990  10.275 -0.0299  0.1297 -0.1886
    5SAPS   C21  556   3.181   4.029  10.257  0.1522  0.1247 -0.0490
    5SAPS   O22  557   3.280   3.969  10.301 -0.0506  0.0520 -0.4105
    5SAPS   C22  558   3.183   4.146  10.166 -0.5060 -0.2097  0.7427
    5SAPS   H2R  559   3.128   4.227  10.218 -0.2214  0.0177  0.6854
    5SAPS   H2S  560   3.288   4.182  10.165  0.0175 -1.5718  2.0076
    5SAPS    C3  561   2.973   3.760  10.282  0.1372 -0.4225 -0.8447
    5SAPS    HX  562   2.922   3.681  10.342  1.8453 -0.2557  0.9394
    5SAPS    HY  563   3.071   3.721  10.250  0.4345 -0.7021  0.3363
    5SAPS   O31  564   2.894   3.778  10.165 -0.1684 -0.2377  0.3704
    5SAPS   C31  565   2.909   3.678  10.075 -0.4843  0.2626  0.2772
    5SAPS   O32  566   2.955   3.569  10.099 -0.1876 -0.0590  0.4334
    5SAPS   C32  567   2.877   3.743   9.941  0.0707 -0.2804 -0.1696
    5SAPS   H2X  568   2.869   3.853   9.952 -0.4030 -0.2273 -1.0034
    5SAPS   H2Y  569   2.788   3.696   9.895  0.3675  0.0950 -1.1577
    5SAPS   C23  570   3.134   4.127  10.023  0.4204  0.1925  0.4590
    5SAPS   H3R  571   3.163   4.215   9.962 -0.6448  0.2104 -0.0395
    5SAPS   H3S  572   3.027   4.097  10.018  0.6525 -1.3608  3.2737
    5SAPS   C24  573   3.200   4.006   9.953 -0.0384  0.8340 -0.2202
    5SAPS   H4R  574   3.134   3.977   9.868  0.9351 -0.9935 -0.4037
    5SAPS   H4S  575   3.176   3.929  10.029  0.3273  2.0028  1.1252
    5SAPS   C25  576   3.344   4.026   9.910 -0.0864 -0.1854 -0.4418
    5SAPS   H5R  577   3.419   4.018   9.990  2.2137 -0.2092 -2.4861
    5SAPS   C26  578   3.385   4.079   9.795 -0.1214  0.1819 -0.1307
    5SAPS   H6R  579   3.493   4.071   9.777  0.3995  0.3958  2.5675
    5SAPS   C27  580   3.304   4.123   9.674  0.1020  0.6105  0.2267
    5SAPS   H7R  581   3.366   4.191   9.612  0.6215  0.3352  0.4406
    5SAPS   H7S  582   3.214   4.181   9.703  0.3675 -0.7096  4.3081
    5SAPS   C28  583   3.269   4.011   9.588 -0.3972  0.7358  0.6901
    5SAPS   H8R  584   3.166   3.976   9.606 -0.5048 -0.0476 -1.2501
    5SAPS   C29  585   3.338   3.949   9.494 -0.2226  0.1839  0.2551
    5SAPS   H9R  586   3.292   3.878   9.424  2.1754  0.9397 -2.2170
    5SAPS  C210  587   3.481   3.974   9.454  0.6722 -0.0296 -0.7673
    5SAPS  H10R  588   3.543   3.883   9.469 -0.8036 -1.0373 -0.5436
    5SAPS  H10S  589   3.522   4.044   9.530 -1.2374 -0.2197  0.5071
    5SAPS  C211  590   3.487   4.037   9.315  0.2157 -0.0966  0.0852
    5SAPS  H11R  591   3.427   4.130   9.309 -0.3584 -0.5610 -2.4694
    5SAPS  C212  592   3.551   3.975   9.213 -0.1257  0.0359  0.1737
    5SAPS  H12R  593   3.564   4.036   9.122 -0.9230 -0.0018  0.0292
    5SAPS  C213  594   3.614   3.837   9.222  0.2410 -0.5989  0.3843
    5SAPS  H13R  595   3.562   3.771   9.294  1.3002 -1.9255 -0.0461
    5SAPS  H13S  596   3.716   3.858   9.260  0.4861 -0.3578 -0.3762
    5SAPS  C214  597   3.638   3.757   9.095 -0.1571 -0.3182  0.4546
    5SAPS  H14R  598   3.563   3.679   9.072  1.8878 -1.5905 -2.4668
    5SAPS  C215  599   3.739   3.778   9.014  0.5858 -0.2254 -0.2662
    5SAPS  H15R  600   3.753   3.707   8.932 -1.3578 -0.6235 -0.2799
    5SAPS  C216  601   3.855   3.880   9.029  0.5114  0.0338 -0.5451
    5SAPS  H16R  602   3.868   3.931   9.127  2.3594 -2.6493  0.7240
    5SAPS  H16S  603   3.847   3.956   8.948  0.3825  0.7822  0.1569
    5SAPS  C217  604   3.982   3.808   9.007 -1.2826  0.1025 -0.8784
    5SAPS  H17R  605   3.998   3.726   9.079  1.1718  0.7298 -0.6171
    5SAPS  H17S  606   4.062   3.880   9.038  1.2032 -2.1634 -1.6774
    5SAPS  C218  607   4.008   3.756   8.870 -0.1453 -0.5101 -0.4910
    5SAPS  H18R  608   3.940   3.669   8.857 -1.5040  0.3709  0.5308
    5SAPS  H18S  609   3.991   3.828   8.788  0.7172  2.7236  1.9802
    5SAPS  C219  610   4.152   3.701   8.861 -0.4593 -0.6780  0.5659
    5SAPS  H19R  611   4.155   3.632   8.948  1.2047  0.3496  1.3603
    5SAPS  H19S  612   4.219   3.786   8.882 -2.0196  0.8776 -0.4451
    5SAPS  C220  613   4.177   3.622   8.735 -0.5347  0.0983  0.7867
    5SAPS  H20R  614   4.286   3.599   8.726 -0.7827 -0.7075 -0.4297
    5SAPS  H20S  615   4.148   3.692   8.654 -1.2425 -0.4354  0.5677
    5SAPS  H20T  616   4.118   3.528   8.739  0.7023 -0.9641 -2.4094
    5SAPS   C33  617   2.987   3.702   9.844  0.2485  1.0740 -0.1017
    5SAPS   H3X  618   2.989   3.591   9.835 -0.1612  1.0695 -0.1545
    5SAPS   H3Y  619   3.086   3.738   9.876  1.0020  0.1027 -1.2523
    5SAPS   C34  620   2.942   3.764   9.711 -0.1226  0.6565  0.6275
    5SAPS   H4X  621   2.942   3.875   9.712  1.2651  0.7237 -1.0577
    5SAPS   H4Y  622   2.841   3.724   9.687  0.3677 -0.2204 -0.0095
    5SAPS   C35  623   3.032   3.714   9.592 -0.0692 -0.3525 -0.2246
    5SAPS   H5X  624   3.015   3.606   9.573 -2.3652  0.1363 -1.2950
    5SAPS   H5Y  625   3.138   3.737   9.612 -0.1919 -0.1794  0.2419
    5SAPS   C36  626   2.998   3.778   9.454  0.5373  0.0565  0.3856
    5SAPS   H6X  627   3.090   3.775   9.391  0.5621  1.1797  0.3544
    5SAPS   H6Y  628   2.977   3.884   9.478 -1.3989  0.1157 -1.2386
    5SAPS   C37  629   2.864   3.727   9.396  0.1767  0.1332  0.5744
    5SAPS   H7X  630   2.788   3.719   9.476  2.3079 -0.2718  2.6678
    5SAPS   H7Y  631   2.873   3.626   9.349 -1.3574  0.9694 -1.7262
    5SAPS   C38  632   2.816   3.803   9.277 -0.4921 -0.1680 -0.6027
    5SAPS   H8X  633   2.875   3.776   9.187  2.5552 -3.5060  2.0843
    5SAPS   H8Y  634   2.818   3.912   9.300 -1.8661 -0.3701  0.6265
    5SAPS   C39  635   2.669   3.780   9.237  0.0497 -0.3668  0.0586
    5SAPS   H9X  636   2.645   3.679   9.199  2.6946 -0.2109 -2.3001
    5SAPS   H9Y  637   2.650   3.840   9.146  0.4586 -1.7486 -0.9638
    5SAPS  C310  638   2.565   3.800   9.346 -0.0175 -0.4885 -0.0696
    5SAPS  H10X  639   2.571   3.714   9.416 -0.5775 -1.4136 -1.1199
    5SAPS  H10Y  640   2.467   3.788   9.294  0.4408  0.4906 -1.2245
    5SAPS  C311  641   2.585   3.932   9.427  0.5693  0.4044 -0.5719
    5SAPS  H11X  642   2.584   4.006   9.345  0.6436  2.0181  0.8436
    5SAPS  H11Y  643   2.683   3.934   9.480  1.6620 -0.5794 -2.4484
    5SAPS  C312  644   2.472   3.957   9.525  0.2493 -0.3697 -0.7314
    5SAPS  H12X  645   2.378   3.920   9.479  0.6051 -2.8317  0.3874
    5SAPS  H12Y  646   2.474   4.063   9.558  2.1747 -1.2706  2.5076
    5SAPS  C313  647   2.478   3.873   9.650  1.2654  0.2937 -0.0267
    5SAPS  H13X  648   2.582   3.835   9.655  1.3072  0.5810  2.0742
    5SAPS  H13Y  649   2.416   3.781   9.646  0.4041  0.6673  2.5060
    5SAPS  C314  650   2.444   3.942   9.785 -0.3392 -0.6023 -0.6788
    5SAPS  H14X  651   2.344   3.990   9.770  2.0521  5.7113  0.2031
    5SAPS  H14Y  652   2.516   4.026   9.794 -0.3104 -0.7910  1.0657
    5SAPS  C315  653   2.470   3.843   9.898  0.1981  0.6842 -0.3576
    5SAPS  H15X  654   2.550   3.766   9.896 -0.6534 -0.2635  0.6483
    5SAPS  H15Y  655   2.376   3.786   9.919  0.7434 -0.7160 -1.5484
    5SAPS  C316  656   2.524   3.922  10.024 -0.4194 -0.2321  0.2915
    5SAPS  H16X  657   2.452   4.006  10.038  0.2020 -0.0709  3.1545
    5SAPS  H16Y  658   2.625   3.957   9.998 -1.5421  2.2107 -1.0769
    5SAPS  C317  659   2.529   3.848  10.154  0.1830 -0.1613  0.0765
    5SAPS  H17X  660   2.597   3.761  10.139  1.4138  0.5062  1.5321
    5SAPS  H17Y  661   2.431   3.799  10.170  1.4865 -2.5995  1.1551
    5SAPS  C318  662   2.581   3.934  10.268  0.3274  0.2565 -0.4976
    5SAPS  H18X  663   2.671   3.994  10.243 -1.6661  2.9044 -1.7831
    5SAPS  H18Y  664   2.607   3.874  10.358  2.3665 -1.3015 -2.0383
    5SAPS  H18Z  665   2.501   4.006  10.294 -1.9863 -0.9187 -3.7315
    6SAPS     N  666   1.080   5.088  11.115 -0.8376 -0.3485 -0.4323
    6SAPS   HN1  667   1.088   4.991  11.153  2.6467  0.7312  2.1314
    6SAPS   HN2  668   1.176   5.124  11.096 -1.2498  1.1935  0.3040
    6SAPS   HN3  669   1.036   5.141  11.192  2.6434  2.2304  0.0307
    6SAPS   C12  670   0.996   5.093  10.992  0.3982 -0.0124  0.3291
    6SAPS  H12A  671   1.035   5.017  10.926  0.6313 -0.5866  1.1191
    6SAPS   C13  672   0.842   5.085  11.011 -0.0316 -0.3576 -0.3344
    6SAPS  O13A  673   0.795   5.074  11.126 -0.9629 -0.2292  0.1620
    6SAPS  O13B  674   0.769   5.091  10.908  0.1265 -0.7555 -0.0322
    6SAPS   C11  675   1.035   5.229  10.925 -0.1493 -0.5327 -0.9981
    6SAPS  H11A  676   1.007   5.316  10.988  1.0311 -2.2853  2.1345
    6SAPS  H11B  677   0.960   5.249  10.845 -3.1369 -2.2101  1.1541
    6SAPS     P  678   1.213   5.324  10.760  0.7282 -0.8157 -0.6607
    6SAPS   O13  679   1.144   5.454  10.774  0.1000  0.4810 -0.4428
    6SAPS   O14  680   1.366   5.312  10.764  0.4069 -0.3408 -0.0031
    6SAPS   O12  681   1.167   5.238  10.887 -0.0758  0.2696  0.4010
    6SAPS   O11  682   1.157   5.255  10.635  0.4644  0.6292 -0.2189
    6SAPS    C1  683   1.185   5.112  10.602 -0.2659 -0.3895  0.1163
    6SAPS    HA  684   1.207   5.051  10.693  2.4084 -2.7863 -1.9367
    6SAPS    HB  685   1.098   5.064  10.552  0.4346 -1.6773  0.1024
    6SAPS    C2  686   1.294   5.105  10.494 -0.0425  0.2364  0.1610
    6SAPS    HS  687   1.382   5.168  10.522 -1.2643  2.5737 -0.9285
    6SAPS   O21  688   1.235   5.142  10.364 -0.0983  0.2432 -0.2240
    6SAPS   C21  689   1.278   5.260  10.317  0.1161 -0.3133 -0.0825
    6SAPS   O22  690   1.352   5.340  10.375  0.0843 -0.1836 -0.0353
    6SAPS   C22  691   1.217   5.280  10.187 -0.1345  0.3015 -0.6192
    6SAPS   H2R  692   1.201   5.187  10.128  0.7312  1.3660 -2.6319
    6SAPS   H2S  693   1.118   5.324  10.209 -0.4921 -1.2149  0.9605
    6SAPS    C3  694   1.327   4.953  10.481  0.1267 -0.0007 -0.4221
    6SAPS    HX  695   1.232   4.898  10.463 -0.0163 -0.1578  0.7123
    6SAPS    HY  696   1.372   4.927  10.580 -0.1584  1.6330  0.1659
    6SAPS   O31  697   1.419   4.943  10.370 -0.0643 -0.1388 -0.1905
    6SAPS   C31  698   1.383   4.858  10.275 -0.3506  0.3473 -0.2362
    6SAPS   O32  699   1.300   4.770  10.294 -0.3194 -0.2234  0.5759
    6SAPS   C32  700   1.451   4.898  10.141 -0.2004 -0.4487  0.0737
    6SAPS   H2X  701   1.554   4.930  10.168 -0.6675  0.5239  0.7742
    6SAPS   H2Y  702   1.411   4.997  10.111 -0.2968 -0.2134  0.9606
    6SAPS   C23  703   1.291   5.388  10.093  0.1370  0.8414  0.0198
    6SAPS   H3R  704   1.290   5.488  10.141  2.3135 -0.3957  2.9445
    6SAPS   H3S  705   1.225   5.397  10.004 -1.3945  1.8464  1.2155
    6SAPS   C24  706   1.430   5.345  10.041 -0.0299 -0.5951  0.1107
    6SAPS   H4R  707   1.424   5.237  10.014 -0.7681 -0.1708 -1.5983
    6SAPS   H4S  708   1.497   5.359  10.127  0.0668 -1.6225  0.2112
    6SAPS   C25  709   1.476   5.436   9.924  0.2070 -0.1714  0.0039
    6SAPS   H5R  710   1.522   5.535   9.942 -1.3984  0.3029  1.8332
    6SAPS   C26  711   1.453   5.408   9.798  0.3720  0.3760  0.5181
    6SAPS   H6R  712   1.465   5.489   9.724  0.7506 -0.0331  0.1257
    6SAPS   C27  713   1.382   5.279   9.741  0.4417 -0.3053 -0.1724
    6SAPS   H7R  714   1.293   5.305   9.680 -0.0742  0.7467  0.9966
    6SAPS   H7S  715   1.337   5.224   9.826 -0.3401 -0.5820 -0.7502
    6SAPS   C28  716   1.474   5.192   9.659 -0.0269  1.0773 -0.0475
    6SAPS   H8R  717   1.544   5.141   9.727 -0.7752  0.0980  0.0196
    6SAPS   C29  718   1.489   5.174   9.527  0.4288  0.1682  0.2277
    6SAPS   H9R  719   1.549   5.089   9.491 -2.1824 -1.5174 -0.4218
    6SAPS  C210  720   1.399   5.231   9.419 -0.3666  0.1338 -0.4022
    6SAPS  H10R  721   1.402   5.342   9.428 -0.7083  0.1554 -0.5754
    6SAPS  H10S  722   1.295   5.205   9.448 -1.2958  1.3501 -2.4778
    6SAPS  C211  723   1.434   5.179   9.279  0.0422  0.1278  0.0362
    6SAPS  H11R  724   1.540   5.188   9.253  0.2981 -1.0365  0.6177
    6SAPS  C212  725   1.346   5.128   9.190 -0.5035 -0.1864 -0.1408
    6SAPS  H12R  726   1.381   5.110   9.088 -0.4092 -0.9380  0.0235
    6SAPS  C213  727   1.204   5.107   9.214  0.5107  0.1797  0.3292
    6SAPS  H13R  728   1.142   5.198   9.195  0.8598  0.2249 -0.6623
    6SAPS  H13S  729   1.188   5.083   9.321  1.0067  0.1945  0.4056
    6SAPS  C214  730   1.145   5.005   9.119  0.9565 -0.2034 -0.4608
    6SAPS  H14R  731   1.124   5.041   9.017 -2.6904 -1.4687 -0.3128
    6SAPS  C215  732   1.109   4.877   9.153 -0.1158 -0.5889  0.7555
    6SAPS  H15R  733   1.071   4.813   9.072  1.6878 -0.5319 -0.1845
    6SAPS  C216  734   1.129   4.807   9.281 -0.7628  0.5265 -0.5514
    6SAPS  H16R  735   1.228   4.843   9.315 -0.5816 -1.8992  1.8364
    6SAPS  H16S  736   1.139   4.697   9.270 -1.7322  0.3116  0.4641
    6SAPS  C217  737   1.021   4.849   9.379 -0.3921  0.7248  0.5075
    6SAPS  H17R  738   0.930   4.797   9.341  0.9765 -0.3994 -1.4463
    6SAPS  H17S  739   1.002   4.958   9.370  0.4076  0.7547 -1.3681
    6SAPS  C218  740   1.056   4.796   9.519 -0.5714  0.1725 -0.0023
    6SAPS  H18R  741   1.099   4.694   9.511 -1.0457 -0.1620  1.4570
    6SAPS  H18S  742   0.975   4.784   9.594 -0.0706 -0.6390  0.4304
    6SAPS  C219  743   1.158   4.877   9.601 -0.7269 -0.4228  0.4621
    6SAPS  H19R  744   1.136   4.984   9.579  0.0031  0.1638  2.3813
    6SAPS  H19S  745   1.259   4.862   9.558 -0.4286 -1.3679  1.4499
    6SAPS  C220  746   1.155   4.852   9.751 -0.3088 -0.7085 -0.2866
    6SAPS  H20R  747   1.169   4.747   9.782  0.3053 -0.0251  1.9532
    6SAPS  H20S  748   1.064   4.902   9.791 -1.2972 -1.2174 -1.8311
    6SAPS  H20T  749   1.244   4.903   9.794 -0.2169 -0.0476 -1.2203
    6SAPS   C33  750   1.441   4.800  10.021  0.2468 -0.4156  0.5138
    6SAPS   H3X  751   1.334   4.779   9.999 -0.2619 -0.9127  3.1058
    6SAPS   H3Y  752   1.491   4.703  10.040  2.0315  0.2842 -0.4344
    6SAPS   C34  753   1.502   4.862   9.899  0.6853  0.5323  0.1153
    6SAPS   H4X  754   1.604   4.901   9.924  1.3395 -0.2782 -1.1831
    6SAPS   H4Y  755   1.437   4.948   9.873  0.3729 -0.2972 -2.0262
    6SAPS   C35  756   1.513   4.773   9.775  1.4027  0.7119 -0.6133
    6SAPS   H5X  757   1.418   4.761   9.719  0.9658  2.5759 -0.3358
    6SAPS   H5Y  758   1.546   4.675   9.814  1.7476  1.5378  1.2950
    6SAPS   C36  759   1.606   4.835   9.677  0.3252  0.1105 -0.3269
    6SAPS   H6X  760   1.699   4.849   9.735  1.1671  1.1408 -1.8662
    6SAPS   H6Y  761   1.573   4.935   9.643  3.2921  1.0671 -0.6702
    6SAPS   C37  762   1.635   4.744   9.559 -0.0657  0.3425 -0.0230
    6SAPS   H7X  763   1.688   4.654   9.597 -1.6817 -0.6217  0.0168
    6SAPS   H7Y  764   1.710   4.800   9.500  1.1678 -2.2065 -1.0230
    6SAPS   C38  765   1.515   4.703   9.473 -0.3289 -0.4644 -0.4953
    6SAPS   H8X  766   1.461   4.799   9.457 -1.9439 -1.4487 -1.2613
    6SAPS   H8Y  767   1.440   4.632   9.516  0.4885 -0.0478  1.7571
    6SAPS   C39  768   1.547   4.646   9.341  0.0222  0.2574  0.0847
    6SAPS   H9X  769   1.628   4.712   9.303  2.1018 -1.0575  2.0150
    6SAPS   H9Y  770   1.459   4.659   9.274 -0.8036  1.7563  1.3872
    6SAPS  C310  771   1.613   4.503   9.339 -0.1620 -0.1848  0.0297
    6SAPS  H10X  772   1.537   4.429   9.373 -0.3708 -0.0478 -0.1324
    6SAPS  H10Y  773   1.712   4.500   9.387  0.2660 -2.8663 -0.8726
    6SAPS  C311  774   1.645   4.465   9.191 -0.8701  0.1808 -0.4416
    6SAPS  H11X  775   1.701   4.369   9.195 -0.6167  0.3393 -0.1308
    6SAPS  H11Y  776   1.712   4.544   9.152 -0.1226  0.1896  0.8043
    6SAPS  C312  777   1.528   4.456   9.098  0.1472  0.3057  0.6391
    6SAPS  H12X  778   1.478   4.554   9.085 -1.5556 -0.4626  1.1132
    6SAPS  H12Y  779   1.451   4.387   9.140  0.5682 -1.7643 -1.7429
    6SAPS  C313  780   1.563   4.414   8.956 -0.0832 -0.3406  0.0331
    6SAPS  H13X  781   1.477   4.358   8.913 -1.3649  1.7133 -0.1839
    6SAPS  H13Y  782   1.648   4.343   8.964 -0.5212 -0.8792 -0.0399
    6SAPS  C314  783   1.602   4.528   8.856  0.0027 -0.3346 -0.2560
    6SAPS  H14X  784   1.685   4.577   8.912 -2.1562  0.5951  2.3167
    6SAPS  H14Y  785   1.522   4.604   8.855 -0.9011 -1.2549  0.2413
    6SAPS  C315  786   1.640   4.466   8.723 -0.4374  0.1075  0.2724
    6SAPS  H15X  787   1.551   4.404   8.698  0.6301 -1.9000  1.2360
    6SAPS  H15Y  788   1.726   4.398   8.742  0.1780 -0.2329 -3.1124
    6SAPS  C316  789   1.681   4.571   8.621  1.1282 -0.1884 -0.4682
    6SAPS  H16X  790   1.761   4.634   8.665  1.4288  0.5200 -1.9595
    6SAPS  H16Y  791   1.599   4.643   8.599  0.3144 -1.4556 -1.8352
    6SAPS  C317  792   1.730   4.516   8.489  0.6222  0.5901 -0.1369
    6SAPS  H17X  793   1.757   4.408   8.496 -1.3724  0.1378  1.8616
    6SAPS  H17Y  794   1.821   4.572   8.459  0.3410  0.2481 -1.7229
    6SAPS  C318  795   1.622   4.538   8.377  0.3683  0.8765  0.1179
    6SAPS  H18X  796   1.605   4.641   8.340  1.2238  1.1299  0.3909
    6SAPS  H18Y  797   1.523   4.515   8.420  1.3394 -2.1510  1.0135
    6SAPS  H18Z  798   1.644   4.464   8.297  1.0197  0.5021  0.6235
    7SAPS     N  799   2.834   4.300  10.716  0.3057  0.1674 -0.6858
    7SAPS   HN1  800   2.741   4.288  10.672  0.1039 -1.9524  0.2131
    7SAPS   HN2  801   2.911   4.311  10.647 -1.1920  0.5630 -2.3692
    7SAPS   HN3  802   2.848   4.212  10.770 -0.2408  0.6757  0.3241
    7SAPS   C12  803   2.837   4.399  10.834 -0.3517 -0.2783  0.5241
    7SAPS  H12A  804   2.747   4.385  10.892  0.1298  1.5248  1.8241
    7SAPS   C13  805   2.959   4.399  10.917  0.2027 -0.0191 -0.2127
    7SAPS  O13A  806   3.057   4.321  10.895  0.3266  0.0211  0.6314
    7SAPS  O13B  807   2.974   4.491  11.006  0.2708  0.1656  0.1329
    7SAPS   C11  808   2.838   4.539  10.767 -0.2259 -0.4844 -0.3477
    7SAPS  H11A  809   2.933   4.552  10.713 -1.6320 -0.9236 -3.0915
    7SAPS  H11B  810   2.826   4.616  10.846 -0.5476 -0.0763 -0.7874
    7SAPS     P  811   2.610   4.644  10.674  0.1130 -0.1989  0.0507
    7SAPS   O13  812   2.531   4.597  10.789  0.5549  0.3508 -0.5622
    7SAPS   O14  813   2.655   4.785  10.662  0.0079 -0.0430  0.3032
    7SAPS   O12  814   2.737   4.548  10.663  0.3573 -0.5937  0.5097
    7SAPS   O11  815   2.531   4.615  10.535  0.7491  0.2897 -0.8232
    7SAPS    C1  816   2.466   4.494  10.505 -0.1017 -0.1375 -0.0631
    7SAPS    HA  817   2.523   4.404  10.539  0.7390  0.8746  1.3242
    7SAPS    HB  818   2.370   4.485  10.561  0.3515 -0.6447  0.6597
    7SAPS    C2  819   2.425   4.492  10.352  0.4763 -0.6600  0.3480
    7SAPS    HS  820   2.378   4.393  10.339 -0.9463 -0.2301  1.8193
    7SAPS   O21  821   2.545   4.508  10.265  0.2829 -0.1693  0.5348
    7SAPS   C21  822   2.633   4.406  10.264 -0.4053 -0.6380 -1.1006
    7SAPS   O22  823   2.611   4.298  10.315 -0.0687 -0.9485 -0.4315
    7SAPS   C22  824   2.756   4.443  10.187  0.4760  0.2823  0.4555
    7SAPS   H2R  825   2.724   4.535  10.133 -0.8690 -0.4145  0.0052
    7SAPS   H2S  826   2.833   4.479  10.258 -0.0328  0.0012  1.1601
    7SAPS    C3  827   2.315   4.606  10.308 -0.1919 -0.5476  0.2867
    7SAPS    HX  828   2.347   4.704  10.349 -0.6107  0.7883 -2.3567
    7SAPS    HY  829   2.220   4.574  10.356  0.6179  0.0880  2.4258
    7SAPS   O31  830   2.295   4.607  10.167 -0.2939  0.2345  0.2881
    7SAPS   C31  831   2.322   4.718  10.102  0.4664 -0.8129 -0.1880
    7SAPS   O32  832   2.362   4.824  10.158  0.5467 -0.4378  1.0681
    7SAPS   C32  833   2.311   4.686   9.948 -0.0018 -0.1457 -0.1194
    7SAPS   H2X  834   2.223   4.619   9.941  0.5863 -0.7599 -2.5424
    7SAPS   H2Y  835   2.408   4.636   9.927  0.3123  0.4197 -0.0308
    7SAPS   C23  836   2.829   4.341  10.104 -0.1775 -0.3116 -0.1617
    7SAPS   H3R  837   2.840   4.242  10.153  1.4082 -0.6802 -1.1578
    7SAPS   H3S  838   2.931   4.381  10.081  0.2370 -0.8747  0.6402
    7SAPS   C24  839   2.770   4.313   9.967 -0.6312  0.6756  0.5551
    7SAPS   H4R  840   2.665   4.279   9.979 -1.2088  1.8230 -0.9016
    7SAPS   H4S  841   2.825   4.229   9.920 -1.6278  0.2779  0.0611
    7SAPS   C25  842   2.753   4.432   9.879  0.1559 -0.6660  0.1896
    7SAPS   H5R  843   2.696   4.520   9.914 -1.6644 -0.1543 -3.5287
    7SAPS   C26  844   2.817   4.453   9.761  0.3224 -0.9773  0.3149
    7SAPS   H6R  845   2.789   4.549   9.715 -2.3318 -1.1658  1.3401
    7SAPS   C27  846   2.923   4.366   9.699  0.8736 -0.0799 -0.5964
    7SAPS   H7R  847   3.000   4.341   9.775  0.6598  3.5834  1.0495
    7SAPS   H7S  848   2.980   4.434   9.633  0.8939  0.6287  0.1339
    7SAPS   C28  849   2.879   4.241   9.631  0.7505  0.6239  0.1154
    7SAPS   H8R  850   2.820   4.176   9.698  1.4654 -0.3930 -0.2250
    7SAPS   C29  851   2.899   4.199   9.501 -0.0797  0.1868 -0.5545
    7SAPS   H9R  852   2.863   4.103   9.462 -1.2092  1.3781 -2.6160
    7SAPS  C210  853   2.972   4.267   9.389  0.2801  0.0515 -0.3404
    7SAPS  H10R  854   3.018   4.361   9.426  1.7197 -0.7370 -0.0568
    7SAPS  H10S  855   2.911   4.291   9.299 -0.6309  1.5307  0.6387
    7SAPS  C211  856   3.078   4.173   9.337  1.1337  0.6804  0.2813
    7SAPS  H11R  857   3.159   4.156   9.411  1.4550 -0.8173 -0.3817
    7SAPS  C212  858   3.085   4.105   9.220  0.0449  0.2986  0.9015
    7SAPS  H12R  859   3.184   4.061   9.205 -0.7167 -0.5308 -2.4687
    7SAPS  C213  860   2.994   4.087   9.104 -0.7788  1.1041  0.6155
    7SAPS  H13R  861   2.895   4.134   9.122 -0.1404  3.2465 -0.9758
    7SAPS  H13S  862   2.980   3.979   9.082 -3.0652  1.6031 -0.6931
    7SAPS  C214  863   3.045   4.167   8.985 -0.1033 -0.3790  0.3053
    7SAPS  H14R  864   3.082   4.270   8.991 -1.5720  0.1751  0.3412
    7SAPS  C215  865   3.052   4.113   8.861  0.7174 -0.1412  0.6545
    7SAPS  H15R  866   3.076   4.186   8.782 -1.2705  1.5546  1.5075
    7SAPS  C216  867   3.008   3.980   8.807 -0.5439 -0.2490  0.0238
    7SAPS  H16R  868   2.960   3.997   8.709  0.4472  1.5435 -0.1930
    7SAPS  H16S  869   2.934   3.938   8.879 -2.0035  0.9415 -0.7431
    7SAPS  C217  870   3.134   3.894   8.773  0.3638  0.0010 -0.6175
    7SAPS  H17R  871   3.197   3.935   8.691  0.8170  0.6994  0.0725
    7SAPS  H17S  872   3.098   3.795   8.738  0.7765  0.2433 -1.7698
    7SAPS  C218  873   3.212   3.855   8.904  0.4204  0.6297  0.4241
    7SAPS  H18R  874   3.254   3.934   8.970  1.7148 -3.0323  4.5025
    7SAPS  H18S  875   3.300   3.794   8.877  0.0444 -0.4921  1.6443
    7SAPS  C219  876   3.137   3.750   8.994 -0.4018 -0.3534  0.2714
    7SAPS  H19R  877   3.123   3.661   8.929  0.7272 -0.5368  0.2496
    7SAPS  H19S  878   3.038   3.789   9.025 -0.0279  0.8565 -0.0167
    7SAPS  C220  879   3.225   3.720   9.114 -0.6995 -0.0587  0.3427
    7SAPS  H20R  880   3.330   3.688   9.092 -1.0116 -2.3008  1.7512
    7SAPS  H20S  881   3.191   3.641   9.183  0.0995  0.6046  1.5363
    7SAPS  H20T  882   3.239   3.806   9.183  0.2525  0.1387 -0.0725
    7SAPS   C33  883   2.300   4.818   9.870 -0.0264  0.4161 -0.0765
    7SAPS   H3X  884   2.391   4.881   9.881  1.7449 -2.0149 -0.0839
    7SAPS   H3Y  885   2.216   4.886   9.895  0.6443  1.3234 -0.2075
    7SAPS   C34  886   2.287   4.807   9.712  0.4329 -0.0860 -0.0431
    7SAPS   H4X  887   2.372   4.747   9.672 -0.0988 -0.1931 -1.0311
    7SAPS   H4Y  888   2.298   4.910   9.671  2.1687  0.2707  1.1985
    7SAPS   C35  889   2.159   4.739   9.663  0.2407 -0.3310 -0.0641
    7SAPS   H5X  890   2.070   4.805   9.676  0.6970  0.0603  1.2713
    7SAPS   H5Y  891   2.139   4.655   9.732 -0.2089 -0.1243  0.0605
    7SAPS   C36  892   2.164   4.690   9.517 -0.5174 -0.4614 -0.2966
    7SAPS   H6X  893   2.252   4.626   9.495  0.0551  0.6825 -1.4498
    7SAPS   H6Y  894   2.178   4.780   9.454  0.5105  1.0548  1.9535
    7SAPS   C37  895   2.035   4.619   9.480 -0.3025  0.3265  0.2179
    7SAPS   H7X  896   1.955   4.682   9.522  0.1376  1.2500 -0.2999
    7SAPS   H7Y  897   2.017   4.527   9.539 -0.4619  1.2949  1.7060
    7SAPS   C38  898   2.002   4.605   9.333 -0.2338  0.3771  0.2888
    7SAPS   H8X  899   2.007   4.707   9.289 -1.2965  0.3908  0.1841
    7SAPS   H8Y  900   1.901   4.565   9.310 -0.1638  0.4546 -0.1603
    7SAPS   C39  901   2.117   4.516   9.260  0.6505 -0.0857  0.0579
    7SAPS   H9X  902   2.125   4.422   9.318 -0.3491 -1.0549 -1.3001
    7SAPS   H9Y  903   2.214   4.570   9.255  0.3375  0.6405  1.4510
    7SAPS  C310  904   2.064   4.463   9.133 -0.2126  0.3104 -0.2234
    7SAPS  H10X  905   1.954   4.447   9.145 -0.6094  3.6744  2.0394
    7SAPS  H10Y  906   2.100   4.361   9.110 -4.2947 -1.2531 -0.5679
    7SAPS  C311  907   2.099   4.561   9.018 -0.1633  0.5719  0.1780
    7SAPS  H11X  908   2.208   4.581   9.010  0.1663 -1.5508 -1.4651
    7SAPS  H11Y  909   2.032   4.644   9.049 -2.8122 -1.8668  1.5042
    7SAPS  C312  910   2.039   4.529   8.877 -0.1127  0.1724 -0.2318
    7SAPS  H12X  911   2.064   4.613   8.810 -0.1310  0.2651 -0.1234
    7SAPS  H12Y  912   1.929   4.513   8.878 -0.4057  1.9839 -0.5975
    7SAPS  C313  913   2.101   4.403   8.810  0.5000 -0.6255 -0.0169
    7SAPS  H13X  914   2.079   4.312   8.870 -0.8733 -0.1167  0.3013
    7SAPS  H13Y  915   2.211   4.410   8.804  0.6576 -1.4621  1.3658
    7SAPS  C314  916   2.053   4.383   8.667  0.8914  0.3517  1.5354
    7SAPS  H14X  917   2.061   4.476   8.607  1.1125  0.8776  2.3683
    7SAPS  H14Y  918   1.948   4.345   8.669  0.9408 -0.1868 -1.4520
    7SAPS  C315  919   2.137   4.279   8.594 -0.0817  0.0986  0.2098
    7SAPS  H15X  920   2.243   4.309   8.582  0.2928 -1.5098 -0.7333
    7SAPS  H15Y  921   2.105   4.269   8.488  0.0170  1.0200  0.0829
    7SAPS  C316  922   2.127   4.138   8.652 -0.4539 -0.1369  0.1133
    7SAPS  H16X  923   2.029   4.125   8.702  0.5351 -2.5221  1.6257
    7SAPS  H16Y  924   2.205   4.120   8.730 -1.4979 -0.8392  1.0289
    7SAPS  C317  925   2.130   4.027   8.544 -0.3151 -0.5228  0.5467
    7SAPS  H17X  926   2.140   3.928   8.594  0.0879  0.6201  2.8142
    7SAPS  H17Y  927   2.224   4.035   8.486 -0.7217 -0.9623 -0.1982
    7SAPS  C318  928   2.000   4.012   8.460 -0.8313  0.6261 -0.7222
    7SAPS  H18X  929   1.921   3.967   8.523 -0.7925 -0.8311 -1.6490
    7SAPS  H18Y  930   2.031   3.943   8.378  1.6284 -0.5086  1.0240
    7SAPS  H18Z  931   1.965   4.108   8.416 -2.5184  0.5497  0.3571
    8SAPS     N  932   2.424   1.719  11.119 -0.3439  0.8428  0.0270
    8SAPS   HN1  933   2.459   1.767  11.033  1.1204 -0.7382 -0.3304
    8SAPS   HN2  934   2.442   1.774  11.205  0.3713  0.9936 -0.2101
    8SAPS   HN3  935   2.474   1.628  11.130 -1.3451  0.3815  0.9006
    8SAPS   C12  936   2.280   1.697  11.102  0.4084 -0.2873 -0.5797
    8SAPS  H12A  937   2.264   1.650  11.006  2.1482 -0.5651 -0.7639
    8SAPS   C13  938   2.221   1.597  11.208  0.4897 -0.9987  1.1980
    8SAPS  O13A  939   2.290   1.522  11.275 -0.6951  0.1847  0.2959
    8SAPS  O13B  940   2.101   1.570  11.183  0.3843  0.0224  0.2545
    8SAPS   C11  941   2.206   1.836  11.121  0.4641  0.6872  0.5968
    8SAPS  H11A  942   2.236   1.872  11.222  2.6511 -0.2860  0.3411
    8SAPS  H11B  943   2.098   1.816  11.134  0.4667 -0.3686 -0.7481
    8SAPS     P  944   2.127   1.985  10.929 -0.2505  0.1295 -0.3662
    8SAPS   O13  945   2.029   2.043  11.023  0.0559  0.0648 -0.1662
    8SAPS   O14  946   2.174   2.072  10.820 -0.4911 -0.3951  0.3136
    8SAPS   O12  947   2.247   1.928  11.013  0.2381  0.1167 -0.6320
    8SAPS   O11  948   2.065   1.851  10.861  0.2186 -0.2167 -0.0063
    8SAPS    C1  949   2.151   1.783  10.768 -0.2181  0.7456  0.2625
    8SAPS    HA  950   2.259   1.806  10.783  0.2844 -1.2271 -0.0992
    8SAPS    HB  951   2.135   1.674  10.779  0.6750  0.4571 -0.9806
    8SAPS    C2  952   2.131   1.822  10.613 -0.6729 -0.5069 -0.5981
    8SAPS    HS  953   2.154   1.931  10.613 -0.7852 -0.4812  0.0477
    8SAPS   O21  954   2.004   1.784  10.568  0.1675  0.4324 -0.4193
    8SAPS   C21  955   1.917   1.888  10.566 -0.2331  0.3658 -0.1710
    8SAPS   O22  956   1.945   2.004  10.571 -0.2360  0.1433 -0.3173
    8SAPS   C22  957   1.783   1.835  10.549  0.4925  0.6668  0.1025
    8SAPS   H2R  958   1.771   1.760  10.630  0.6225  0.9608  0.3929
    8SAPS   H2S  959   1.702   1.909  10.569  1.1603  1.1353  1.1526
    8SAPS    C3  960   2.248   1.747  10.534  0.0086  0.5651 -0.4753
    8SAPS    HX  961   2.258   1.642  10.566  1.2775  0.5465 -0.8707
    8SAPS    HY  962   2.332   1.813  10.566 -0.9140  1.8469 -0.5819
    8SAPS   O31  963   2.238   1.753  10.389 -0.7311 -0.1916  0.2402
    8SAPS   C31  964   2.247   1.867  10.324  0.1000 -0.4531 -0.0408
    8SAPS   O32  965   2.265   1.974  10.378  0.2179 -0.0171  0.4220
    8SAPS   C32  966   2.232   1.837  10.174  0.1483  0.0392 -0.4402
    8SAPS   H2X  967   2.133   1.787  10.163 -0.8218  1.2263  1.9748
    8SAPS   H2Y  968   2.315   1.768  10.147 -0.2374 -0.4505 -0.4039
    8SAPS   C23  969   1.757   1.762  10.409  0.6880 -0.9720  0.2153
    8SAPS   H3R  970   1.670   1.694  10.422  1.3145 -1.7108  0.6589
    8SAPS   H3S  971   1.855   1.713  10.389  0.8133 -0.3343 -0.8573
    8SAPS   C24  972   1.711   1.862  10.302 -0.1322  0.4435  0.0021
    8SAPS   H4R  973   1.630   1.913  10.359 -0.2171 -1.5112  1.7689
    8SAPS   H4S  974   1.662   1.804  10.220 -0.1118 -0.1286  0.3901
    8SAPS   C25  975   1.816   1.958  10.241  0.4909 -0.2615 -0.0516
    8SAPS   H5R  976   1.859   2.033  10.310 -0.6687  1.1484 -0.8043
    8SAPS   C26  977   1.845   1.972  10.111  0.1335  0.1702  0.5961
    8SAPS   H6R  978   1.921   2.051  10.094  1.8970 -1.0020  2.5038
    8SAPS   C27  979   1.789   1.897   9.991  0.1369 -0.2414 -0.5777
    8SAPS   H7R  980   1.680   1.880  10.005  0.1793 -3.6142 -3.0650
    8SAPS   H7S  981   1.825   1.792   9.992 -0.5942 -0.4991  0.5629
    8SAPS   C28  982   1.813   1.965   9.856 -0.1401  0.2616 -0.0299
    8SAPS   H8R  983   1.873   2.057   9.853 -2.4965  1.8851 -0.2163
    8SAPS   C29  984   1.757   1.933   9.739 -0.0467 -0.1933  1.2077
    8SAPS   H9R  985   1.779   1.996   9.651 -0.1907  1.6677  2.4427
    8SAPS  C210  986   1.670   1.813   9.720  0.4000 -0.7516 -0.2872
    8SAPS  H10R  987   1.595   1.861   9.654  0.2833  0.3373  0.6209
    8SAPS  H10S  988   1.622   1.791   9.818  1.6904 -0.1004  0.5180
    8SAPS  C211  989   1.755   1.700   9.669  0.7091 -0.1330  0.7583
    8SAPS  H11R  990   1.770   1.618   9.740 -2.1368 -1.3720  0.0750
    8SAPS  C212  991   1.800   1.682   9.541  0.3617 -0.2299  0.3309
    8SAPS  H12R  992   1.864   1.594   9.526 -1.1804 -1.5217  1.1052
    8SAPS  C213  993   1.765   1.780   9.432  0.2485 -0.3137  0.5829
    8SAPS  H13R  994   1.865   1.811   9.395  0.4327 -2.9983 -1.5460
    8SAPS  H13S  995   1.713   1.871   9.468  1.2873  1.3361 -1.8410
    8SAPS  C214  996   1.679   1.710   9.320 -0.0462 -0.2545 -0.1297
    8SAPS  H14R  997   1.571   1.703   9.341  0.2725  1.2113  2.5083
    8SAPS  C215  998   1.727   1.649   9.210 -0.8692  0.4580  0.4330
    8SAPS  H15R  999   1.649   1.597   9.153 -0.4308 -1.7443  1.7089
    8SAPS  C216 1000   1.873   1.640   9.162 -0.1600  0.3568  0.3590
    8SAPS  H16R 1001   1.921   1.549   9.203 -0.4596  0.8869  1.9705
    8SAPS  H16S 1002   1.936   1.725   9.195 -1.1115  1.0654  0.3914
    8SAPS  C217 1003   1.883   1.655   9.007  0.4455 -0.0317  0.1501
    8SAPS  H17R 1004   1.847   1.753   8.968 -0.1296 -0.7169 -1.0942
    8SAPS  H17S 1005   1.805   1.599   8.951  0.4636  2.0119 -2.0754
    8SAPS  C218 1006   2.016   1.637   8.942 -0.1636  0.4343  0.9739
    8SAPS  H18R 1007   2.048   1.531   8.945 -1.2424  0.1021  0.9107
    8SAPS  H18S 1008   2.093   1.701   8.992  0.1904  0.6682  0.1558
    8SAPS  C219 1009   2.012   1.686   8.787 -0.0025 -0.4338 -0.3432
    8SAPS  H19R 1010   2.110   1.718   8.745 -0.4558 -1.9781 -2.8038
    8SAPS  H19S 1011   1.944   1.773   8.782  0.9037  0.2402 -1.2968
    8SAPS  C220 1012   1.954   1.592   8.686 -0.6138  0.7325  0.0289
    8SAPS  H20R 1013   2.029   1.522   8.644 -1.8175  1.1683 -3.1117
    8SAPS  H20S 1014   1.923   1.642   8.592  0.3287  0.7610 -0.2682
    8SAPS  H20T 1015   1.871   1.529   8.726 -0.8308  1.0061  0.0142
    8SAPS   C33 1016   2.222   1.954  10.067 -0.1723 -0.8188 -0.2741
    8SAPS   H3X 1017   2.298   2.032  10.094 -1.1908 -0.3456  1.3962
    8SAPS   H3Y 1018   2.123   2.002  10.083 -1.1856 -2.3446 -1.7041
    8SAPS   C34 1019   2.222   1.910   9.922  0.2810 -0.4321 -0.0506
    8SAPS   H4X 1020   2.328   1.915   9.890  1.5981 -1.2425  3.6053
    8SAPS   H4Y 1021   2.156   1.985   9.874 -2.4881 -2.1179  0.8797
    8SAPS   C35 1022   2.160   1.777   9.891 -0.4561 -0.4452 -0.1039
    8SAPS   H5X 1023   2.072   1.755   9.955  1.1103 -1.5762  1.7866
    8SAPS   H5Y 1024   2.237   1.701   9.917  0.3152 -0.7792 -3.0308
    8SAPS   C36 1025   2.123   1.760   9.743 -0.3267 -0.2275 -0.2701
    8SAPS   H6X 1026   2.075   1.847   9.694  2.3043 -0.5263 -3.7025
    8SAPS   H6Y 1027   2.053   1.675   9.728 -1.5987  0.4798  1.2258
    8SAPS   C37 1028   2.241   1.726   9.651 -0.6568  0.3969 -0.1944
    8SAPS   H7X 1029   2.264   1.618   9.668 -0.4388  0.2893 -1.1069
    8SAPS   H7Y 1030   2.327   1.791   9.680  0.3368 -0.9402 -0.0218
    8SAPS   C38 1031   2.194   1.740   9.503  0.2119  0.1891 -0.0016
    8SAPS   H8X 1032   2.211   1.847   9.480  3.1168  0.2948  2.0258
    8SAPS   H8Y 1033   2.086   1.717   9.500 -0.0922  1.5375  0.2498
    8SAPS   C39 1034   2.279   1.648   9.409 -0.9349  0.1133  0.1854
    8SAPS   H9X 1035   2.261   1.539   9.426 -0.7430 -0.2416 -1.6986
    8SAPS   H9Y 1036   2.386   1.672   9.427 -0.1544 -2.1963 -0.8987
    8SAPS  C310 1037   2.252   1.686   9.258  0.1636  0.3035 -0.3964
    8SAPS  H10X 1038   2.276   1.793   9.241 -0.8380  0.8371  1.3367
    8SAPS  H10Y 1039   2.145   1.665   9.237 -0.1162  2.1323 -0.9568
    8SAPS  C311 1040   2.339   1.609   9.166  0.5581  0.3984  0.5750
    8SAPS  H11X 1041   2.448   1.634   9.170  1.0566 -1.6796  1.7748
    8SAPS  H11Y 1042   2.316   1.643   9.063  1.7329  2.2789  0.8813
    8SAPS  C312 1043   2.319   1.456   9.173  0.0403  0.1738  0.2903
    8SAPS  H12X 1044   2.216   1.434   9.138 -0.1521  0.3708  0.7321
    8SAPS  H12Y 1045   2.327   1.404   9.271 -2.6500 -0.3330  0.3130
    8SAPS  C313 1046   2.411   1.382   9.075  0.5306 -0.1451  0.2559
    8SAPS  H13X 1047   2.369   1.281   9.056 -0.2385  0.3648 -0.8733
    8SAPS  H13Y 1048   2.507   1.356   9.126  0.3122  0.3364  0.9275
    8SAPS  C314 1049   2.434   1.446   8.943  0.8816 -0.4100  0.1755
    8SAPS  H14X 1050   2.488   1.542   8.960 -0.9854  0.5539  1.0634
    8SAPS  H14Y 1051   2.338   1.461   8.890  1.6429  1.0689 -0.8569
    8SAPS  C315 1052   2.533   1.368   8.853 -0.3393  0.2384  0.7457
    8SAPS  H15X 1053   2.558   1.269   8.895  2.4400  0.4952 -0.1161
    8SAPS  H15Y 1054   2.626   1.428   8.843 -1.3690  1.8240  0.4029
    8SAPS  C316 1055   2.465   1.354   8.714 -0.3252  0.2270  0.4112
    8SAPS  H16X 1056   2.404   1.445   8.694 -0.0922  0.1518 -0.6795
    8SAPS  H16Y 1057   2.384   1.280   8.731 -1.3471  1.4850  1.2481
    8SAPS  C317 1058   2.561   1.327   8.594  0.7136 -0.2056 -0.4438
    8SAPS  H17X 1059   2.636   1.409   8.590 -1.1989  1.8287  2.0775
    8SAPS  H17Y 1060   2.493   1.331   8.506  0.4420  1.0042 -0.2025
    8SAPS  C318 1061   2.632   1.194   8.594  0.2060 -0.2527  0.7597
    8SAPS  H18X 1062   2.561   1.122   8.640 -2.8245  2.3276  0.4599
    8SAPS  H18Y 1063   2.729   1.204   8.648 -0.2885  0.7944  1.4795
    8SAPS  H18Z 1064   2.656   1.168   8.489  1.8986  1.3713  0.6860
    9SAPS     N 1065   1.568   5.353   6.184 -0.0228  0.2829  0.8034
    9SAPS   HN1 1066   1.566   5.402   6.276  0.0750  0.9507  0.4519
    9SAPS   HN2 1067   1.480   5.387   6.142 -1.4956 -0.9855  2.6830
    9SAPS   HN3 1068   1.574   5.250   6.198  0.5996  0.4437  1.8875
    9SAPS   C12 1069   1.683   5.393   6.108  0.5544 -1.0073 -0.1964
    9SAPS  H12A 1070   1.683   5.323   6.026  1.1555 -0.5101 -0.6290
    9SAPS   C13 1071   1.685   5.543   6.063 -0.0047 -0.4442 -0.1098
    9SAPS  O13A 1072   1.578   5.611   6.080 -0.2477 -0.1472  0.4337
    9SAPS  O13B 1073   1.771   5.588   5.983  0.1231  0.3779 -0.4621
    9SAPS   C11 1074   1.804   5.366   6.196 -0.2412 -0.6773 -0.6060
    9SAPS  H11A 1075   1.813   5.436   6.282 -1.3807 -2.1076  0.7367
    9SAPS  H11B 1076   1.899   5.387   6.142  0.4959  1.5731  1.4185
    9SAPS     P 1077   1.888   5.184   6.369 -0.1167  0.3108  0.0765
    9SAPS   O13 1078   1.925   5.042   6.353 -0.0248  0.0797 -0.4166
    9SAPS   O14 1079   1.995   5.289   6.388  0.6466 -0.4799  0.5507
    9SAPS   O12 1080   1.804   5.228   6.242 -0.1909 -0.1473 -0.1177
    9SAPS   O11 1081   1.780   5.192   6.485 -0.2281  0.2163 -0.1185
    9SAPS    C1 1082   1.818   5.216   6.618  0.3522 -0.1085  0.3965
    9SAPS    HA 1083   1.877   5.127   6.651  0.3662 -0.1402  0.2863
    9SAPS    HB 1084   1.897   5.294   6.627 -0.4282  0.6562  0.6391
    9SAPS    C2 1085   1.703   5.253   6.712  0.2338  0.2934 -0.3704
    9SAPS    HS 1086   1.653   5.343   6.671 -2.5443 -0.6178  0.7589
    9SAPS   O21 1087   1.772   5.279   6.831 -0.3980 -0.2016 -0.0955
    9SAPS   C21 1088   1.788   5.403   6.867 -0.5255  0.4734 -0.3566
    9SAPS   O22 1089   1.746   5.501   6.809 -0.0758 -0.4465 -0.0170
    9SAPS   C22 1090   1.876   5.402   6.988  0.9879 -0.0155 -0.2604
    9SAPS   H2R 1091   1.937   5.310   6.974 -1.2223 -1.6447  0.2035
    9SAPS   H2S 1092   1.928   5.500   6.980 -0.4949  0.7438 -1.0507
    9SAPS    C3 1093   1.606   5.138   6.744  0.8371 -0.5780 -0.2804
    9SAPS    HX 1094   1.663   5.044   6.757  0.7080 -0.5827  0.2721
    9SAPS    HY 1095   1.541   5.128   6.655  1.8021 -0.8806 -0.9697
    9SAPS   O31 1096   1.517   5.172   6.851 -0.4369 -0.2150 -0.2292
    9SAPS   C31 1097   1.532   5.113   6.966  0.7425 -0.0886 -0.6267
    9SAPS   O32 1098   1.616   5.030   6.986  0.1128  0.1255  0.0842
    9SAPS   C32 1099   1.443   5.175   7.083 -0.4462  0.0934 -0.1406
    9SAPS   H2X 1100   1.333   5.161   7.076 -0.5118  0.5592 -0.0890
    9SAPS   H2Y 1101   1.473   5.282   7.080 -1.8554  0.5180  0.1558
    9SAPS   C23 1102   1.796   5.394   7.118 -0.0550 -0.1029  0.2684
    9SAPS   H3R 1103   1.854   5.355   7.204  0.7672  0.8019  0.1458
    9SAPS   H3S 1104   1.716   5.319   7.099  0.2961 -0.6607  0.9512
    9SAPS   C24 1105   1.730   5.524   7.166 -0.9669  1.3958 -0.3106
    9SAPS   H4R 1106   1.650   5.491   7.235 -1.1138 -2.2414 -1.9903
    9SAPS   H4S 1107   1.682   5.569   7.076 -0.0095  1.4703 -0.7977
    9SAPS   C25 1108   1.826   5.635   7.231 -0.5979  0.9595  0.6810
    9SAPS   H5R 1109   1.933   5.645   7.207 -0.8705  2.6483 -0.0256
    9SAPS   C26 1110   1.787   5.724   7.320  0.0694 -0.0310 -0.0509
    9SAPS   H6R 1111   1.855   5.804   7.352 -1.0617  1.4689 -1.2638
    9SAPS   C27 1112   1.649   5.733   7.386  1.0552 -0.3312  0.2494
    9SAPS   H7R 1113   1.653   5.681   7.484 -2.2169 -0.5906  0.3594
    9SAPS   H7S 1114   1.568   5.672   7.340 -0.2367  2.3139 -1.2579
    9SAPS   C28 1115   1.613   5.879   7.406 -0.5029  0.9705  0.2648
    9SAPS   H8R 1116   1.576   5.927   7.314  1.3337 -0.3090 -1.2296
    9SAPS   C29 1117   1.621   5.950   7.517  0.5967  0.1991 -0.7240
    9SAPS   H9R 1118   1.584   6.054   7.510  1.8856  0.6178 -1.7654
    9SAPS  C210 1119   1.671   5.900   7.650 -0.2018  0.4456 -0.1468
    9SAPS  H10R 1120   1.773   5.942   7.661 -0.0205 -0.0388  0.0328
    9SAPS  H10S 1121   1.678   5.790   7.653 -0.5375  0.4234 -0.1237
    9SAPS  C211 1122   1.577   5.942   7.765 -0.2869 -0.8841  0.4949
    9SAPS  H11R 1123   1.530   6.038   7.741 -1.4678 -2.1514 -2.8323
    9SAPS  C212 1124   1.553   5.885   7.888 -0.2942  0.2798  0.5778
    9SAPS  H12R 1125   1.488   5.938   7.959  1.2644  0.6263  1.8107
    9SAPS  C213 1126   1.614   5.758   7.939  0.3445 -0.0709 -0.0800
    9SAPS  H13R 1127   1.674   5.705   7.862  0.9785  0.3699  0.1040
    9SAPS  H13S 1128   1.525   5.694   7.957  0.4096 -0.2072 -0.2377
    9SAPS  C214 1129   1.692   5.781   8.064 -0.3164  0.4765 -1.0208
    9SAPS  H14R 1130   1.780   5.842   8.040  0.0516  0.1825 -0.4270
    9SAPS  C215 1131   1.679   5.734   8.184  0.6220  0.3186  0.3613
    9SAPS  H15R 1132   1.737   5.781   8.266  1.4805  1.1250 -0.6809
    9SAPS  C216 1133   1.569   5.641   8.227 -0.4529  0.4366 -0.0325
    9SAPS  H16R 1134   1.611   5.562   8.292 -0.5415 -0.9899 -1.6192
    9SAPS  H16S 1135   1.536   5.577   8.141 -1.0598 -0.1036  0.5880
    9SAPS  C217 1136   1.449   5.702   8.297  0.0703 -0.9441 -0.3972
    9SAPS  H17R 1137   1.357   5.639   8.291  1.6165 -3.1424 -2.9530
    9SAPS  H17S 1138   1.431   5.798   8.242 -0.0259 -1.3677 -1.1157
    9SAPS  C218 1139   1.482   5.720   8.442  0.5508  0.1081  0.0901
    9SAPS  H18R 1140   1.580   5.772   8.447  0.1249  1.1414 -1.6167
    9SAPS  H18S 1141   1.492   5.622   8.493 -0.3922  0.3300  0.7476
    9SAPS  C219 1142   1.368   5.795   8.509  0.4296 -0.4659 -0.4219
    9SAPS  H19R 1143   1.344   5.898   8.474 -1.4926  0.1461  2.2577
    9SAPS  H19S 1144   1.408   5.816   8.611 -3.4634  1.3700  0.9408
    9SAPS  C220 1145   1.224   5.723   8.531 -0.6481 -0.2721 -0.2116
    9SAPS  H20R 1146   1.230   5.658   8.621 -1.2490 -0.8052 -0.5500
    9SAPS  H20S 1147   1.183   5.679   8.438  1.1191  1.3419 -1.8338
    9SAPS  H20T 1148   1.149   5.799   8.560 -1.3630 -1.6671  1.7884
    9SAPS   C33 1149   1.490   5.126   7.222 -0.0993 -0.2680 -0.2346
    9SAPS   H3X 1150   1.599   5.110   7.227  0.1597  1.5108  0.8501
    9SAPS   H3Y 1151   1.442   5.026   7.238 -1.2354  0.1791 -0.7036
    9SAPS   C34 1152   1.449   5.202   7.357  0.5850 -0.5164  0.1659
    9SAPS   H4X 1153   1.490   5.304   7.340  1.6655 -1.1658 -1.3662
    9SAPS   H4Y 1154   1.509   5.147   7.432  1.0718  0.7993  0.7762
    9SAPS   C35 1155   1.295   5.198   7.395 -0.4365  0.3400 -0.6109
    9SAPS   H5X 1156   1.274   5.090   7.390 -1.3364  0.5653 -2.3562
    9SAPS   H5Y 1157   1.230   5.261   7.330 -0.8292  0.2940 -0.2674
    9SAPS   C36 1158   1.278   5.245   7.537  0.2578  0.7494  0.5426
    9SAPS   H6X 1159   1.321   5.347   7.544  0.5610  0.8722 -2.1952
    9SAPS   H6Y 1160   1.350   5.180   7.592  1.9315  1.6359 -0.5037
    9SAPS   C37 1161   1.142   5.236   7.602  1.0454 -0.5487 -0.5433
    9SAPS   H7X 1162   1.139   5.128   7.628  1.8539  0.0128  2.2698
    9SAPS   H7Y 1163   1.065   5.269   7.530 -1.1060  0.4883  2.0549
    9SAPS   C38 1164   1.129   5.337   7.720  0.4943  0.1700  0.2589
    9SAPS   H8X 1165   1.024   5.330   7.756  1.0876 -2.6232  1.6726
    9SAPS   H8Y 1166   1.160   5.438   7.685  5.1440 -1.4259 -0.8179
    9SAPS   C39 1167   1.218   5.304   7.840 -0.3979  0.0796 -0.1828
    9SAPS   H9X 1168   1.208   5.389   7.910  1.1339  0.6426 -0.5912
    9SAPS   H9Y 1169   1.323   5.302   7.803 -0.4131 -1.1706 -0.1860
    9SAPS  C310 1170   1.191   5.174   7.913 -0.9277  0.3662  0.6683
    9SAPS  H10X 1171   1.207   5.097   7.835  0.3055  0.1951  1.0545
    9SAPS  H10Y 1172   1.083   5.185   7.935 -1.0704 -0.7020  0.5382
    9SAPS  C311 1173   1.274   5.146   8.039 -0.9434  0.0820 -0.5899
    9SAPS  H11X 1174   1.381   5.124   8.017 -0.2754  0.2140  2.2017
    9SAPS  H11Y 1175   1.229   5.059   8.091 -3.1393  1.7356  0.4173
    9SAPS  C312 1176   1.276   5.254   8.145 -0.2509 -0.6850 -0.4210
    9SAPS  H12X 1177   1.171   5.286   8.161 -0.0929 -1.3140  2.4518
    9SAPS  H12Y 1178   1.341   5.336   8.107  0.4637 -1.7240 -1.4877
    9SAPS  C313 1179   1.341   5.202   8.279  0.3251  0.4840 -0.1139
    9SAPS  H13X 1180   1.440   5.155   8.261 -0.3961 -0.9691 -0.4320
    9SAPS  H13Y 1181   1.281   5.124   8.331  0.5860  0.7576  0.6117
    9SAPS  C314 1182   1.359   5.318   8.371  0.4102 -0.0924 -0.2996
    9SAPS  H14X 1183   1.426   5.393   8.325  1.3903  0.2646  1.6232
    9SAPS  H14Y 1184   1.414   5.285   8.461  0.0816  0.7664  0.2258
    9SAPS  C315 1185   1.230   5.387   8.420 -0.8726  0.3459 -0.2802
    9SAPS  H15X 1186   1.190   5.460   8.347  2.3708  2.1179 -0.4825
    9SAPS  H15Y 1187   1.260   5.456   8.502  1.8952 -1.6095  0.5016
    9SAPS  C316 1188   1.131   5.286   8.473 -0.0704 -0.3392 -0.2416
    9SAPS  H16X 1189   1.189   5.229   8.548 -0.7643  0.8484  1.2596
    9SAPS  H16Y 1190   1.088   5.229   8.388  2.2747 -0.3507 -1.5105
    9SAPS  C317 1191   1.009   5.352   8.540  0.2937 -0.0946 -0.5691
    9SAPS  H17X 1192   0.932   5.272   8.548  0.5781 -0.3336 -0.2388
    9SAPS  H17Y 1193   0.971   5.426   8.466 -2.9976 -1.3824 -0.3494
    9SAPS  C318 1194   1.043   5.418   8.677  0.4706  0.7977 -0.1241
    9SAPS  H18X 1195   0.952   5.468   8.718  0.3387  0.0964  0.4500
    9SAPS  H18Y 1196   1.128   5.490   8.674  1.4519 -0.3237  0.0779
    9SAPS  H18Z 1197   1.082   5.343   8.749 -0.2714  0.6333  0.1140
   10SAPS     N 1198   3.649   0.936   6.493  0.0014 -0.8924  0.0889
   10SAPS   HN1 1199   3.581   0.898   6.562  0.1661 -0.6808  0.3661
   10SAPS   HN2 1200   3.736   0.951   6.547 -0.9819  0.6831  1.3198
   10SAPS   HN3 1201   3.615   1.030   6.464  0.6902 -0.4851  0.5851
   10SAPS   C12 1202   3.659   0.855   6.369  0.2078 -0.1308 -0.2270
   10SAPS  H12A 1203   3.730   0.911   6.310  0.7764 -0.4622  0.1290
   10SAPS   C13 1204   3.706   0.714   6.392  0.2003  0.4288  0.1700
   10SAPS  O13A 1205   3.760   0.680   6.503  0.0821 -0.5719  0.6397
   10SAPS  O13B 1206   3.711   0.630   6.296  0.4245 -0.8320  0.1717
   10SAPS   C11 1207   3.526   0.858   6.280 -0.1065  0.4303 -1.2218
   10SAPS  H11A 1208   3.537   0.800   6.186  1.2975  2.6727 -2.5110
   10SAPS  H11B 1209   3.524   0.962   6.242 -1.2816  1.2302  0.8196
   10SAPS     P 1210   3.281   0.763   6.319 -0.2549 -0.0469 -0.1467
   10SAPS   O13 1211   3.202   0.853   6.232 -0.2028 -0.0067  0.4023
   10SAPS   O14 1212   3.316   0.630   6.263 -0.2328 -0.3226 -0.3573
   10SAPS   O12 1213   3.415   0.839   6.359  1.0428 -0.6152 -0.0413
   10SAPS   O11 1214   3.200   0.726   6.447 -0.6435  0.1784 -0.4466
   10SAPS    C1 1215   3.259   0.721   6.577  0.2535  0.5029 -0.5467
   10SAPS    HA 1216   3.370   0.723   6.570  0.2908 -0.5279 -0.4478
   10SAPS    HB 1217   3.241   0.812   6.638 -0.0512  1.0744 -1.4751
   10SAPS    C2 1218   3.218   0.594   6.660  0.7334 -0.1397 -0.4211
   10SAPS    HS 1219   3.278   0.514   6.611  2.3454  1.8060 -1.8046
   10SAPS   O21 1220   3.077   0.588   6.638 -0.0163 -0.7703  0.6854
   10SAPS   C21 1221   3.017   0.471   6.665 -0.4849 -0.1504  0.5375
   10SAPS   O22 1222   3.081   0.369   6.682 -0.3131  0.5432  0.0519
   10SAPS   C22 1223   2.871   0.491   6.660  0.5525 -0.4981  0.0098
   10SAPS   H2R 1224   2.843   0.598   6.670 -0.9681 -0.4281 -3.3652
   10SAPS   H2S 1225   2.847   0.460   6.555 -2.3866  0.1536  0.3993
   10SAPS    C3 1226   3.261   0.601   6.814  0.1666 -0.2869  0.2335
   10SAPS    HX 1227   3.210   0.697   6.840 -3.9732 -1.5694 -2.1730
   10SAPS    HY 1228   3.371   0.595   6.818  0.1124 -0.6311  1.8625
   10SAPS   O31 1229   3.197   0.496   6.890 -0.2535  0.1009 -0.0371
   10SAPS   C31 1230   3.278   0.398   6.929  0.0000 -0.7099  0.2880
   10SAPS   O32 1231   3.395   0.387   6.913 -0.1722 -0.5413 -0.0009
   10SAPS   C32 1232   3.183   0.307   7.009 -0.6013 -0.1240 -0.4546
   10SAPS   H2X 1233   3.110   0.262   6.938  0.2587 -1.0186 -0.7880
   10SAPS   H2Y 1234   3.132   0.367   7.088 -0.1429 -0.0303 -0.2266
   10SAPS   C23 1235   2.797   0.388   6.741 -0.3841  0.3736 -0.3123
   10SAPS   H3R 1236   2.825   0.408   6.846  1.6727 -0.1830 -0.7112
   10SAPS   H3S 1237   2.829   0.284   6.718  1.6005  0.4697  1.6548
   10SAPS   C24 1238   2.644   0.387   6.728 -0.1052  0.2645  0.5237
   10SAPS   H4R 1239   2.593   0.309   6.788 -1.1357 -0.1936 -0.9150
   10SAPS   H4S 1240   2.613   0.377   6.622 -1.0907  1.6896  0.6557
   10SAPS   C25 1241   2.591   0.520   6.786 -0.0140 -0.3394  0.3856
   10SAPS   H5R 1242   2.601   0.602   6.713 -1.8125 -0.0867  0.3885
   10SAPS   C26 1243   2.527   0.537   6.902 -0.0769  0.1028  0.0440
   10SAPS   H6R 1244   2.511   0.640   6.937  3.1127  0.1373  1.8367
   10SAPS   C27 1245   2.491   0.436   7.007  0.2490 -0.0347 -0.2167
   10SAPS   H7R 1246   2.456   0.504   7.088 -0.4406 -1.0289  0.3357
   10SAPS   H7S 1247   2.580   0.380   7.043  0.2592 -1.2220 -1.9518
   10SAPS   C28 1248   2.389   0.328   6.964 -0.6269  0.3172 -0.2708
   10SAPS   H8R 1249   2.350   0.353   6.864 -0.1995  1.2560 -0.2127
   10SAPS   C29 1250   2.359   0.227   7.041  0.0456 -0.3862 -0.1071
   10SAPS   H9R 1251   2.288   0.149   7.009 -0.4089  0.7602 -2.0245
   10SAPS  C210 1252   2.401   0.208   7.184  0.0456 -0.5029  0.5766
   10SAPS  H10R 1253   2.485   0.278   7.204  1.2855 -1.6077 -0.5502
   10SAPS  H10S 1254   2.439   0.104   7.193 -0.6163 -0.8823 -0.7637
   10SAPS  C211 1255   2.285   0.230   7.284  0.3215  0.0385  0.1166
   10SAPS  H11R 1256   2.182   0.215   7.249  0.5789  0.2466 -0.7518
   10SAPS  C212 1257   2.309   0.253   7.414 -0.4214  0.4749 -0.1035
   10SAPS  H12R 1258   2.226   0.262   7.485 -0.1132 -1.0185  0.4869
   10SAPS  C213 1259   2.439   0.266   7.490 -0.3720  0.5794  0.6892
   10SAPS  H13R 1260   2.437   0.353   7.559  0.5672  1.7756 -0.7041
   10SAPS  H13S 1261   2.516   0.299   7.416  0.4059  2.1979  2.1561
   10SAPS  C214 1262   2.501   0.139   7.540  0.4281  0.0480  0.0971
   10SAPS  H14R 1263   2.542   0.071   7.464 -0.8418 -1.0526  0.3660
   10SAPS  C215 1264   2.518   0.098   7.665  0.1362  0.2525  0.3721
   10SAPS  H15R 1265   2.554  -0.004   7.686 -0.5613 -0.0028  0.3658
   10SAPS  C216 1266   2.475   0.184   7.786 -0.0847 -0.4112  0.2878
   10SAPS  H16R 1267   2.367   0.187   7.809  0.4735 -0.1837  3.3297
   10SAPS  H16S 1268   2.511   0.288   7.768 -1.7006  0.2373  0.6190
   10SAPS  C217 1269   2.533   0.136   7.921 -0.0110  0.1505 -0.4336
   10SAPS  H17R 1270   2.516   0.026   7.919 -1.4311  0.3232  0.5478
   10SAPS  H17S 1271   2.475   0.179   8.006  0.8856  0.9995 -0.2383
   10SAPS  C218 1272   2.681   0.158   7.942  0.7248  0.2630 -0.5406
   10SAPS  H18R 1273   2.710   0.262   7.914 -1.1226  1.2000  0.8687
   10SAPS  H18S 1274   2.729   0.090   7.868  0.4910  0.8765 -1.2751
   10SAPS  C219 1275   2.723   0.130   8.090  0.1083 -0.4943 -0.3046
   10SAPS  H19R 1276   2.828   0.095   8.089  0.6524  0.9202  1.5856
   10SAPS  H19S 1277   2.669   0.046   8.140 -0.9789  1.4250  1.9832
   10SAPS  C220 1278   2.701   0.256   8.180  0.2554  0.5634 -0.0253
   10SAPS  H20R 1279   2.607   0.237   8.237  0.4250 -0.8295 -0.1770
   10SAPS  H20S 1280   2.673   0.344   8.117  1.9166  0.7961 -0.4754
   10SAPS  H20T 1281   2.789   0.293   8.237 -0.0785  1.9644 -0.3780
   10SAPS   C33 1282   3.262   0.198   7.087  0.4517 -0.3656 -0.0529
   10SAPS   H3X 1283   3.326   0.147   7.012 -0.8277  1.6567 -2.6927
   10SAPS   H3Y 1284   3.179   0.135   7.124 -0.0239  0.1192 -0.2823
   10SAPS   C34 1285   3.342   0.260   7.192 -0.0104 -0.1870  0.2659
   10SAPS   H4X 1286   3.275   0.321   7.257 -1.3808 -0.7988 -0.5324
   10SAPS   H4Y 1287   3.416   0.333   7.153  0.3778  0.0763  1.4405
   10SAPS   C35 1288   3.426   0.172   7.276 -0.2424  0.3425 -0.3276
   10SAPS   H5X 1289   3.513   0.136   7.218  0.6988 -0.0264  1.2482
   10SAPS   H5Y 1290   3.370   0.084   7.315 -0.3811  0.1436 -0.9680
   10SAPS   C36 1291   3.482   0.236   7.400 -0.4011 -1.1866 -0.6512
   10SAPS   H6X 1292   3.393   0.262   7.460 -2.0833 -1.8042 -2.7644
   10SAPS   H6Y 1293   3.552   0.321   7.382 -1.7306  0.2563  0.6821
   10SAPS   C37 1294   3.569   0.139   7.486  0.1423 -0.4564  0.2002
   10SAPS   H7X 1295   3.643   0.095   7.415  1.3307  1.4946  0.1483
   10SAPS   H7Y 1296   3.510   0.051   7.519 -0.2829 -0.0141  0.6264
   10SAPS   C38 1297   3.634   0.204   7.611 -0.4440  0.1575  0.6110
   10SAPS   H8X 1298   3.690   0.296   7.582  1.0983 -1.3753 -1.5779
   10SAPS   H8Y 1299   3.717   0.144   7.652  1.2675  2.4669  0.7138
   10SAPS   C39 1300   3.541   0.232   7.726  0.5178  0.1779  0.0558
   10SAPS   H9X 1301   3.506   0.134   7.764 -1.0619 -0.0010 -1.7259
   10SAPS   H9Y 1302   3.446   0.282   7.698  0.0467 -0.9033 -0.3600
   10SAPS  C310 1303   3.624   0.282   7.854  0.1591 -0.6440 -0.6799
   10SAPS  H10X 1304   3.717   0.224   7.870  1.3607  1.4915  0.5736
   10SAPS  H10Y 1305   3.559   0.273   7.944  1.4294 -0.0109  0.3265
   10SAPS  C311 1306   3.661   0.424   7.863  0.8268  0.3894  0.2050
   10SAPS  H11X 1307   3.570   0.487   7.861  1.4653  1.3445 -2.2497
   10SAPS  H11Y 1308   3.721   0.444   7.772 -0.7301  2.3490 -0.4431
   10SAPS  C312 1309   3.767   0.456   7.969 -0.2607 -0.3913  0.1701
   10SAPS  H12X 1310   3.790   0.563   7.949  1.3913 -0.9211 -1.0262
   10SAPS  H12Y 1311   3.863   0.401   7.960 -0.6238 -1.0117  0.0254
   10SAPS  C313 1312   3.717   0.446   8.109 -0.1605  0.1579 -0.7411
   10SAPS  H13X 1313   3.716   0.344   8.153 -0.7499 -0.1474 -1.4382
   10SAPS  H13Y 1314   3.611   0.480   8.110 -1.2289 -2.8813  0.7547
   10SAPS  C314 1315   3.796   0.542   8.198 -0.2944  0.2882  0.5080
   10SAPS  H14X 1316   3.793   0.640   8.146 -0.0465 -0.0687 -0.1864
   10SAPS  H14Y 1317   3.892   0.491   8.218  0.3458  1.7911  1.4283
   10SAPS  C315 1318   3.731   0.559   8.337 -0.0382  0.3864 -0.0142
   10SAPS  H15X 1319   3.620   0.564   8.346 -0.0632  0.3199 -0.2598
   10SAPS  H15Y 1320   3.773   0.653   8.379  2.0791 -0.2230 -0.6604
   10SAPS  C316 1321   3.783   0.452   8.440 -1.0734  0.1933  0.0520
   10SAPS  H16X 1322   3.894   0.451   8.448 -1.0851 -0.0117  0.2112
   10SAPS  H16Y 1323   3.749   0.351   8.409  0.2442 -0.5659  0.9695
   10SAPS  C317 1324   3.729   0.481   8.580  0.4485  0.1575  0.5375
   10SAPS  H17X 1325   3.619   0.474   8.571  0.5026 -0.1353  0.0578
   10SAPS  H17Y 1326   3.748   0.582   8.623 -0.0530 -1.4385  5.0172
   10SAPS  C318 1327   3.774   0.370   8.672  0.5864 -0.0858  0.0430
   10SAPS  H18X 1328   3.885   0.369   8.687  0.3857  0.3248  1.7478
   10SAPS  H18Y 1329   3.751   0.271   8.628  1.7862 -0.2483 -0.2756
   10SAPS  H18Z 1330   3.729   0.379   8.773  1.9444  0.9744  0.5952
   11SAPS     N 1331   4.668   2.880   5.778  0.3299  0.4267 -0.0741
   11SAPS   HN1 1332   4.588   2.817   5.756 -1.3270  2.6588 -0.8706
   11SAPS   HN2 1333   4.633   2.978   5.788 -0.7057  0.0173  0.4492
   11SAPS   HN3 1334   4.737   2.866   5.702  1.1261  0.0580  0.6939
   11SAPS   C12 1335   4.736   2.832   5.898 -0.2091 -0.0842  0.5676
   11SAPS  H12A 1336   4.780   2.737   5.872 -0.5763 -0.1682  0.2357
   11SAPS   C13 1337   4.846   2.926   5.949 -0.7408 -0.0594  0.5465
   11SAPS  O13A 1338   4.874   3.040   5.909  0.1455  0.4597  0.1161
   11SAPS  O13B 1339   4.926   2.867   6.028  0.0021  0.4054 -0.0397
   11SAPS   C11 1340   4.637   2.805   6.015 -0.3436 -0.1099 -0.0206
   11SAPS  H11A 1341   4.694   2.754   6.096 -1.8480 -1.8293  0.0343
   11SAPS  H11B 1342   4.570   2.727   5.973  1.5212  0.0367 -3.6836
   11SAPS     P 1343   4.408   2.933   6.035 -0.0006 -0.2127 -0.2183
   11SAPS   O13 1344   4.377   2.970   5.896  0.4239 -0.3902  0.0953
   11SAPS   O14 1345   4.350   2.800   6.077  0.1415 -0.8403  0.3770
   11SAPS   O12 1346   4.566   2.926   6.053  0.0379  0.7222 -0.0920
   11SAPS   O11 1347   4.358   3.051   6.120  0.0946 -0.0898 -0.5327
   11SAPS    C1 1348   4.447   3.163   6.135  0.7953 -0.8769  0.0077
   11SAPS    HA 1349   4.541   3.149   6.078  0.7946  0.5489 -0.3779
   11SAPS    HB 1350   4.403   3.258   6.100  3.3675  0.1147 -0.6949
   11SAPS    C2 1351   4.491   3.181   6.284  0.2625 -0.0927  0.3057
   11SAPS    HS 1352   4.542   3.278   6.296 -1.4076  0.6584  1.7823
   11SAPS   O21 1353   4.582   3.079   6.323  0.1263  0.9601  0.5741
   11SAPS   C21 1354   4.708   3.093   6.297  0.9776  0.3092  0.5562
   11SAPS   O22 1355   4.760   3.192   6.249  0.1237  0.4604 -0.1588
   11SAPS   C22 1356   4.785   2.966   6.343  0.0721  0.1007 -0.2193
   11SAPS   H2R 1357   4.823   2.922   6.249 -0.0734  0.2022 -0.3267
   11SAPS   H2S 1358   4.870   3.005   6.402 -0.1572 -0.5501  0.5609
   11SAPS    C3 1359   4.362   3.174   6.376  0.3239  0.4671 -0.0703
   11SAPS    HX 1360   4.327   3.069   6.363 -0.9908  0.6520  1.6217
   11SAPS    HY 1361   4.279   3.239   6.344  0.3591 -0.2577 -1.7161
   11SAPS   O31 1362   4.396   3.198   6.516  0.3170  0.5714 -0.1837
   11SAPS   C31 1363   4.310   3.137   6.601 -0.2142  0.1139  0.2067
   11SAPS   O32 1364   4.195   3.108   6.576 -0.1306  0.1819  0.3473
   11SAPS   C32 1365   4.386   3.112   6.729 -0.1148  0.4104 -0.4817
   11SAPS   H2X 1366   4.472   3.181   6.733 -0.4723  0.7916  1.1786
   11SAPS   H2Y 1367   4.418   3.005   6.725 -3.4325 -0.9872  3.3394
   11SAPS   C23 1368   4.713   2.866   6.435 -0.1163 -0.1329 -0.5541
   11SAPS   H3R 1369   4.779   2.777   6.422 -2.6119 -1.9158 -1.9578
   11SAPS   H3S 1370   4.613   2.840   6.393 -1.1005  0.5348  1.2861
   11SAPS   C24 1371   4.715   2.903   6.592  0.1080  0.4547  0.8858
   11SAPS   H4R 1372   4.681   3.008   6.601 -0.5037  0.5030 -1.4915
   11SAPS   H4S 1373   4.822   2.912   6.620  0.5008 -1.5449  0.1975
   11SAPS   C25 1374   4.648   2.798   6.678  0.3524  0.3222  0.6549
   11SAPS   H5R 1375   4.574   2.734   6.627  1.7864 -1.0104  0.1571
   11SAPS   C26 1376   4.672   2.772   6.805  0.7109  0.5082 -0.0126
   11SAPS   H6R 1377   4.611   2.697   6.858  0.9280  0.9191  0.8470
   11SAPS   C27 1378   4.760   2.858   6.893 -0.2595  0.0468 -0.2393
   11SAPS   H7R 1379   4.710   2.956   6.907  0.8489  0.4836  0.8040
   11SAPS   H7S 1380   4.854   2.884   6.840  1.4487 -0.5449  2.3135
   11SAPS   C28 1381   4.795   2.790   7.023 -0.1700 -0.1614  0.2842
   11SAPS   H8R 1382   4.756   2.690   7.049 -0.7665 -0.0029 -0.0021
   11SAPS   C29 1383   4.838   2.852   7.135  0.3299  0.2284 -0.3612
   11SAPS   H9R 1384   4.854   2.797   7.229 -2.1189  0.4340  0.2462
   11SAPS  C210 1385   4.863   3.001   7.141  0.2435  0.0099  0.0331
   11SAPS  H10R 1386   4.837   3.031   7.245 -1.2592  0.5481 -0.4739
   11SAPS  H10S 1387   4.788   3.060   7.084 -1.3361 -1.0942  0.8890
   11SAPS  C211 1388   5.008   3.033   7.104  0.1006  0.0437  1.0837
   11SAPS  H11R 1389   5.039   2.994   7.006  0.4670  2.0966  0.3479
   11SAPS  C212 1390   5.100   3.093   7.181 -0.2726  0.7078 -0.1661
   11SAPS  H12R 1391   5.200   3.108   7.137 -1.0908 -0.3902 -2.6085
   11SAPS  C213 1392   5.077   3.132   7.327  0.4735 -0.2454  0.0524
   11SAPS  H13R 1393   4.985   3.193   7.340  0.6961 -0.1189  1.1782
   11SAPS  H13S 1394   5.150   3.215   7.342  1.0899 -0.4295 -1.7171
   11SAPS  C214 1395   5.082   3.020   7.428  0.1473 -0.6290  0.2916
   11SAPS  H14R 1396   5.042   2.926   7.388 -1.0657  1.0694 -2.8364
   11SAPS  C215 1397   5.126   3.022   7.554  0.6351 -0.2457  0.2973
   11SAPS  H15R 1398   5.117   2.927   7.609 -0.9589 -1.3663 -1.7723
   11SAPS  C216 1399   5.175   3.142   7.627 -0.3475  0.3805  0.2309
   11SAPS  H16R 1400   5.250   3.206   7.575  0.6515 -1.6584 -1.0214
   11SAPS  H16S 1401   5.235   3.107   7.714  1.1771 -3.3945 -2.0342
   11SAPS  C217 1402   5.068   3.233   7.690 -0.9275  0.6262 -0.2196
   11SAPS  H17R 1403   4.996   3.165   7.742  1.3277 -1.9042 -0.2063
   11SAPS  H17S 1404   5.009   3.276   7.606  0.3838  2.1381 -0.4129
   11SAPS  C218 1405   5.115   3.346   7.782 -0.1842  0.5739  0.6944
   11SAPS  H18R 1406   5.036   3.424   7.782 -1.2149 -0.3982 -0.6457
   11SAPS  H18S 1407   5.213   3.390   7.756  0.6857 -0.7366  1.6142
   11SAPS  C219 1408   5.145   3.298   7.922  0.0369  0.4116  0.5835
   11SAPS  H19R 1409   5.219   3.215   7.917  0.6408  0.5691  4.1851
   11SAPS  H19S 1410   5.050   3.254   7.961 -1.0855  1.3385 -0.9865
   11SAPS  C220 1411   5.197   3.398   8.025  0.4336 -0.1964 -0.2634
   11SAPS  H20R 1412   5.194   3.349   8.125 -0.8442  0.7525  0.1884
   11SAPS  H20S 1413   5.120   3.478   8.031 -0.9722 -1.5187  0.0267
   11SAPS  H20T 1414   5.290   3.443   7.984 -0.2172  0.8445 -0.6300
   11SAPS   C33 1415   4.301   3.143   6.861  0.1343  0.6527  0.6808
   11SAPS   H3X 1416   4.222   3.068   6.886  1.3501  0.0700  3.0517
   11SAPS   H3Y 1417   4.228   3.222   6.835 -0.8649 -1.0064 -2.0541
   11SAPS   C34 1418   4.388   3.174   6.982 -0.4903  0.4006 -0.1490
   11SAPS   H4X 1419   4.444   3.269   6.972  1.5818 -0.7580 -0.0512
   11SAPS   H4Y 1420   4.476   3.106   6.985  0.9150  2.1517 -0.2510
   11SAPS   C35 1421   4.308   3.169   7.118 -0.2312  0.3818  0.3307
   11SAPS   H5X 1422   4.289   3.061   7.140  0.9780 -0.2997 -1.6512
   11SAPS   H5Y 1423   4.208   3.215   7.106 -0.6929  0.2665  3.1081
   11SAPS   C36 1424   4.387   3.230   7.233 -0.2622 -0.6740  0.5674
   11SAPS   H6X 1425   4.313   3.238   7.315 -1.3990 -0.1744 -0.4796
   11SAPS   H6Y 1426   4.423   3.329   7.198 -0.4150 -1.0825 -0.8009
   11SAPS   C37 1427   4.506   3.146   7.284 -0.0582  0.2374 -0.5218
   11SAPS   H7X 1428   4.606   3.146   7.236 -0.2662 -0.6284 -0.9835
   11SAPS   H7Y 1429   4.472   3.040   7.275  0.2318  0.0032  0.9131
   11SAPS   C38 1430   4.495   3.158   7.432 -0.7084 -0.0811 -0.3345
   11SAPS   H8X 1431   4.401   3.113   7.473 -0.8828  0.8513  0.3328
   11SAPS   H8Y 1432   4.506   3.263   7.468 -0.7392 -0.6803  1.5427
   11SAPS   C39 1433   4.613   3.089   7.504 -0.1688 -0.0962 -0.1808
   11SAPS   H9X 1434   4.706   3.138   7.468  0.1072  1.1436  2.0205
   11SAPS   H9Y 1435   4.623   2.981   7.477 -0.5754 -0.3197  0.5275
   11SAPS  C310 1436   4.624   3.095   7.658  0.4211 -0.1060 -0.0581
   11SAPS  H10X 1437   4.533   3.053   7.706 -0.3369  2.3925  0.8594
   11SAPS  H10Y 1438   4.626   3.202   7.687  1.6477 -0.1997  0.2513
   11SAPS  C311 1439   4.748   3.018   7.715  0.3872 -0.7218  0.1991
   11SAPS  H11X 1440   4.833   3.052   7.651  0.1682 -1.4480 -0.5013
   11SAPS  H11Y 1441   4.732   2.908   7.713 -2.5237 -0.3979  0.9643
   11SAPS  C312 1442   4.764   3.048   7.865  0.4927 -0.4492 -0.0143
   11SAPS  H12X 1443   4.667   3.053   7.918  0.6867  0.5816  0.2666
   11SAPS  H12Y 1444   4.799   3.153   7.870  0.6963 -0.5717  1.5510
   11SAPS  C313 1445   4.862   2.951   7.935 -0.1119  0.3166 -0.3159
   11SAPS  H13X 1446   4.948   2.935   7.867 -0.5282 -0.2278 -0.7286
   11SAPS  H13Y 1447   4.801   2.858   7.937  1.8228 -1.0229 -1.3054
   11SAPS  C314 1448   4.906   3.006   8.075 -0.3940 -0.5281 -0.4795
   11SAPS  H14X 1449   4.941   3.110   8.062  0.2377 -0.5665  0.7846
   11SAPS  H14Y 1450   4.991   2.954   8.124  0.1211 -0.3113 -1.1238
   11SAPS  C315 1451   4.797   3.016   8.180 -0.3672  0.2574 -0.2481
   11SAPS  H15X 1452   4.770   2.909   8.196  0.0112  0.1598 -0.2443
   11SAPS  H15Y 1453   4.712   3.080   8.149  1.4363  2.9905  0.1249
   11SAPS  C316 1454   4.857   3.063   8.318  0.0568  0.2847  0.3758
   11SAPS  H16X 1455   4.949   3.006   8.341 -0.7569 -0.8854  0.8496
   11SAPS  H16Y 1456   4.776   3.039   8.390 -2.3491 -0.6220 -2.4208
   11SAPS  C317 1457   4.877   3.216   8.324  0.2537  0.2540  0.3221
   11SAPS  H17X 1458   4.785   3.271   8.296  0.6557  0.0521 -1.5313
   11SAPS  H17Y 1459   4.959   3.232   8.250  0.1729  3.4824  0.7738
   11SAPS  C318 1460   4.919   3.255   8.466  0.4509 -0.2666  0.1400
   11SAPS  H18X 1461   4.839   3.283   8.538 -0.3911 -0.9869 -0.4991
   11SAPS  H18Y 1462   4.991   3.340   8.478  0.5817 -0.5675  1.6088
   11SAPS  H18Z 1463   4.973   3.167   8.507  1.4656  0.8149  1.2055
   12SAPS     N 1464   4.756   4.319   6.104 -0.1251  0.5451 -0.0047
   12SAPS   HN1 1465   4.719   4.253   6.033 -2.1873  1.6472 -0.0012
   12SAPS   HN2 1466   4.671   4.334   6.162 -2.1489 -1.1771 -2.3399
   12SAPS   HN3 1467   4.785   4.411   6.066  1.3764  0.9090  1.8560
   12SAPS   C12 1468   4.866   4.261   6.185  0.4257 -0.4255 -0.4546
   12SAPS  H12A 1469   4.928   4.227   6.103 -2.4074  0.7572 -3.3006
   12SAPS   C13 1470   4.949   4.366   6.258 -0.1363  0.2180  0.3648
   12SAPS  O13A 1471   4.918   4.489   6.257 -0.3602  0.4824 -0.0965
   12SAPS  O13B 1472   5.062   4.338   6.304 -0.1491 -0.2087 -0.3443
   12SAPS   C11 1473   4.810   4.149   6.281  0.3617 -0.0309  0.3915
   12SAPS  H11A 1474   4.740   4.198   6.353 -0.2387 -0.6041  0.2116
   12SAPS  H11B 1475   4.892   4.100   6.338  0.0156 -2.4304 -1.0370
   12SAPS     P 1476   4.805   3.935   6.134 -0.3580  0.0783 -0.1104
   12SAPS   O13 1477   4.701   3.848   6.075 -0.6933 -0.2019 -0.0085
   12SAPS   O14 1478   4.919   3.980   6.053 -0.3942 -0.4155  0.5713
   12SAPS   O12 1479   4.734   4.057   6.204 -0.2140  0.7125 -0.4847
   12SAPS   O11 1480   4.855   3.844   6.258  0.1844  0.0398 -0.2472
   12SAPS    C1 1481   4.757   3.788   6.347  0.5979 -1.0324  0.0888
   12SAPS    HA 1482   4.652   3.799   6.312  0.8343 -0.0415 -0.3444
   12SAPS    HB 1483   4.785   3.687   6.383 -0.0896 -0.7111  1.5971
   12SAPS    C2 1484   4.758   3.878   6.478 -0.6548 -0.1553  0.3203
   12SAPS    HS 1485   4.747   3.982   6.440 -1.1933 -0.6562 -0.9827
   12SAPS   O21 1486   4.887   3.863   6.542  0.1168 -0.2539 -0.0996
   12SAPS   C21 1487   4.926   3.956   6.628 -0.3853 -0.1972  0.6262
   12SAPS   O22 1488   4.901   4.071   6.605 -0.0285 -0.3131 -0.2806
   12SAPS   C22 1489   4.999   3.910   6.744 -0.2875 -0.0482 -0.3704
   12SAPS   H2R 1490   4.947   3.821   6.786  0.7448 -0.2039  0.6412
   12SAPS   H2S 1491   5.098   3.879   6.704 -0.9745 -1.4251 -1.0546
   12SAPS    C3 1492   4.636   3.845   6.575 -0.8411 -0.0900 -0.5667
   12SAPS    HX 1493   4.629   3.734   6.580  2.7747 -0.4310 -0.1243
   12SAPS    HY 1494   4.548   3.882   6.519  0.4377  1.3823 -1.6913
   12SAPS   O31 1495   4.647   3.905   6.702 -0.1007 -0.0121  0.3710
   12SAPS   C31 1496   4.530   3.902   6.778  0.7000  0.0634 -0.3420
   12SAPS   O32 1497   4.422   3.874   6.736 -0.2781 -0.3549  0.7453
   12SAPS   C32 1498   4.574   3.934   6.917 -0.5369  0.1099  0.0280
   12SAPS   H2X 1499   4.637   4.025   6.915 -0.6040  0.1489 -0.3577
   12SAPS   H2Y 1500   4.638   3.860   6.970 -1.2349  0.3674  1.2629
   12SAPS   C23 1501   5.020   4.029   6.840 -0.3496 -0.4308 -0.0146
   12SAPS   H3R 1502   4.926   4.070   6.882 -0.3794  0.7182 -1.1362
   12SAPS   H3S 1503   5.067   4.122   6.800  1.5586 -1.3938 -0.0944
   12SAPS   C24 1504   5.118   4.002   6.956 -0.6713 -0.4242  0.4946
   12SAPS   H4R 1505   5.153   4.098   7.000 -1.7721 -0.0869  0.6719
   12SAPS   H4S 1506   5.207   3.946   6.921 -1.5597 -2.6015  1.5389
   12SAPS   C25 1507   5.059   3.920   7.064 -0.3114 -0.2338 -0.1063
   12SAPS   H5R 1508   5.037   3.816   7.038 -0.7039 -1.1950  3.5501
   12SAPS   C26 1509   5.030   3.951   7.193 -0.1586 -0.2327 -0.2080
   12SAPS   H6R 1510   4.979   3.871   7.249 -0.6072  0.3103  0.1710
   12SAPS   C27 1511   5.053   4.076   7.271 -0.2083 -0.6869 -0.3797
   12SAPS   H7R 1512   5.164   4.085   7.267 -0.2891  1.1447  0.6174
   12SAPS   H7S 1513   5.031   4.066   7.379  3.1027  1.0980  0.6123
   12SAPS   C28 1514   4.986   4.199   7.201  0.1012  0.8062 -0.2499
   12SAPS   H8R 1515   5.020   4.218   7.098 -0.8051  0.0488 -0.7002
   12SAPS   C29 1516   4.916   4.292   7.261 -0.2447 -0.5764 -0.0561
   12SAPS   H9R 1517   4.876   4.374   7.199  2.9035  0.3405 -1.0191
   12SAPS  C210 1518   4.873   4.296   7.409  0.4466  0.1326  0.6582
   12SAPS  H10R 1519   4.876   4.198   7.460 -2.4848  0.5028  1.7511
   12SAPS  H10S 1520   4.765   4.317   7.394  0.9537  0.3693 -4.1219
   12SAPS  C211 1521   4.943   4.404   7.491  0.9199  0.1487  0.1787
   12SAPS  H11R 1522   4.964   4.496   7.435  0.3999  0.1902  0.0494
   12SAPS  C212 1523   4.976   4.387   7.620  0.4848 -0.3808 -0.4212
   12SAPS  H12R 1524   5.008   4.482   7.665 -3.8080  1.1611 -0.1851
   12SAPS  C213 1525   4.949   4.276   7.720 -0.0533 -0.5228 -0.5228
   12SAPS  H13R 1526   5.015   4.295   7.808 -0.0715 -0.9568 -0.4110
   12SAPS  H13S 1527   4.990   4.178   7.687  1.8350  0.5103 -1.3831
   12SAPS  C214 1528   4.809   4.283   7.772  0.1558  0.2844  0.2137
   12SAPS  H14R 1529   4.734   4.309   7.696  0.9690  1.2659 -0.2736
   12SAPS  C215 1530   4.763   4.243   7.893 -0.7237 -0.2750  0.0457
   12SAPS  H15R 1531   4.658   4.267   7.917 -1.0750 -0.2951 -1.4018
   12SAPS  C216 1532   4.848   4.182   8.008  0.2796 -0.3556  0.9952
   12SAPS  H16R 1533   4.935   4.127   7.965 -0.0114  0.0442 -0.1156
   12SAPS  H16S 1534   4.802   4.091   8.052  1.3728 -0.6355  1.5983
   12SAPS  C217 1535   4.880   4.276   8.118  1.3249 -0.2828 -0.1585
   12SAPS  H17R 1536   4.783   4.288   8.170  0.9260 -0.7043 -0.7786
   12SAPS  H17S 1537   4.897   4.381   8.085 -2.0425  0.9079  1.4706
   12SAPS  C218 1538   4.988   4.229   8.213  0.2765  0.5023 -0.1855
   12SAPS  H18R 1539   5.075   4.185   8.160 -0.2288 -1.3866  0.4606
   12SAPS  H18S 1540   4.936   4.151   8.272  1.7908 -3.0675 -3.1746
   12SAPS  C219 1541   5.027   4.342   8.305  0.2271  0.0298  0.5092
   12SAPS  H19R 1542   4.943   4.379   8.368  0.9857  1.4822  0.7160
   12SAPS  H19S 1543   5.063   4.422   8.237 -0.2509 -0.0471  0.1663
   12SAPS  C220 1544   5.134   4.307   8.403  0.7028 -0.3745 -0.2565
   12SAPS  H20R 1545   5.105   4.220   8.466 -1.6441  1.4269  1.3323
   12SAPS  H20S 1546   5.151   4.390   8.475 -1.4124 -1.5702  1.7607
   12SAPS  H20T 1547   5.226   4.283   8.345 -0.0634 -1.5903 -1.0047
   12SAPS   C33 1548   4.451   3.970   7.006 -0.1433 -0.6396  0.2681
   12SAPS   H3X 1549   4.392   3.879   7.031 -0.3765 -0.6405 -0.2681
   12SAPS   H3Y 1550   4.391   4.053   6.962  1.8474  0.5744 -0.2955
   12SAPS   C34 1551   4.514   4.027   7.133  0.8576  0.0933 -0.8705
   12SAPS   H4X 1552   4.534   4.133   7.108 -1.0770  0.3396 -1.4877
   12SAPS   H4Y 1553   4.612   3.982   7.159  1.1871  0.5225 -1.3453
   12SAPS   C35 1554   4.422   4.031   7.261 -0.0927  0.0358 -0.1497
   12SAPS   H5X 1555   4.404   3.926   7.293 -0.6726 -0.0510 -0.7252
   12SAPS   H5Y 1556   4.327   4.083   7.237  0.9973  1.4145 -1.7542
   12SAPS   C36 1557   4.483   4.111   7.382  0.5255  0.1633 -0.7567
   12SAPS   H6X 1558   4.492   4.219   7.360  0.7552  0.1440 -0.7648
   12SAPS   H6Y 1559   4.585   4.069   7.395 -0.0170 -0.8722  0.3101
   12SAPS   C37 1560   4.403   4.097   7.514 -0.4634 -0.0194  0.2760
   12SAPS   H7X 1561   4.379   3.989   7.521 -0.9965  0.1057  0.4054
   12SAPS   H7Y 1562   4.311   4.157   7.498 -0.0755  0.8603  1.2412
   12SAPS   C38 1563   4.474   4.149   7.637 -0.2094  0.1056 -0.1498
   12SAPS   H8X 1564   4.502   4.255   7.625  0.3334 -0.0095  0.1175
   12SAPS   H8Y 1565   4.566   4.089   7.655 -0.6563 -0.9992 -1.3348
   12SAPS   C39 1566   4.375   4.138   7.759  0.2521  0.2409  0.2172
   12SAPS   H9X 1567   4.281   4.192   7.737  0.2375  0.7496  1.4949
   12SAPS   H9Y 1568   4.424   4.190   7.844  0.6808  0.5659 -0.2231
   12SAPS  C310 1569   4.346   3.995   7.802 -0.5260 -0.1988  0.2820
   12SAPS  H10X 1570   4.437   3.932   7.807 -1.1419 -1.0140  2.1140
   12SAPS  H10Y 1571   4.269   3.945   7.739 -1.2585 -0.2507  1.1929
   12SAPS  C311 1572   4.264   4.004   7.934  0.0154  0.2627 -0.8357
   12SAPS  H11X 1573   4.215   3.907   7.958  2.3477 -0.9031 -0.4495
   12SAPS  H11Y 1574   4.181   4.077   7.929 -0.3739 -0.0459  0.5470
   12SAPS  C312 1575   4.352   4.046   8.055 -0.0257 -0.6595  0.5079
   12SAPS  H12X 1576   4.366   4.155   8.064 -1.3485 -0.6317  3.4484
   12SAPS  H12Y 1577   4.443   3.985   8.037 -0.6353 -1.7869  1.1304
   12SAPS  C313 1578   4.289   4.011   8.196  0.5328 -0.8296  0.8452
   12SAPS  H13X 1579   4.272   3.901   8.198  1.0402 -0.9323 -0.2156
   12SAPS  H13Y 1580   4.195   4.069   8.206  1.5949  0.9472  0.9003
   12SAPS  C314 1581   4.375   4.046   8.315  0.6194 -0.3274  0.1803
   12SAPS  H14X 1582   4.391   4.155   8.328 -1.1920  0.0410 -0.3516
   12SAPS  H14Y 1583   4.476   4.008   8.288  0.6571  0.3777 -0.7085
   12SAPS  C315 1584   4.321   3.991   8.446  0.4397  0.5045 -0.3385
   12SAPS  H15X 1585   4.393   4.013   8.528 -1.2134 -0.0232  1.3333
   12SAPS  H15Y 1586   4.296   3.883   8.452 -1.7012  0.9609 -0.3310
   12SAPS  C316 1587   4.186   4.068   8.472  0.2082  1.1766  0.2560
   12SAPS  H16X 1588   4.116   4.021   8.400 -0.5743  0.7239  1.2968
   12SAPS  H16Y 1589   4.181   4.176   8.446 -0.9752  1.0474 -0.0850
   12SAPS  C317 1590   4.121   4.061   8.615 -0.1580 -0.0612  1.0326
   12SAPS  H17X 1591   4.164   4.139   8.681 -2.1303  1.0267  1.1325
   12SAPS  H17Y 1592   4.159   3.967   8.659 -2.5025 -0.8565  1.5415
   12SAPS  C318 1593   3.966   4.068   8.622 -0.1960 -0.2008 -0.6144
   12SAPS  H18X 1594   3.927   4.031   8.719  3.6119 -1.6306  0.5510
   12SAPS  H18Y 1595   3.929   3.994   8.547  0.7432  0.1547 -1.4505
   12SAPS  H18Z 1596   3.923   4.163   8.583  0.3603 -0.3247 -1.5741
   13SAPS     N 1597   5.473   1.975   6.151 -0.1023 -0.7092 -0.0389
   13SAPS   HN1 1598   5.501   2.050   6.084 -1.5633  2.1780  2.3792
   13SAPS   HN2 1599   5.370   1.983   6.160 -0.1966 -2.9865  1.6182
   13SAPS   HN3 1600   5.504   2.017   6.241 -1.6454  2.1769 -0.7424
   13SAPS   C12 1601   5.524   1.838   6.139  0.4606  0.5982 -0.2292
   13SAPS  H12A 1602   5.465   1.772   6.201 -3.0680  2.5518 -1.2109
   13SAPS   C13 1603   5.520   1.778   5.996 -0.7512 -0.3792  0.7339
   13SAPS  O13A 1604   5.457   1.839   5.903 -0.0024  0.4665  0.2019
   13SAPS  O13B 1605   5.548   1.657   5.983 -0.2556  0.5510  0.2780
   13SAPS   C11 1606   5.672   1.835   6.188 -0.6851 -0.4036  0.3493
   13SAPS  H11A 1607   5.703   1.729   6.194 -1.4750 -1.1420 -4.5848
   13SAPS  H11B 1608   5.675   1.874   6.292 -1.1378  1.0884 -0.1631
   13SAPS     P 1609   5.918   1.916   6.140  0.1510 -0.3817  0.4443
   13SAPS   O13 1610   5.977   1.799   6.073 -0.9566 -0.4450 -0.2882
   13SAPS   O14 1611   5.975   2.053   6.120  0.2183 -0.1505 -0.1941
   13SAPS   O12 1612   5.755   1.920   6.110 -0.1833  0.4763  0.4245
   13SAPS   O11 1613   5.919   1.878   6.292 -0.0338  0.0931  0.1179
   13SAPS    C1 1614   6.009   1.947   6.388  0.3774  0.1337  0.7924
   13SAPS    HA 1615   6.070   2.023   6.334  2.3601 -0.9545  1.3988
   13SAPS    HB 1616   5.942   1.996   6.462 -0.7756  2.5766 -1.6497
   13SAPS    C2 1617   6.101   1.840   6.447 -0.1293  0.2451 -0.2918
   13SAPS    HS 1618   6.132   1.768   6.369 -0.7550  0.5124 -0.7949
   13SAPS   O21 1619   6.016   1.763   6.540  0.4341  0.1918 -0.1788
   13SAPS   C21 1620   6.081   1.657   6.583 -0.2087  0.2349  0.1336
   13SAPS   O22 1621   6.190   1.622   6.542 -0.0503  0.4902 -0.1459
   13SAPS   C22 1622   6.002   1.579   6.682 -0.3385 -0.1466  0.6486
   13SAPS   H2R 1623   5.908   1.638   6.689  0.2062  1.0860 -1.4700
   13SAPS   H2S 1624   5.979   1.481   6.633 -0.3220  0.9392 -1.6753
   13SAPS    C3 1625   6.226   1.910   6.513 -0.4079  0.0610  0.4586
   13SAPS    HX 1626   6.266   1.971   6.429 -2.2111  0.0529 -0.4442
   13SAPS    HY 1627   6.307   1.840   6.545 -0.7108 -0.3119  0.4119
   13SAPS   O31 1628   6.181   1.992   6.616  0.9586 -0.6189  0.1568
   13SAPS   C31 1629   6.275   2.036   6.700 -0.1915  0.0343 -0.7032
   13SAPS   O32 1630   6.389   2.028   6.673 -0.8312 -0.7362  0.1010
   13SAPS   C32 1631   6.214   2.091   6.830  0.9517 -0.2206  0.0552
   13SAPS   H2X 1632   6.178   2.003   6.888 -0.3977  0.2052 -0.0897
   13SAPS   H2Y 1633   6.129   2.155   6.797  0.8406 -1.0462 -1.3677
   13SAPS   C23 1634   6.081   1.557   6.820  0.4671  0.0108  0.7245
   13SAPS   H3R 1635   6.120   1.651   6.864  1.0837  0.3637 -0.5360
   13SAPS   H3S 1636   6.172   1.495   6.803 -0.2363 -0.6589 -0.8375
   13SAPS   C24 1637   5.990   1.486   6.922  0.9870  0.9264 -0.2657
   13SAPS   H4R 1638   5.936   1.400   6.876 -0.5557  2.5053 -1.5675
   13SAPS   H4S 1639   5.912   1.560   6.950 -0.4871 -0.8795  0.6418
   13SAPS   C25 1640   6.060   1.448   7.046 -0.7199 -0.9916  0.0749
   13SAPS   H5R 1641   6.158   1.402   7.026  1.0437  1.3454  2.5873
   13SAPS   C26 1642   6.027   1.462   7.180 -0.6663 -0.6317  0.4262
   13SAPS   H6R 1643   6.087   1.416   7.259  0.0558  0.1696  0.3689
   13SAPS   C27 1644   5.906   1.523   7.237 -0.0027 -0.5180 -0.8857
   13SAPS   H7R 1645   5.834   1.546   7.156 -1.4344 -2.5155 -0.2554
   13SAPS   H7S 1646   5.937   1.615   7.292  0.2792 -0.1720 -1.6123
   13SAPS   C28 1647   5.831   1.431   7.333 -0.2521  0.6833  0.4323
   13SAPS   H8R 1648   5.747   1.378   7.286  0.2599 -1.5306  1.8461
   13SAPS   C29 1649   5.871   1.386   7.454 -0.0845 -1.0542  0.3098
   13SAPS   H9R 1650   5.813   1.310   7.506 -1.0351  0.0893  0.9649
   13SAPS  C210 1651   5.992   1.423   7.541 -0.2461  0.5540  0.7270
   13SAPS  H10R 1652   6.073   1.460   7.475  0.1755 -0.1346  0.8445
   13SAPS  H10S 1653   6.025   1.320   7.568 -2.5390 -0.7640 -1.0961
   13SAPS  C211 1654   5.952   1.503   7.659  0.0233  0.2954 -0.0316
   13SAPS  H11R 1655   5.910   1.602   7.637  0.4426 -0.0070 -2.4181
   13SAPS  C212 1656   5.961   1.459   7.782  0.1675 -0.6906  0.6105
   13SAPS  H12R 1657   5.945   1.530   7.864  0.6489 -1.9375  1.8286
   13SAPS  C213 1658   6.015   1.330   7.829  0.4504  0.8843  0.6920
   13SAPS  H13R 1659   6.005   1.245   7.759  0.7301  1.7881 -0.4701
   13SAPS  H13S 1660   5.947   1.283   7.903 -1.0043 -1.4039 -1.9490
   13SAPS  C214 1661   6.157   1.344   7.876  1.1890 -0.2570 -0.2417
   13SAPS  H14R 1662   6.225   1.347   7.789  0.0047 -0.2284 -1.2036
   13SAPS  C215 1663   6.197   1.334   8.005 -0.4462  0.2764 -0.0515
   13SAPS  H15R 1664   6.305   1.341   8.021 -0.5626  1.5016  0.3552
   13SAPS  C216 1665   6.109   1.320   8.128  0.1368 -0.3268 -0.1882
   13SAPS  H16R 1666   6.132   1.221   8.174 -0.8837 -0.6742 -0.3896
   13SAPS  H16S 1667   6.003   1.323   8.094  0.4139  1.4640 -1.0109
   13SAPS  C217 1668   6.131   1.426   8.234  0.3361  0.4672 -0.2233
   13SAPS  H17R 1669   6.062   1.397   8.316 -1.9440 -0.9241 -2.4944
   13SAPS  H17S 1670   6.096   1.528   8.208 -1.3400 -0.1842 -0.6598
   13SAPS  C218 1671   6.278   1.424   8.285  0.2510 -0.9518 -0.0895
   13SAPS  H18R 1672   6.349   1.477   8.219  0.6766 -4.2682 -2.5048
   13SAPS  H18S 1673   6.297   1.316   8.301  2.0713 -0.6246  0.1549
   13SAPS  C219 1674   6.283   1.487   8.427  0.6718 -0.0194 -0.2923
   13SAPS  H19R 1675   6.220   1.430   8.498  1.3712 -0.2692  0.1340
   13SAPS  H19S 1676   6.239   1.589   8.429 -0.3505 -0.4259 -1.1912
   13SAPS  C220 1677   6.429   1.481   8.480  0.1071 -0.3147  0.3036
   13SAPS  H20R 1678   6.442   1.538   8.575 -0.0021 -0.3906  0.3632
   13SAPS  H20S 1679   6.486   1.535   8.401  0.7165 -2.0072 -0.4537
   13SAPS  H20T 1680   6.458   1.374   8.484  3.1275  0.3714 -0.6509
   13SAPS   C33 1681   6.304   2.185   6.912  0.3168  0.5425  0.3465
   13SAPS   H3X 1682   6.240   2.241   6.984 -1.1455 -1.0239  0.3400
   13SAPS   H3Y 1683   6.333   2.266   6.842 -0.8205  0.0332 -0.7573
   13SAPS   C34 1684   6.428   2.129   6.993 -0.7168  0.4024 -0.3145
   13SAPS   H4X 1685   6.502   2.100   6.916 -0.8238 -0.1193 -0.2224
   13SAPS   H4Y 1686   6.393   2.045   7.057  1.6830 -1.9306 -1.9044
   13SAPS   C35 1687   6.490   2.239   7.077  0.0716 -0.6640  0.0146
   13SAPS   H5X 1688   6.480   2.340   7.030 -2.2547  0.0447  1.8349
   13SAPS   H5Y 1689   6.598   2.217   7.093 -0.2400 -1.8745  0.5178
   13SAPS   C36 1690   6.426   2.268   7.211 -0.8072  0.8878 -0.3096
   13SAPS   H6X 1691   6.317   2.286   7.215 -1.4093 -2.1664  2.3633
   13SAPS   H6Y 1692   6.490   2.353   7.240 -3.2020  2.4193  0.8009
   13SAPS   C37 1693   6.449   2.159   7.318 -0.3651 -1.2197 -0.1553
   13SAPS   H7X 1694   6.558   2.143   7.335  0.5587  1.4384 -2.7641
   13SAPS   H7Y 1695   6.418   2.059   7.280  2.0151 -0.9627 -3.1912
   13SAPS   C38 1696   6.386   2.196   7.453 -0.1209  0.1674 -0.0116
   13SAPS   H8X 1697   6.281   2.232   7.439 -0.2552 -0.6327 -1.3022
   13SAPS   H8Y 1698   6.442   2.280   7.499 -0.5051  0.1565  0.4952
   13SAPS   C39 1699   6.373   2.075   7.544 -0.0545  0.4601  0.6389
   13SAPS   H9X 1700   6.462   2.009   7.537 -0.6863 -0.2446 -3.8504
   13SAPS   H9Y 1701   6.295   2.003   7.513 -0.6951  2.3563 -2.5814
   13SAPS  C310 1702   6.329   2.128   7.687 -0.4491 -0.0375  0.5571
   13SAPS  H10X 1703   6.228   2.171   7.675  0.3050  1.1499 -2.6411
   13SAPS  H10Y 1704   6.396   2.206   7.729 -1.5601  0.8014  0.8139
   13SAPS  C311 1705   6.311   2.003   7.781  0.1695 -0.3546 -0.1697
   13SAPS  H11X 1706   6.243   1.925   7.741  2.1522 -3.6059  2.3153
   13SAPS  H11Y 1707   6.258   2.042   7.871 -0.3206  2.2888 -1.5055
   13SAPS  C312 1708   6.449   1.933   7.821  0.2544 -0.1543  0.0142
   13SAPS  H12X 1709   6.507   2.007   7.879 -1.7261 -0.7014  2.8589
   13SAPS  H12Y 1710   6.508   1.886   7.739 -0.6678  0.5940 -1.1157
   13SAPS  C313 1711   6.421   1.811   7.913  0.2521  0.6893  0.1804
   13SAPS  H13X 1712   6.378   1.723   7.860  2.2723 -0.2071 -0.0767
   13SAPS  H13Y 1713   6.352   1.832   7.997 -3.1363  0.1031 -2.2150
   13SAPS  C314 1714   6.553   1.750   7.979  0.3123 -0.5153  0.0359
   13SAPS  H14X 1715   6.615   1.831   8.024 -0.9818  0.1451  0.6926
   13SAPS  H14Y 1716   6.607   1.715   7.888  0.1961  1.3672 -0.8168
   13SAPS  C315 1717   6.528   1.630   8.070  0.4293 -0.4448 -0.4868
   13SAPS  H15X 1718   6.448   1.568   8.024 -1.3105  0.0294  1.7436
   13SAPS  H15Y 1719   6.480   1.663   8.164 -1.8371 -1.6293 -1.1600
   13SAPS  C316 1720   6.657   1.543   8.080  0.0942  0.0212  0.3811
   13SAPS  H16X 1721   6.742   1.603   8.120 -0.3982 -1.3224  3.8184
   13SAPS  H16Y 1722   6.684   1.500   7.981  0.5451  0.0656  0.4802
   13SAPS  C317 1723   6.643   1.435   8.173 -0.9511 -0.1534  0.1165
   13SAPS  H17X 1724   6.569   1.360   8.138 -2.9279  1.1430  1.3255
   13SAPS  H17Y 1725   6.611   1.472   8.273 -0.4406  1.0344 -0.1403
   13SAPS  C318 1726   6.780   1.364   8.198 -0.1648 -0.7237 -0.1675
   13SAPS  H18X 1727   6.855   1.433   8.242  1.6117 -1.9807 -1.1029
   13SAPS  H18Y 1728   6.828   1.339   8.101 -0.3592  0.8589 -0.6983
   13SAPS  H18Z 1729   6.763   1.283   8.272  1.4346  1.1614  2.4504
   14SAPS     N 1730   6.524   2.989   5.403  0.4119 -0.7452  0.0548
   14SAPS   HN1 1731   6.463   2.971   5.321 -0.0685 -0.3825  0.3222
   14SAPS   HN2 1732   6.476   3.052   5.471 -0.5677 -1.0459 -0.3391
   14SAPS   HN3 1733   6.607   3.043   5.371 -0.1482 -0.6853 -1.3738
   14SAPS   C12 1734   6.566   2.862   5.465  0.2871 -0.7378  0.1395
   14SAPS  H12A 1735   6.475   2.811   5.495 -0.2728  0.4878  0.5856
   14SAPS   C13 1736   6.621   2.751   5.369  0.4725 -0.3587 -0.3141
   14SAPS  O13A 1737   6.646   2.640   5.421  0.0843 -0.3481  0.3484
   14SAPS  O13B 1738   6.632   2.778   5.246 -0.4159 -0.2459  0.4067
   14SAPS   C11 1739   6.664   2.883   5.581  0.6321 -0.2029  0.0383
   14SAPS  H11A 1740   6.771   2.896   5.554  0.4426 -0.1176 -0.7133
   14SAPS  H11B 1741   6.674   2.790   5.640  0.3063 -1.3187 -1.6010
   14SAPS     P 1742   6.722   3.056   5.763 -0.3056  0.3966  0.1699
   14SAPS   O13 1743   6.832   3.104   5.675  0.4948  0.6518  0.2375
   14SAPS   O14 1744   6.652   3.152   5.848 -0.2875  0.0064  0.1547
   14SAPS   O12 1745   6.617   2.983   5.671 -0.3346  0.7938 -0.2066
   14SAPS   O11 1746   6.779   2.937   5.846 -0.0437 -0.1246 -0.3138
   14SAPS    C1 1747   6.825   2.951   5.983 -0.9828  0.0250  0.2370
   14SAPS    HA 1748   6.905   2.877   6.004 -1.5148 -0.6797 -0.1732
   14SAPS    HB 1749   6.879   3.046   6.003  2.9754 -1.9680 -0.0099
   14SAPS    C2 1750   6.714   2.931   6.080  0.4019  0.5339 -0.5628
   14SAPS    HS 1751   6.644   3.017   6.077  0.4099  0.5429 -0.4937
   14SAPS   O21 1752   6.760   2.924   6.222 -0.2516 -0.0063 -0.5461
   14SAPS   C21 1753   6.799   3.046   6.274 -0.3333  0.2204  0.6056
   14SAPS   O22 1754   6.803   3.151   6.218  0.2527  0.3684 -0.2325
   14SAPS   C22 1755   6.843   3.017   6.418 -0.1608 -0.5604  0.1287
   14SAPS   H2R 1756   6.753   3.009   6.482 -0.4564  1.3348 -0.0040
   14SAPS   H2S 1757   6.900   2.922   6.413 -0.5008 -0.7124 -1.6344
   14SAPS    C3 1758   6.637   2.800   6.051 -0.7789 -0.3937 -0.5222
   14SAPS    HX 1759   6.713   2.722   6.068 -1.7202 -1.1013  0.6295
   14SAPS    HY 1760   6.603   2.789   5.946 -2.7216  0.5953 -0.0495
   14SAPS   O31 1761   6.533   2.778   6.144  0.4900 -0.5214 -0.0415
   14SAPS   C31 1762   6.423   2.858   6.142  0.3317 -0.9098 -0.4087
   14SAPS   O32 1763   6.402   2.956   6.069 -0.5451  0.7777 -0.0628
   14SAPS   C32 1764   6.334   2.811   6.256  0.2016  0.2952  0.0865
   14SAPS   H2X 1765   6.402   2.802   6.343  1.0335 -3.1176 -0.7536
   14SAPS   H2Y 1766   6.298   2.710   6.225  3.8161 -0.4406 -2.3729
   14SAPS   C23 1767   6.917   3.136   6.491 -0.2229 -0.8650  0.5340
   14SAPS   H3R 1768   6.854   3.228   6.486  1.2681  0.2525  1.6306
   14SAPS   H3S 1769   7.014   3.154   6.440 -1.5767 -0.4575 -2.1024
   14SAPS   C24 1770   6.938   3.115   6.640  0.1972 -0.5781 -0.5022
   14SAPS   H4R 1771   7.010   3.032   6.656 -0.5546 -1.5113 -1.8448
   14SAPS   H4S 1772   6.849   3.074   6.691  0.6645  0.5482  1.3158
   14SAPS   C25 1773   6.979   3.254   6.694 -0.6340  0.2324  0.3023
   14SAPS   H5R 1774   6.994   3.340   6.627  2.5062 -1.0394 -0.8642
   14SAPS   C26 1775   7.007   3.271   6.828 -0.3638  0.5852  0.4070
   14SAPS   H6R 1776   7.020   3.376   6.859  0.7836  0.5387  0.1084
   14SAPS   C27 1777   6.999   3.174   6.942 -0.2549  0.0093 -0.7200
   14SAPS   H7R 1778   7.093   3.116   6.958 -1.2533 -1.2042  0.9994
   14SAPS   H7S 1779   6.920   3.098   6.925 -0.3779  0.1834 -0.9314
   14SAPS   C28 1780   6.976   3.243   7.076 -0.0336 -0.7934 -0.3677
   14SAPS   H8R 1781   6.953   3.351   7.079 -1.7462 -1.1451  1.2533
   14SAPS   C29 1782   7.001   3.194   7.202 -0.1732 -0.4580 -0.1631
   14SAPS   H9R 1783   6.994   3.257   7.292  2.6978 -0.3184  0.0533
   14SAPS  C210 1784   7.051   3.049   7.209 -0.7110  0.4270  0.2087
   14SAPS  H10R 1785   7.062   2.992   7.115  2.5291  1.0831  0.0643
   14SAPS  H10S 1786   6.985   2.989   7.275  0.6743  0.2603  1.5145
   14SAPS  C211 1787   7.181   3.019   7.273 -0.5502  0.4063  0.3260
   14SAPS  H11R 1788   7.253   3.012   7.190 -0.2123 -0.4673  0.6777
   14SAPS  C212 1789   7.214   2.997   7.396 -0.0828  1.0407 -0.5942
   14SAPS  H12R 1790   7.321   2.984   7.419 -0.0776  0.1599 -1.0466
   14SAPS  C213 1791   7.123   2.996   7.512 -0.0335 -0.4698 -0.2686
   14SAPS  H13R 1792   7.017   3.003   7.478  0.3306  1.3561 -1.2238
   14SAPS  H13S 1793   7.148   3.087   7.571 -3.0600 -0.2675  0.8950
   14SAPS  C214 1794   7.138   2.875   7.590 -0.8396  0.2736  0.9973
   14SAPS  H14R 1795   7.123   2.786   7.527  1.7664  1.0757 -0.9427
   14SAPS  C215 1796   7.169   2.859   7.712 -0.3214 -0.3960 -0.4079
   14SAPS  H15R 1797   7.162   2.757   7.753 -0.2518 -0.9574 -1.7379
   14SAPS  C216 1798   7.187   2.969   7.815 -0.5119 -0.3230  0.3274
   14SAPS  H16R 1799   7.244   3.051   7.765 -0.2144 -0.7260 -0.0013
   14SAPS  H16S 1800   7.246   2.935   7.903 -0.0077  0.2155  0.2079
   14SAPS  C217 1801   7.052   3.033   7.843  0.3766 -0.5422  0.1630
   14SAPS  H17R 1802   6.985   2.952   7.882  1.4254 -0.1892  2.9094
   14SAPS  H17S 1803   7.001   3.069   7.751 -1.7272 -0.8129  1.1565
   14SAPS  C218 1804   7.053   3.146   7.947 -0.4244  0.1899 -0.3680
   14SAPS  H18R 1805   7.117   3.227   7.907  0.0506 -0.1877 -0.3798
   14SAPS  H18S 1806   7.106   3.101   8.033  1.9592  1.9585 -0.8228
   14SAPS  C219 1807   6.909   3.194   7.984 -0.2948  0.0514 -0.5867
   14SAPS  H19R 1808   6.859   3.114   8.043  1.5890 -0.2179  0.7302
   14SAPS  H19S 1809   6.856   3.219   7.889  0.0973 -1.3834 -1.2012
   14SAPS  C220 1810   6.922   3.321   8.076  0.2610  0.5021 -0.3451
   14SAPS  H20R 1811   6.963   3.409   8.023 -1.6375  1.7895  0.2263
   14SAPS  H20S 1812   6.998   3.307   8.156  0.5087  0.3234 -0.6139
   14SAPS  H20T 1813   6.828   3.347   8.130  0.1541  1.5140 -0.9989
   14SAPS   C33 1814   6.220   2.908   6.285  1.0221 -0.2460 -0.2305
   14SAPS   H3X 1815   6.143   2.864   6.352 -0.1629  1.4327 -0.4228
   14SAPS   H3Y 1816   6.155   2.923   6.196 -0.6783  0.2352  1.0360
   14SAPS   C34 1817   6.269   3.040   6.348 -0.7082 -0.0338 -0.2955
   14SAPS   H4X 1818   6.188   3.114   6.366 -1.2355  0.6931 -4.4854
   14SAPS   H4Y 1819   6.321   3.093   6.265  0.6089  0.7287  0.9725
   14SAPS   C35 1820   6.369   3.044   6.472  0.9152  1.3762  0.0599
   14SAPS   H5X 1821   6.370   3.148   6.511 -1.7519  1.0778  1.1680
   14SAPS   H5Y 1822   6.469   3.008   6.440 -0.5089  0.9455 -4.7531
   14SAPS   C36 1823   6.318   2.961   6.592 -0.0295 -0.1939 -0.2171
   14SAPS   H6X 1824   6.285   2.858   6.566 -0.3341 -0.5152  1.3819
   14SAPS   H6Y 1825   6.226   3.008   6.633 -0.9651 -0.8198 -1.5075
   14SAPS   C37 1826   6.420   2.953   6.705 -0.2310  0.1604  0.1134
   14SAPS   H7X 1827   6.361   2.924   6.795  1.0643 -0.8099  0.6918
   14SAPS   H7Y 1828   6.472   3.050   6.723 -2.3449  0.8669  3.0412
   14SAPS   C38 1829   6.525   2.845   6.669  0.6106 -0.5859  0.6957
   14SAPS   H8X 1830   6.553   2.848   6.562 -1.4227  1.6432  0.1395
   14SAPS   H8Y 1831   6.476   2.746   6.679 -2.2788  0.5687 -0.8395
   14SAPS   C39 1832   6.647   2.866   6.755 -0.3389 -0.1138 -0.1728
   14SAPS   H9X 1833   6.679   2.972   6.761 -0.3708 -0.0542 -0.9385
   14SAPS   H9Y 1834   6.736   2.812   6.713 -1.1518 -1.0559 -0.7378
   14SAPS  C310 1835   6.635   2.825   6.904  0.0126  0.6465  0.4431
   14SAPS  H10X 1836   6.555   2.884   6.954 -1.6714 -1.9148  0.9550
   14SAPS  H10Y 1837   6.730   2.854   6.953  1.3333  0.7243 -2.0201
   14SAPS  C311 1838   6.606   2.679   6.928 -0.0017  0.5994  0.5218
   14SAPS  H11X 1839   6.690   2.618   6.889 -0.7987 -1.5120  1.9603
   14SAPS  H11Y 1840   6.511   2.651   6.877 -0.4267  1.2370  0.9430
   14SAPS  C312 1841   6.612   2.654   7.080  0.7679 -0.1372  0.7376
   14SAPS  H12X 1842   6.698   2.705   7.130  1.0338  0.3513 -0.2051
   14SAPS  H12Y 1843   6.627   2.546   7.102  0.5137 -0.5682 -1.0822
   14SAPS  C313 1844   6.486   2.697   7.162  0.3608  0.1450 -0.7729
   14SAPS  H13X 1845   6.395   2.651   7.119 -0.1436  1.0950 -0.7586
   14SAPS  H13Y 1846   6.485   2.808   7.165 -1.2216  0.1630 -1.0080
   14SAPS  C314 1847   6.489   2.650   7.313 -0.7853 -1.1799 -0.1740
   14SAPS  H14X 1848   6.582   2.691   7.357 -1.9499  0.3032  0.9966
   14SAPS  H14Y 1849   6.508   2.540   7.315  0.8031 -1.0076 -2.3598
   14SAPS  C315 1850   6.367   2.696   7.397  0.0812 -0.4267  0.1184
   14SAPS  H15X 1851   6.274   2.687   7.336 -0.2682  0.4028  0.5070
   14SAPS  H15Y 1852   6.388   2.803   7.419 -0.8457 -0.1318 -0.3815
   14SAPS  C316 1853   6.329   2.614   7.524 -0.0694 -0.4969  0.4672
   14SAPS  H16X 1854   6.284   2.513   7.510 -2.3038  0.4395  0.3632
   14SAPS  H16Y 1855   6.261   2.680   7.583  1.5181  1.6427  0.0309
   14SAPS  C317 1856   6.450   2.603   7.617 -0.0060 -0.4560 -0.0181
   14SAPS  H17X 1857   6.504   2.699   7.631 -0.5338 -0.4570  2.4782
   14SAPS  H17Y 1858   6.523   2.537   7.566 -0.5990  0.9495 -2.8617
   14SAPS  C318 1859   6.428   2.539   7.760  0.1529  0.0445  0.3586
   14SAPS  H18X 1860   6.526   2.530   7.812  0.9341  3.0419 -0.4118
   14SAPS  H18Y 1861   6.376   2.441   7.750 -2.5536  1.3500  0.8377
   14SAPS  H18Z 1862   6.360   2.609   7.813  0.3201  0.4601  0.0286
   15SAPS     N 1863   5.889   5.265   6.024 -0.3260  0.1604 -0.7234
   15SAPS   HN1 1864   5.878   5.196   6.101  1.4691  0.0578 -0.5054
   15SAPS   HN2 1865   5.992   5.281   6.026  0.2194 -2.6934  1.7234
   15SAPS   HN3 1866   5.840   5.354   6.046 -0.1546  0.7466 -2.5947
   15SAPS   C12 1867   5.849   5.213   5.895 -0.3348 -0.4819  0.0911
   15SAPS  H12A 1868   5.744   5.240   5.888  0.4307  2.8816 -0.2588
   15SAPS   C13 1869   5.924   5.264   5.774 -0.0940 -0.4275 -0.4592
   15SAPS  O13A 1870   6.004   5.360   5.788 -0.4499 -0.2566 -0.5031
   15SAPS  O13B 1871   5.885   5.221   5.664 -0.3688 -0.2710  0.1918
   15SAPS   C11 1872   5.862   5.053   5.890  0.4033 -0.3224 -0.3131
   15SAPS  H11A 1873   5.967   5.021   5.907  0.3822  0.6697  2.0264
   15SAPS  H11B 1874   5.825   5.022   5.790  0.0624 -1.2686  0.1009
   15SAPS     P 1875   5.713   4.855   5.997 -0.2793 -0.2787 -0.2841
   15SAPS   O13 1876   5.625   4.816   5.885  0.1589 -0.3302  0.3289
   15SAPS   O14 1877   5.821   4.751   6.021  0.0803 -0.9762  0.6782
   15SAPS   O12 1878   5.780   4.999   5.990  0.2281  0.3927 -0.6334
   15SAPS   O11 1879   5.632   4.872   6.131  0.1965  0.2141  1.0098
   15SAPS    C1 1880   5.550   4.761   6.178  0.2999  0.1127  0.0420
   15SAPS    HA 1881   5.465   4.742   6.108 -0.2828  1.1306  0.4529
   15SAPS    HB 1882   5.598   4.661   6.184 -1.8173 -1.0182 -0.4435
   15SAPS    C2 1883   5.481   4.795   6.316 -0.4339 -0.4599 -0.5938
   15SAPS    HS 1884   5.424   4.890   6.304 -3.4550 -2.0440  0.0965
   15SAPS   O21 1885   5.579   4.788   6.420 -0.2608  0.0095 -0.5089
   15SAPS   C21 1886   5.579   4.899   6.502 -0.2323  0.7064 -0.0361
   15SAPS   O22 1887   5.506   4.994   6.490  0.1321  0.4211 -0.0518
   15SAPS   C22 1888   5.684   4.892   6.604  0.0356 -0.5427  0.0981
   15SAPS   H2R 1889   5.678   4.789   6.646  3.7697 -1.0116 -0.2093
   15SAPS   H2S 1890   5.780   4.900   6.549 -1.1183  1.4071 -1.7720
   15SAPS    C3 1891   5.372   4.696   6.361  0.1041  0.3458  1.0475
   15SAPS    HX 1892   5.419   4.601   6.328 -1.7729 -0.6331  1.0557
   15SAPS    HY 1893   5.291   4.711   6.286  0.6157  2.2879  0.8112
   15SAPS   O31 1894   5.337   4.694   6.496 -0.6743  0.6495  0.5383
   15SAPS   C31 1895   5.234   4.753   6.535 -0.2599 -0.8295  0.0649
   15SAPS   O32 1896   5.152   4.810   6.474  0.1495  0.1356  0.1547
   15SAPS   C32 1897   5.227   4.736   6.681  0.1762  0.1274 -0.2519
   15SAPS   H2X 1898   5.143   4.796   6.720 -0.2542  1.4695 -3.0089
   15SAPS   H2Y 1899   5.318   4.782   6.725 -0.0537 -0.6171  1.0805
   15SAPS   C23 1900   5.676   5.008   6.706  0.3329 -0.4319 -0.5108
   15SAPS   H3R 1901   5.656   5.108   6.661  3.6833  1.9698  2.7032
   15SAPS   H3S 1902   5.776   5.031   6.750  0.2528  0.6857 -0.8825
   15SAPS   C24 1903   5.575   4.988   6.813 -0.4926 -0.3573 -1.0613
   15SAPS   H4R 1904   5.474   4.977   6.768 -3.2256  1.5721  3.8005
   15SAPS   H4S 1905   5.571   5.089   6.860 -2.3419  0.2416 -2.3798
   15SAPS   C25 1906   5.594   4.875   6.902  1.0303  0.1411 -0.3095
   15SAPS   H5R 1907   5.558   4.782   6.855  0.3289  0.1257  0.2468
   15SAPS   C26 1908   5.656   4.873   7.019 -0.1647  0.4717  0.4772
   15SAPS   H6R 1909   5.661   4.778   7.075  0.1378 -0.2415 -0.7333
   15SAPS   C27 1910   5.709   4.988   7.096  0.2306 -0.0117 -0.3593
   15SAPS   H7R 1911   5.692   5.086   7.047  0.5335  0.2604  0.0807
   15SAPS   H7S 1912   5.818   4.977   7.114 -0.1905 -0.1320  2.6537
   15SAPS   C28 1913   5.644   4.992   7.232  0.0666  0.0405  0.5724
   15SAPS   H8R 1914   5.544   5.038   7.238  0.9259  2.4927 -1.7735
   15SAPS   C29 1915   5.688   4.937   7.349 -0.1967  0.4115 -0.6769
   15SAPS   H9R 1916   5.614   4.961   7.427  0.1269  2.8500 -1.0612
   15SAPS  C210 1917   5.826   4.882   7.381  0.3619 -0.0438  0.2057
   15SAPS  H10R 1918   5.858   4.804   7.308  1.8000 -0.8747  1.6536
   15SAPS  H10S 1919   5.828   4.839   7.484  1.6815 -0.5232  0.0074
   15SAPS  C211 1920   5.934   4.987   7.370  0.4074  0.3485 -0.5366
   15SAPS  H11R 1921   5.899   5.084   7.410 -0.3202 -0.2355  0.2923
   15SAPS  C212 1922   6.057   4.974   7.327  0.5828 -0.2444 -0.1744
   15SAPS  H12R 1923   6.120   5.064   7.321  1.1602 -0.5572  0.8779
   15SAPS  C213 1924   6.104   4.847   7.256  0.6035 -0.2854 -0.8402
   15SAPS  H13R 1925   6.054   4.755   7.294  1.3791  0.0504  1.1259
   15SAPS  H13S 1926   6.212   4.839   7.281  0.0201 -0.5073  1.9037
   15SAPS  C214 1927   6.089   4.848   7.108  0.3433  0.1461  0.4832
   15SAPS  H14R 1928   5.986   4.839   7.071  0.1387  2.6234  0.2863
   15SAPS  C215 1929   6.182   4.844   7.014  0.1845 -0.1915 -0.0839
   15SAPS  H15R 1930   6.153   4.850   6.908  1.2984  1.4235 -0.3359
   15SAPS  C216 1931   6.335   4.824   7.032 -0.4787 -0.0450 -0.0121
   15SAPS  H16R 1932   6.367   4.747   6.959  0.9180  1.5343 -1.1604
   15SAPS  H16S 1933   6.352   4.785   7.134  1.0172 -1.3568 -0.7215
   15SAPS  C217 1934   6.412   4.956   7.010  0.4314 -0.2470 -0.3799
   15SAPS  H17R 1935   6.360   5.036   6.952  0.0756  2.3869  3.2432
   15SAPS  H17S 1936   6.505   4.936   6.953  0.5255  4.1084 -2.1415
   15SAPS  C218 1937   6.432   5.020   7.143  0.4264 -0.4306 -0.3234
   15SAPS  H18R 1938   6.519   4.980   7.199  0.2096 -0.1581  0.2083
   15SAPS  H18S 1939   6.340   5.000   7.201  1.5928 -2.0135  1.0846
   15SAPS  C219 1940   6.463   5.169   7.131  0.1692 -0.0945 -0.5003
   15SAPS  H19R 1941   6.393   5.217   7.060  0.4253  0.9745 -0.0585
   15SAPS  H19S 1942   6.568   5.167   7.094  0.0242 -1.5233 -0.9059
   15SAPS  C220 1943   6.449   5.244   7.264 -0.2370 -0.6359 -1.0545
   15SAPS  H20R 1944   6.351   5.224   7.311 -0.9529  0.5865 -1.9593
   15SAPS  H20S 1945   6.454   5.353   7.244 -0.2657  0.2285  2.8734
   15SAPS  H20T 1946   6.535   5.225   7.332 -2.6426  1.5172  2.9027
   15SAPS   C33 1947   5.209   4.584   6.726 -0.4772 -0.9014 -0.2068
   15SAPS   H3X 1948   5.292   4.518   6.695  0.7266  0.2344  0.5163
   15SAPS   H3Y 1949   5.115   4.547   6.679 -2.2515 -0.8421  2.9733
   15SAPS   C34 1950   5.187   4.562   6.877  0.1018  0.2504  0.4089
   15SAPS   H4X 1951   5.213   4.455   6.893  0.7476  0.5585  1.5541
   15SAPS   H4Y 1952   5.079   4.568   6.904 -0.0170  1.6099 -0.2972
   15SAPS   C35 1953   5.276   4.642   6.964 -0.2265  0.2974 -0.4812
   15SAPS   H5X 1954   5.263   4.751   6.947  0.3444  0.4068 -0.2192
   15SAPS   H5Y 1955   5.382   4.618   6.942  0.2843  0.0267  1.9683
   15SAPS   C36 1956   5.251   4.616   7.113 -0.0260  0.1594 -0.0621
   15SAPS   H6X 1957   5.143   4.639   7.127  0.3278  1.7934  0.1726
   15SAPS   H6Y 1958   5.304   4.692   7.174 -0.1908  0.2476 -0.0274
   15SAPS   C37 1959   5.271   4.475   7.165 -0.2676  0.5935  0.6915
   15SAPS   H7X 1960   5.365   4.427   7.130 -0.0751  1.3604  0.1394
   15SAPS   H7Y 1961   5.181   4.415   7.140  0.8817 -1.1178  0.4236
   15SAPS   C38 1962   5.275   4.466   7.318 -0.9073  0.6369  0.4861
   15SAPS   H8X 1963   5.270   4.359   7.349 -0.2907  0.6358  0.5799
   15SAPS   H8Y 1964   5.192   4.520   7.369 -0.5206  1.4761  0.2313
   15SAPS   C39 1965   5.409   4.518   7.379 -0.1870  0.0334  0.2077
   15SAPS   H9X 1966   5.406   4.628   7.367 -1.5679  0.1348  1.2705
   15SAPS   H9Y 1967   5.497   4.476   7.324 -0.7481 -2.3154  0.9784
   15SAPS  C310 1968   5.422   4.485   7.525 -0.1205  0.4216  0.2846
   15SAPS  H10X 1969   5.417   4.374   7.532  0.7818  0.3168 -0.5888
   15SAPS  H10Y 1970   5.338   4.521   7.589 -0.1008 -0.6690  0.9541
   15SAPS  C311 1971   5.561   4.533   7.574 -0.2373 -0.8113  0.6073
   15SAPS  H11X 1972   5.577   4.640   7.553 -0.5578  0.0682  4.1901
   15SAPS  H11Y 1973   5.628   4.470   7.512 -1.0069  0.8298 -2.0489
   15SAPS  C312 1974   5.590   4.503   7.718  0.1412  0.2534 -0.5318
   15SAPS  H12X 1975   5.535   4.567   7.789 -0.2136  0.7376 -1.2258
   15SAPS  H12Y 1976   5.698   4.523   7.738  0.5016 -2.0769  0.1557
   15SAPS  C313 1977   5.561   4.360   7.766  0.3821 -0.1964 -0.0745
   15SAPS  H13X 1978   5.598   4.283   7.694  1.0368 -1.0782  1.1678
   15SAPS  H13Y 1979   5.453   4.339   7.782  0.1958  0.5887 -0.2710
   15SAPS  C314 1980   5.633   4.335   7.905  0.1508 -0.7440  0.5801
   15SAPS  H14X 1981   5.596   4.408   7.980 -0.0171 -0.5854  0.3468
   15SAPS  H14Y 1982   5.741   4.353   7.887 -0.1848  2.7204  1.3419
   15SAPS  C315 1983   5.593   4.195   7.958 -0.3971 -0.0221  0.4436
   15SAPS  H15X 1984   5.667   4.186   8.041 -0.0756  1.5707  0.3716
   15SAPS  H15Y 1985   5.628   4.123   7.881  1.4581  1.2663  0.0236
   15SAPS  C316 1986   5.447   4.178   8.016 -0.1688  0.0508  1.0777
   15SAPS  H16X 1987   5.371   4.171   7.935  2.7973 -2.8042 -1.7955
   15SAPS  H16Y 1988   5.425   4.271   8.072  1.4451  1.7699 -0.9589
   15SAPS  C317 1989   5.420   4.063   8.116  0.3846 -0.7435 -0.0492
   15SAPS  H17X 1990   5.433   3.964   8.067 -0.9275 -0.4418 -1.0831
   15SAPS  H17Y 1991   5.316   4.071   8.154 -0.0872  1.0082 -1.5169
   15SAPS  C318 1992   5.502   4.063   8.244 -0.2136 -0.5022 -0.6937
   15SAPS  H18X 1993   5.515   4.165   8.287 -1.7382 -0.6056  0.0825
   15SAPS  H18Y 1994   5.600   4.020   8.214 -0.7976 -0.8017 -2.2898
   15SAPS  H18Z 1995   5.442   3.996   8.309 -1.7699  1.9278  0.5375
   16SAPS     N 1996   1.336   4.683   6.460 -0.2166 -0.0169  0.7354
   16SAPS   HN1 1997   1.259   4.722   6.517 -0.1981 -0.3937  1.0256
   16SAPS   HN2 1998   1.403   4.624   6.514  0.4694  0.4420  0.4036
   16SAPS   HN3 1999   1.394   4.761   6.425  0.9827 -1.0753  0.2662
   16SAPS   C12 2000   1.276   4.589   6.358 -0.0111 -1.2349 -0.3194
   16SAPS  H12A 2001   1.213   4.637   6.284 -2.2000 -3.0454  0.2714
   16SAPS   C13 2002   1.378   4.506   6.269  0.2055  0.0727 -0.2663
   16SAPS  O13A 2003   1.495   4.511   6.307  0.0079 -0.2087 -0.0595
   16SAPS  O13B 2004   1.336   4.445   6.171 -0.8836  0.0054 -0.1737
   16SAPS   C11 2005   1.179   4.484   6.429  0.4743  0.8615  0.0083
   16SAPS  H11A 2006   1.249   4.436   6.500  1.2321  0.6175 -0.8935
   16SAPS  H11B 2007   1.132   4.416   6.355 -1.6484  2.9966 -0.7338
   16SAPS     P 2008   0.947   4.593   6.447  0.4473 -0.3537  0.1604
   16SAPS   O13 2009   0.919   4.712   6.531  0.7400  0.1938  0.2545
   16SAPS   O14 2010   0.965   4.622   6.304  0.1017 -0.8784 -0.2573
   16SAPS   O12 2011   1.078   4.537   6.508 -0.0627 -0.7971  0.4062
   16SAPS   O11 2012   0.838   4.486   6.467 -0.2150 -0.6312  0.2139
   16SAPS    C1 2013   0.863   4.345   6.474  0.3961 -0.4148 -0.2612
   16SAPS    HA 2014   0.832   4.301   6.377 -1.1437 -0.3979  0.1950
   16SAPS    HB 2015   0.966   4.316   6.503  0.3462 -3.1515 -2.3989
   16SAPS    C2 2016   0.773   4.274   6.586 -0.0557  0.6081  0.1973
   16SAPS    HS 2017   0.670   4.304   6.558 -0.3350 -0.2634  0.2384
   16SAPS   O21 2018   0.811   4.330   6.708 -0.1049 -0.4240 -0.2556
   16SAPS   C21 2019   0.712   4.359   6.792  0.8626  0.3095  0.1492
   16SAPS   O22 2020   0.592   4.357   6.767 -0.3327  0.7500 -0.1279
   16SAPS   C22 2021   0.761   4.387   6.930  0.3049  0.0188  0.4460
   16SAPS   H2R 2022   0.823   4.303   6.967 -0.3248 -0.2652  0.8895
   16SAPS   H2S 2023   0.827   4.477   6.928 -0.6143  0.7762  2.0487
   16SAPS    C3 2024   0.786   4.120   6.583 -0.1329 -0.3794  0.0547
   16SAPS    HX 2025   0.887   4.083   6.607 -0.8022 -1.6093  1.0653
   16SAPS    HY 2026   0.759   4.099   6.477  0.3501  0.2316 -0.1925
   16SAPS   O31 2027   0.700   4.061   6.678 -0.3232 -0.1749  0.6587
   16SAPS   C31 2028   0.573   4.029   6.634 -0.2708 -0.2484 -0.0492
   16SAPS   O32 2029   0.530   4.065   6.526 -0.0667  0.6246  0.0165
   16SAPS   C32 2030   0.499   3.954   6.745 -0.1705 -0.6162  0.6900
   16SAPS   H2X 2031   0.526   3.848   6.727  1.1248 -0.1686 -0.1002
   16SAPS   H2Y 2032   0.393   3.973   6.717 -0.0161 -1.6737 -0.7704
   16SAPS   C23 2033   0.658   4.407   7.038  0.0813 -0.1881 -0.2925
   16SAPS   H3R 2034   0.607   4.308   7.041 -0.0829 -0.1364 -1.0980
   16SAPS   H3S 2035   0.580   4.481   7.013 -0.5683 -0.8006 -0.1119
   16SAPS   C24 2036   0.737   4.455   7.163 -0.4806 -0.8440  0.0487
   16SAPS   H4R 2037   0.754   4.562   7.137  0.4275 -1.1731 -0.7514
   16SAPS   H4S 2038   0.836   4.411   7.184 -1.0742 -1.2388  2.3375
   16SAPS   C25 2039   0.648   4.449   7.284 -0.6563 -0.8536  0.4276
   16SAPS   H5R 2040   0.571   4.527   7.282 -1.1060 -1.2570  1.2635
   16SAPS   C26 2041   0.652   4.365   7.388 -0.2018  0.2216 -0.0525
   16SAPS   H6R 2042   0.572   4.381   7.462 -1.1443 -0.1953 -0.9476
   16SAPS   C27 2043   0.743   4.244   7.413 -0.2636 -0.1298 -1.0983
   16SAPS   H7R 2044   0.786   4.204   7.319 -0.3391 -2.2538 -0.2629
   16SAPS   H7S 2045   0.676   4.162   7.448  0.7942  0.1454  1.8603
   16SAPS   C28 2046   0.863   4.274   7.503  0.5017 -0.5886 -0.3377
   16SAPS   H8R 2047   0.959   4.262   7.450 -0.2990 -0.3276 -1.8912
   16SAPS   C29 2048   0.864   4.289   7.634  0.0085  0.4172 -0.5741
   16SAPS   H9R 2049   0.956   4.323   7.684  0.3942 -1.0986 -0.2031
   16SAPS  C210 2050   0.738   4.276   7.711  0.0050 -0.4725  0.2309
   16SAPS  H10R 2051   0.717   4.169   7.734  1.1027 -0.4360  1.4944
   16SAPS  H10S 2052   0.652   4.309   7.649  1.5758 -0.1706 -1.8982
   16SAPS  C211 2053   0.746   4.358   7.836  0.3033 -0.7110  0.2021
   16SAPS  H11R 2054   0.707   4.461   7.829 -5.2911 -2.1320  3.4249
   16SAPS  C212 2055   0.784   4.321   7.959  0.5557 -0.2977 -0.6137
   16SAPS  H12R 2056   0.780   4.386   8.048 -0.3025 -0.3835 -0.5759
   16SAPS  C213 2057   0.813   4.176   8.001 -0.3777 -0.2216  0.1300
   16SAPS  H13R 2058   0.912   4.155   7.953 -0.6773  0.8995 -1.0569
   16SAPS  H13S 2059   0.745   4.105   7.949  2.7554 -1.5383 -2.5479
   16SAPS  C214 2060   0.813   4.143   8.151 -0.6008 -0.9434 -0.2621
   16SAPS  H14R 2061   0.740   4.064   8.173 -0.8423 -0.3134  1.2731
   16SAPS  C215 2062   0.882   4.192   8.248 -0.7583 -0.0975 -0.3489
   16SAPS  H15R 2063   0.881   4.147   8.348  1.7179  2.9947  1.2630
   16SAPS  C216 2064   0.988   4.300   8.228 -0.2501  0.3514  0.4472
   16SAPS  H16R 2065   0.943   4.401   8.240  0.0097  0.3510  1.5673
   16SAPS  H16S 2066   1.041   4.294   8.131 -0.8576 -3.2381  0.1842
   16SAPS  C217 2067   1.099   4.302   8.339  0.5089 -0.7986 -0.2635
   16SAPS  H17R 2068   1.176   4.376   8.310  3.3440 -2.9122  1.4048
   16SAPS  H17S 2069   1.143   4.200   8.338  1.8633 -0.2216 -0.4525
   16SAPS  C218 2070   1.040   4.325   8.482  0.5351  0.2905 -0.0420
   16SAPS  H18R 2071   0.961   4.250   8.500 -1.3177  2.0390 -0.4274
   16SAPS  H18S 2072   0.981   4.419   8.480  0.0118 -0.0366 -0.2067
   16SAPS  C219 2073   1.142   4.333   8.598  1.1838  0.0356  0.2374
   16SAPS  H19R 2074   1.175   4.227   8.593 -0.3807 -0.4639 -0.1056
   16SAPS  H19S 2075   1.088   4.353   8.693  0.9656  1.3685 -0.1469
   16SAPS  C220 2076   1.251   4.431   8.587 -0.6465 -0.1169 -0.2660
   16SAPS  H20R 2077   1.292   4.425   8.484  0.3341  0.9397  0.0464
   16SAPS  H20S 2078   1.321   4.413   8.672 -1.1793 -0.2978  0.1418
   16SAPS  H20T 2079   1.205   4.531   8.605 -2.1126 -0.3858 -2.1594
   16SAPS   C33 2080   0.528   3.991   6.891  0.2663 -0.5595 -0.7454
   16SAPS   H3X 2081   0.505   4.099   6.895  1.8394 -0.2294  0.7110
   16SAPS   H3Y 2082   0.637   3.980   6.911  0.1895 -0.9769 -0.5379
   16SAPS   C34 2083   0.455   3.912   7.003  0.0558  0.0907  0.0112
   16SAPS   H4X 2084   0.518   3.830   7.044 -0.4752 -1.2695 -1.7328
   16SAPS   H4Y 2085   0.357   3.887   6.957 -0.4964  0.7680  0.7990
   16SAPS   C35 2086   0.452   4.000   7.123  0.3318 -0.0746  0.3669
   16SAPS   H5X 2087   0.400   4.094   7.092 -1.8504 -1.3549 -0.0841
   16SAPS   H5Y 2088   0.553   4.029   7.158  0.3318  0.4557 -0.0505
   16SAPS   C36 2089   0.367   3.932   7.238  0.7004  0.1570 -0.4727
   16SAPS   H6X 2090   0.398   3.832   7.275 -1.0613 -0.5659 -0.8554
   16SAPS   H6Y 2091   0.260   3.921   7.209 -0.1069  0.7438  2.0307
   16SAPS   C37 2092   0.354   4.020   7.362  0.1871  0.1696  0.4425
   16SAPS   H7X 2093   0.321   4.118   7.321  1.9417 -0.0781 -1.7714
   16SAPS   H7Y 2094   0.450   4.029   7.417  0.7022 -1.3471 -0.1636
   16SAPS   C38 2095   0.253   3.958   7.462  0.2413 -0.1574  0.5070
   16SAPS   H8X 2096   0.280   3.851   7.477  0.3162 -0.1674  0.3043
   16SAPS   H8Y 2097   0.154   3.958   7.412 -0.5376  0.9745  1.9757
   16SAPS   C39 2098   0.240   4.027   7.596  0.5173  0.0877 -0.1826
   16SAPS   H9X 2099   0.157   3.977   7.650  0.2662 -0.3113 -0.9250
   16SAPS   H9Y 2100   0.209   4.132   7.581  0.0723 -0.0196 -0.0160
   16SAPS  C310 2101   0.363   4.035   7.687  0.1659  0.6868  0.3371
   16SAPS  H10X 2102   0.413   4.132   7.666  0.6377  0.5612  0.8704
   16SAPS  H10Y 2103   0.432   3.951   7.662 -0.8141  0.2938 -1.2072
   16SAPS  C311 2104   0.329   4.031   7.838  0.1732 -0.0426 -0.5910
   16SAPS  H11X 2105   0.296   3.928   7.866 -1.7294  1.1654  1.9625
   16SAPS  H11Y 2106   0.244   4.099   7.857 -1.1081 -1.6264 -0.4286
   16SAPS  C312 2107   0.452   4.069   7.928  0.0681  0.7753 -0.0129
   16SAPS  H12X 2108   0.490   4.173   7.921 -1.2272  1.3788  1.3428
   16SAPS  H12Y 2109   0.537   4.010   7.887  0.2919  2.2558 -1.7799
   16SAPS  C313 2110   0.432   4.029   8.079  1.1495 -0.7635  0.7579
   16SAPS  H13X 2111   0.521   4.029   8.145  0.4691 -1.6370  1.7079
   16SAPS  H13Y 2112   0.395   3.925   8.091 -1.3564  0.0604  0.8335
   16SAPS  C314 2113   0.320   4.113   8.149  0.2430 -0.1751  0.1691
   16SAPS  H14X 2114   0.231   4.078   8.093 -1.2919  0.4391  2.0791
   16SAPS  H14Y 2115   0.337   4.220   8.126 -4.6869  0.5065 -1.3971
   16SAPS  C315 2116   0.301   4.085   8.300 -0.0569 -0.0128 -0.2678
   16SAPS  H15X 2117   0.352   3.989   8.324  1.9785  0.5760 -1.9084
   16SAPS  H15Y 2118   0.194   4.073   8.326 -1.0939 -0.8603 -4.2096
   16SAPS  C316 2119   0.343   4.211   8.383 -0.2171 -0.1425  0.0529
   16SAPS  H16X 2120   0.277   4.296   8.354 -1.8458 -2.2877 -3.1689
   16SAPS  H16Y 2121   0.451   4.229   8.370 -0.4535  0.6024 -0.9717
   16SAPS  C317 2122   0.337   4.184   8.535 -0.5133 -0.5927 -0.1784
   16SAPS  H17X 2123   0.390   4.092   8.567  1.5355  0.5819 -0.0267
   16SAPS  H17Y 2124   0.229   4.168   8.553 -0.8331 -0.0961 -1.6009
   16SAPS  C318 2125   0.393   4.291   8.625 -0.0245 -0.4438  0.3164
   16SAPS  H18X 2126   0.331   4.383   8.624 -3.3811 -2.5421  1.7616
   16SAPS  H18Y 2127   0.493   4.322   8.587 -0.7219  0.9432 -0.4696
   16SAPS  H18Z 2128   0.415   4.263   8.730  1.0065 -0.9752 -0.0169
   17SAPC     N 2129   6.691   3.667  10.713  0.1568 -0.1682  0.6218
   17SAPC   C12 2130   6.600   3.713  10.602  0.9180  0.1878  0.0342
   17SAPC  H12A 2131   6.626   3.813  10.571 -0.3982  0.7994  0.7990
   17SAPC  H12B 2132   6.500   3.710  10.644  1.1258 -1.3180  0.4611
   17SAPC   C13 2133   6.696   3.770  10.824  0.1885  0.3670  0.1442
   17SAPC  H13A 2134   6.756   3.855  10.795  1.4474 -0.1332  1.1873
   17SAPC  H13B 2135   6.596   3.806  10.840  0.2414  1.5968 -1.8869
   17SAPC  H13C 2136   6.739   3.726  10.913 -0.6037 -1.5594 -0.3689
   17SAPC   C14 2137   6.642   3.540  10.779  0.1993  0.4277  0.2584
   17SAPC  H14A 2138   6.716   3.509  10.851  1.1577  0.6386 -0.6063
   17SAPC  H14B 2139   6.554   3.567  10.835 -1.1932 -0.2791 -1.4878
   17SAPC  H14C 2140   6.604   3.464  10.712 -1.9889  0.2385  1.6079
   17SAPC   C15 2141   6.827   3.646  10.657 -0.0503 -0.0685 -0.5150
   17SAPC  H15A 2142   6.833   3.565  10.586  1.4673 -0.1352 -0.3496
   17SAPC  H15B 2143   6.851   3.734  10.600 -1.4994  0.3227 -0.5556
   17SAPC  H15C 2144   6.895   3.627  10.738 -0.1547  0.0073 -0.4082
   17SAPC   C11 2145   6.599   3.629  10.475  0.4615  0.8763  0.1059
   17SAPC  H11A 2146   6.704   3.627  10.440  0.5985  3.1518  0.2299
   17SAPC  H11B 2147   6.542   3.682  10.395  2.0080  1.4557 -0.6539
   17SAPC     P 2148   6.597   3.364  10.455 -0.3727  0.0056 -0.6286
   17SAPC   O13 2149   6.740   3.355  10.489 -0.7459  0.8210  0.1072
   17SAPC   O14 2150   6.499   3.260  10.508  0.4963  0.0804  0.1730
   17SAPC   O12 2151   6.543   3.503  10.512  0.0656 -0.4659 -0.2608
   17SAPC   O11 2152   6.581   3.377  10.294  0.4319  0.5989  0.3263
   17SAPC    C1 2153   6.695   3.407  10.207  0.6935 -1.1064 -0.0913
   17SAPC    HA 2154   6.787   3.405  10.269 -1.1655  0.3344  2.9444
   17SAPC    HB 2155   6.708   3.333  10.126 -1.0694 -0.2361 -1.2183
   17SAPC    C2 2156   6.666   3.539  10.136  0.6085 -0.3128 -0.0202
   17SAPC    HS 2157   6.630   3.610  10.214  0.3135  0.0442 -0.4762
   17SAPC   O21 2158   6.557   3.503  10.049  0.1313 -0.0896 -0.3270
   17SAPC   C21 2159   6.484   3.592   9.996 -0.1371 -0.0912 -0.2281
   17SAPC   O22 2160   6.502   3.715  10.009 -0.5073 -0.5202  0.9856
   17SAPC   C22 2161   6.379   3.524   9.909  0.2447 -0.3842  1.1994
   17SAPC   H2R 2162   6.332   3.452   9.979 -0.2330  0.5517  1.8589
   17SAPC   H2S 2163   6.294   3.589   9.882 -0.2651 -0.5666  2.3140
   17SAPC    C3 2164   6.782   3.598  10.052 -0.1357  0.5445 -0.0381
   17SAPC    HX 2165   6.851   3.649  10.123  1.7154  0.0197 -1.3691
   17SAPC    HY 2166   6.750   3.682   9.987 -0.8563  0.5707  0.3379
   17SAPC   O31 2167   6.856   3.483   9.991  0.3319  0.5467 -0.0185
   17SAPC   C31 2168   6.956   3.519   9.919  0.3751 -0.1817  0.3002
   17SAPC   O32 2169   7.004   3.635   9.909  0.1617  0.3304  0.0816
   17SAPC   C32 2170   7.010   3.397   9.836 -0.0751 -0.2680 -0.0243
   17SAPC   H2X 2171   6.982   3.306   9.893 -0.1301 -0.6780 -0.6966
   17SAPC   H2Y 2172   7.120   3.410   9.835 -0.0417 -0.4701  0.8197
   17SAPC   C23 2173   6.444   3.439   9.798 -0.3649  0.0968  0.5303
   17SAPC   H3R 2174   6.390   3.341   9.796 -2.5602  1.2375 -1.2850
   17SAPC   H3S 2175   6.552   3.429   9.818 -0.6505  0.5227  2.4503
   17SAPC   C24 2176   6.422   3.509   9.661 -0.1060 -0.2704 -0.8301
   17SAPC   H4R 2177   6.321   3.554   9.665 -0.4023 -0.9550 -0.3059
   17SAPC   H4S 2178   6.427   3.425   9.589 -3.1997 -0.7776 -0.5858
   17SAPC   C25 2179   6.530   3.619   9.638 -0.2891  0.4389 -0.4842
   17SAPC   H5R 2180   6.560   3.677   9.726  0.7101 -0.6318 -0.0980
   17SAPC   C26 2181   6.595   3.647   9.523 -0.1444 -0.1454 -0.0108
   17SAPC   H6R 2182   6.675   3.722   9.518 -0.6353  0.4969  1.2379
   17SAPC   C27 2183   6.561   3.577   9.391 -0.3654  0.3305 -0.1056
   17SAPC   H7R 2184   6.475   3.631   9.347  0.0720  0.1636 -1.1836
   17SAPC   H7S 2185   6.537   3.472   9.421 -0.8148  1.2744  3.3465
   17SAPC   C28 2186   6.683   3.595   9.311 -0.5359 -0.4274 -0.3243
   17SAPC   H8R 2187   6.776   3.575   9.366 -0.4149 -0.9576 -0.7133
   17SAPC   C29 2188   6.681   3.640   9.185  0.2000 -0.0404 -0.0169
   17SAPC   H9R 2189   6.775   3.650   9.128  0.3057 -0.4907  0.0790
   17SAPC  C210 2190   6.558   3.668   9.099 -0.8362 -0.0979 -0.2160
   17SAPC  H10R 2191   6.513   3.760   9.143 -0.7116 -1.9442  4.2896
   17SAPC  H10S 2192   6.489   3.583   9.116  1.7776 -1.8725  2.8033
   17SAPC  C211 2193   6.584   3.664   8.948  0.3450  0.2352  0.5757
   17SAPC  H11R 2194   6.653   3.584   8.918 -0.3987 -0.8047  1.5674
   17SAPC  C212 2195   6.535   3.753   8.858 -0.2371 -0.7881  0.5901
   17SAPC  H12R 2196   6.569   3.747   8.753 -0.5442  0.6302  0.3860
   17SAPC  C213 2197   6.445   3.871   8.875  0.0495  0.0606 -0.0003
   17SAPC  H13R 2198   6.377   3.845   8.959  0.0466  0.1955  0.0387
   17SAPC  H13S 2199   6.376   3.872   8.788  1.8906 -0.0640 -1.5308
   17SAPC  C214 2200   6.494   4.012   8.903  0.2275  0.7273 -0.1364
   17SAPC  H14R 2201   6.507   4.033   9.010  0.4216 -0.6338  0.1317
   17SAPC  C215 2202   6.531   4.106   8.808 -0.2104  0.0506  0.6751
   17SAPC  H15R 2203   6.564   4.206   8.838 -0.0047  0.5746 -1.1649
   17SAPC  C216 2204   6.536   4.080   8.656  0.0214  0.0277  0.4374
   17SAPC  H16R 2205   6.540   3.972   8.632  1.2588  0.3911 -1.1971
   17SAPC  H16S 2206   6.635   4.112   8.615 -1.0240  1.2975 -1.2265
   17SAPC  C217 2207   6.422   4.137   8.573  0.2846 -0.6191  0.4248
   17SAPC  H17R 2208   6.420   4.245   8.601  2.9210  0.3476 -2.5101
   17SAPC  H17S 2209   6.326   4.088   8.601  0.1596 -0.5751  0.0788
   17SAPC  C218 2210   6.437   4.119   8.416 -0.4831 -0.3357 -0.0657
   17SAPC  H18R 2211   6.533   4.174   8.405 -0.7253  0.5674  1.8722
   17SAPC  H18S 2212   6.358   4.165   8.354  0.9934  0.2234 -1.6121
   17SAPC  C219 2213   6.450   3.978   8.365  0.0846  0.1952  0.5455
   17SAPC  H19R 2214   6.365   3.929   8.417 -1.2602  2.2181  0.3360
   17SAPC  H19S 2215   6.544   3.926   8.392  0.3637  1.0547  1.2628
   17SAPC  C220 2216   6.431   3.959   8.210 -0.4131  0.5262  0.5672
   17SAPC  H20R 2217   6.329   3.996   8.185  0.1519  2.5356  1.0598
   17SAPC  H20S 2218   6.434   3.849   8.197 -0.6563  0.6902 -1.0821
   17SAPC  H20T 2219   6.509   4.009   8.149 -2.6599  1.5689 -1.6579
   17SAPC   C33 2220   6.950   3.417   9.699  0.2790 -0.2362  1.3605
   17SAPC   H3X 2221   6.966   3.520   9.660 -1.2055 -1.0563 -1.7407
   17SAPC   H3Y 2222   6.840   3.406   9.709  0.4554 -2.1675  1.3901
   17SAPC   C34 2223   7.012   3.315   9.591  0.3225  0.3021 -1.2145
   17SAPC   H4X 2224   6.973   3.214   9.616  0.6497  0.2705 -0.8377
   17SAPC   H4Y 2225   7.123   3.310   9.594  0.3095 -2.0948 -2.1692
   17SAPC   C35 2226   6.977   3.346   9.450 -0.3398  0.2366  0.6143
   17SAPC   H5X 2227   7.014   3.450   9.438 -0.7878  0.4152  0.7819
   17SAPC   H5Y 2228   6.868   3.351   9.430 -0.2773 -0.5241  0.0142
   17SAPC   C36 2229   7.054   3.239   9.354  0.0123  0.4376  0.4721
   17SAPC   H6X 2230   6.995   3.234   9.260  0.6304 -1.4851  0.1374
   17SAPC   H6Y 2231   7.050   3.140   9.404  0.1677 -0.6989 -1.6421
   17SAPC   C37 2232   7.199   3.276   9.316  0.7542  0.1034 -0.8325
   17SAPC   H7X 2233   7.241   3.178   9.286 -2.7664 -2.5064  1.9678
   17SAPC   H7Y 2234   7.252   3.300   9.411 -2.8461 -1.3941  1.7616
   17SAPC   C38 2235   7.215   3.395   9.214  0.0200  0.1900  0.7615
   17SAPC   H8X 2236   7.319   3.431   9.231  0.3126 -0.0486 -0.4406
   17SAPC   H8Y 2237   7.142   3.469   9.254 -0.1022 -0.0123  0.9097
   17SAPC   C39 2238   7.189   3.368   9.068 -0.2227 -0.5607  0.2844
   17SAPC   H9X 2239   7.084   3.342   9.045 -0.9663  2.8126 -0.8326
   17SAPC   H9Y 2240   7.260   3.284   9.052 -0.9639 -0.7831 -2.4051
   17SAPC  C310 2241   7.228   3.484   8.980 -0.0497 -0.1546 -0.4157
   17SAPC  H10X 2242   7.331   3.522   9.000  0.0407 -0.9033  0.6126
   17SAPC  H10Y 2243   7.163   3.566   9.018  0.1710  0.6656 -1.7345
   17SAPC  C311 2244   7.227   3.458   8.827  0.1288  0.1684  0.3016
   17SAPC  H11X 2245   7.300   3.377   8.810  0.1771 -0.3438  2.5803
   17SAPC  H11Y 2246   7.268   3.550   8.779 -1.1406  0.4304 -0.3337
   17SAPC  C312 2247   7.088   3.428   8.776  0.7423  0.3504  0.0656
   17SAPC  H12X 2248   7.021   3.516   8.788  0.2693  0.2190 -1.4024
   17SAPC  H12Y 2249   7.062   3.340   8.839 -0.3465  0.7044  0.1328
   17SAPC  C313 2250   7.072   3.385   8.632 -0.3024  0.7694 -0.7330
   17SAPC  H13X 2251   7.131   3.292   8.620  0.0908  0.9718 -0.3996
   17SAPC  H13Y 2252   7.138   3.452   8.572  2.2424 -0.5263  0.4498
   17SAPC  C314 2253   6.934   3.370   8.585  0.2673 -0.2817 -0.2952
   17SAPC  H14X 2254   6.876   3.462   8.610  0.6686  0.0150 -0.4453
   17SAPC  H14Y 2255   6.891   3.300   8.660  0.5679  0.5567  0.6747
   17SAPC  C315 2256   6.920   3.331   8.439  0.3850  0.6232 -0.0322
   17SAPC  H15X 2257   6.972   3.234   8.426 -1.9292 -0.7814  0.7143
   17SAPC  H15Y 2258   6.964   3.407   8.370  0.4934  1.4331  0.9108
   17SAPC  C316 2259   6.769   3.301   8.412 -0.3312  1.1597 -0.4750
   17SAPC  H16X 2260   6.724   3.242   8.494  2.1890  1.5367  1.3172
   17SAPC  H16Y 2261   6.776   3.236   8.322  1.0688  3.8348 -2.4559
   17SAPC  C317 2262   6.692   3.429   8.393  0.9926  0.4706 -0.1300
   17SAPC  H17X 2263   6.749   3.498   8.328 -1.4465  3.6023  0.7796
   17SAPC  H17Y 2264   6.676   3.475   8.494  0.0367 -0.0099 -0.0508
   17SAPC  C318 2265   6.552   3.413   8.336  0.1674  0.1241 -0.7516
   17SAPC  H18X 2266   6.494   3.503   8.308  0.9165  0.7973 -0.1929
   17SAPC  H18Y 2267   6.557   3.340   8.252 -0.9213 -1.9347  0.8634
   17SAPC  H18Z 2268   6.490   3.358   8.411  1.7208  0.5118  0.9028
   18SAPC     N 2269   6.478   5.091  10.638 -0.0049 -0.2457 -0.5786
   18SAPC   C12 2270   6.463   5.114  10.488  0.0702  0.1022  0.0001
   18SAPC  H12A 2271   6.459   5.218  10.460 -0.9690 -0.1068 -0.6689
   18SAPC  H12B 2272   6.367   5.075  10.458 -0.2573 -0.4571  1.7031
   18SAPC   C13 2273   6.372   5.160  10.717 -0.2466 -0.4397  0.3889
   18SAPC  H13A 2274   6.380   5.266  10.701  0.7730 -0.4192  0.9236
   18SAPC  H13B 2275   6.271   5.129  10.693  0.1692 -1.2808 -0.3110
   18SAPC  H13C 2276   6.370   5.145  10.824 -1.4970  0.6672  0.5536
   18SAPC   C14 2277   6.483   4.945  10.673  1.2144  0.0600 -0.3214
   18SAPC  H14A 2278   6.385   4.901  10.667  3.0380 -4.4948 -0.3625
   18SAPC  H14B 2279   6.550   4.886  10.613  0.1801 -1.5796  0.0870
   18SAPC  H14C 2280   6.521   4.936  10.774  0.3643 -1.3620 -0.1055
   18SAPC   C15 2281   6.607   5.163  10.688  0.4265  0.4947  0.0866
   18SAPC  H15A 2282   6.629   5.140  10.791 -1.1201 -0.6690  0.1979
   18SAPC  H15B 2283   6.691   5.136  10.627 -0.4104 -0.7463 -0.5608
   18SAPC  H15C 2284   6.605   5.271  10.680 -0.3865  0.6064  1.4685
   18SAPC   C11 2285   6.573   5.060  10.398  0.7383 -0.0198 -0.4507
   18SAPC  H11A 2286   6.669   5.111  10.420  0.3090  0.4826  0.2998
   18SAPC  H11B 2287   6.544   5.073  10.291  1.0184 -0.1902 -0.5493
   18SAPC     P 2288   6.732   4.855  10.379  0.0967 -0.5608 -0.5103
   18SAPC   O13 2289   6.833   4.939  10.438  0.4920 -0.3448  0.0513
   18SAPC   O14 2290   6.720   4.717  10.433 -0.6554  0.1932  0.5507
   18SAPC   O12 2291   6.585   4.915  10.408  0.1219 -0.6731  0.2066
   18SAPC   O11 2292   6.732   4.848  10.221 -0.2547 -1.0211  1.3141
   18SAPC    C1 2293   6.643   4.754  10.161 -0.1042 -0.3850  0.4909
   18SAPC    HA 2294   6.545   4.763  10.214 -0.1481  1.0669  0.2084
   18SAPC    HB 2295   6.627   4.796  10.059  0.4537  1.4000  1.0932
   18SAPC    C2 2296   6.693   4.601  10.158  1.4217 -0.3829  0.2612
   18SAPC    HS 2297   6.724   4.579  10.262 -0.4441  1.6214  1.3263
   18SAPC   O21 2298   6.805   4.587  10.076 -0.9326  0.1705  0.8794
   18SAPC   C21 2299   6.883   4.484  10.106 -0.0174 -0.2129  0.5832
   18SAPC   O22 2300   6.869   4.405  10.199  0.0889  0.1114 -0.8730
   18SAPC   C22 2301   6.988   4.479   9.988  0.7076 -0.5956 -0.8099
   18SAPC   H2R 2302   6.992   4.369   9.973 -1.4977 -0.5982 -1.7650
   18SAPC   H2S 2303   6.949   4.533   9.900 -0.6302 -0.7818 -0.3579
   18SAPC    C3 2304   6.580   4.507  10.112 -0.8453 -0.6374 -0.1113
   18SAPC    HX 2305   6.492   4.542  10.171  0.2761 -0.2588  1.4112
   18SAPC    HY 2306   6.605   4.401  10.137 -2.3746 -0.5606  2.0887
   18SAPC   O31 2307   6.541   4.532   9.975 -0.1691  0.3148  1.2201
   18SAPC   C31 2308   6.593   4.440   9.885 -0.3254  0.1166 -0.5582
   18SAPC   O32 2309   6.668   4.350   9.914 -0.8007 -0.1779  0.2579
   18SAPC   C32 2310   6.549   4.474   9.740  0.8275  0.2835 -0.2854
   18SAPC   H2X 2311   6.549   4.583   9.719  0.9099  0.7570  1.9413
   18SAPC   H2Y 2312   6.443   4.440   9.735  0.6564  0.8006 -0.2264
   18SAPC   C23 2313   7.127   4.530  10.022 -0.2158  0.2749  0.5846
   18SAPC   H3R 2314   7.148   4.520  10.131 -2.1662 -2.4511  0.7965
   18SAPC   H3S 2315   7.144   4.635   9.989 -0.9300 -0.5782 -2.8157
   18SAPC   C24 2316   7.228   4.439   9.955 -0.2265 -0.5566  0.9226
   18SAPC   H4R 2317   7.194   4.334   9.961 -3.0082  0.2746  1.2530
   18SAPC   H4S 2318   7.328   4.454  10.002 -0.6687  1.2144  1.3771
   18SAPC   C25 2319   7.218   4.460   9.806  1.2496  0.2414 -0.5167
   18SAPC   H5R 2320   7.125   4.429   9.756  1.6769 -2.4602  0.1991
   18SAPC   C26 2321   7.303   4.542   9.742  0.0187  0.5809  0.2115
   18SAPC   H6R 2322   7.293   4.550   9.633  0.5697 -0.3368  0.0801
   18SAPC   C27 2323   7.433   4.610   9.785 -0.6327  0.0336  0.0117
   18SAPC   H7R 2324   7.512   4.604   9.706 -1.9489 -0.5690 -1.3154
   18SAPC   H7S 2325   7.473   4.551   9.870  1.7092  0.2895 -0.8189
   18SAPC   C28 2326   7.406   4.749   9.826  0.3454 -0.4519 -0.0492
   18SAPC   H8R 2327   7.356   4.776   9.919  3.4921  1.6747  1.1892
   18SAPC   C29 2328   7.464   4.853   9.763 -0.9230  0.3008  0.2103
   18SAPC   H9R 2329   7.454   4.948   9.817  1.5026  0.5484  0.3383
   18SAPC  C210 2330   7.565   4.847   9.651 -1.1994 -0.4905  0.2376
   18SAPC  H10R 2331   7.518   4.789   9.568 -0.3112 -1.6282  0.4984
   18SAPC  H10S 2332   7.643   4.781   9.695  0.0298  0.3890 -0.5504
   18SAPC  C211 2333   7.624   4.982   9.609  0.3916 -0.3980  0.2466
   18SAPC  H11R 2334   7.709   5.020   9.667  0.2442  0.5963 -0.1739
   18SAPC  C212 2335   7.590   5.061   9.509  0.0189 -0.3314  0.2014
   18SAPC  H12R 2336   7.641   5.158   9.499  1.3550 -1.0001  0.2472
   18SAPC  C213 2337   7.468   5.039   9.416  0.3230 -0.2261  0.2870
   18SAPC  H13R 2338   7.453   5.132   9.357  1.1426  2.0625  3.3964
   18SAPC  H13S 2339   7.380   5.012   9.479  0.1432  2.5519  1.3791
   18SAPC  C214 2340   7.492   4.924   9.321  0.6683  0.3076  0.4887
   18SAPC  H14R 2341   7.481   4.827   9.371 -0.9507  0.1591 -0.1099
   18SAPC  C215 2342   7.523   4.926   9.194 -0.2065  0.4260 -0.0493
   18SAPC  H15R 2343   7.528   4.825   9.151 -4.0017 -1.4204  3.2239
   18SAPC  C216 2344   7.551   5.047   9.110  0.9352  0.4054 -0.3352
   18SAPC  H16R 2345   7.657   5.077   9.107  0.9471  0.2672 -2.4634
   18SAPC  H16S 2346   7.482   5.128   9.142  0.2521 -0.1275 -0.4341
   18SAPC  C217 2347   7.526   5.009   8.964 -0.6255 -1.0742 -0.0146
   18SAPC  H17R 2348   7.418   5.017   8.942 -0.1544 -0.0401 -2.2136
   18SAPC  H17S 2349   7.574   4.913   8.935 -2.2704 -2.4429  1.5561
   18SAPC  C218 2350   7.579   5.123   8.867 -1.1669 -0.4357 -0.0231
   18SAPC  H18R 2351   7.593   5.081   8.765  3.0695 -0.5325  0.4465
   18SAPC  H18S 2352   7.676   5.169   8.893  1.0870 -2.9376 -3.1979
   18SAPC  C219 2353   7.483   5.244   8.860  0.2980 -0.5588  0.4842
   18SAPC  H19R 2354   7.455   5.284   8.960 -0.7636 -0.2819  0.0838
   18SAPC  H19S 2355   7.389   5.205   8.815  1.2089 -1.3509 -0.7976
   18SAPC  C220 2356   7.542   5.361   8.781 -0.5925  0.4405 -0.0527
   18SAPC  H20R 2357   7.590   5.314   8.692 -3.1535  0.9550 -1.7994
   18SAPC  H20S 2358   7.617   5.416   8.842 -1.2883  0.6414  0.6271
   18SAPC  H20T 2359   7.462   5.432   8.753 -0.5238  2.0012  3.2476
   18SAPC   C33 2360   6.620   4.390   9.630 -0.2353 -0.2895 -0.1157
   18SAPC   H3X 2361   6.615   4.281   9.650 -2.0637  0.0519  1.5909
   18SAPC   H3Y 2362   6.728   4.415   9.638 -0.3928 -0.0756  1.8597
   18SAPC   C34 2363   6.567   4.429   9.492  0.3431  0.0141  0.2603
   18SAPC   H4X 2364   6.587   4.538   9.485 -0.5800  0.4003  2.6334
   18SAPC   H4Y 2365   6.457   4.412   9.487  0.2164  1.0993 -3.0519
   18SAPC   C35 2366   6.638   4.344   9.383  0.2220  0.5868 -0.1158
   18SAPC   H5X 2367   6.592   4.243   9.377  3.4961 -1.0515  0.4606
   18SAPC   H5Y 2368   6.743   4.323   9.414 -0.0880 -0.0362  0.5558
   18SAPC   C36 2369   6.641   4.413   9.245 -0.1575  0.5479  0.3710
   18SAPC   H6X 2370   6.700   4.506   9.261 -0.1952  0.5511  0.4946
   18SAPC   H6Y 2371   6.534   4.431   9.220 -0.1759 -0.1936 -0.0912
   18SAPC   C37 2372   6.725   4.326   9.140 -0.6331  0.4147  0.1887
   18SAPC   H7X 2373   6.667   4.232   9.136 -1.2445  0.8254 -0.9282
   18SAPC   H7Y 2374   6.826   4.311   9.185 -0.8246 -0.8654  0.2156
   18SAPC   C38 2375   6.724   4.388   8.998  0.0319  0.5187 -0.1761
   18SAPC   H8X 2376   6.772   4.488   8.996 -0.2235  0.8519  3.2075
   18SAPC   H8Y 2377   6.618   4.391   8.967 -0.5350 -0.1069  1.5845
   18SAPC   C39 2378   6.800   4.306   8.889  0.0017 -0.0198  0.2142
   18SAPC   H9X 2379   6.761   4.204   8.909 -0.7522  0.3715  0.7567
   18SAPC   H9Y 2380   6.905   4.321   8.924 -0.4336 -1.7177  2.4633
   18SAPC  C310 2381   6.770   4.357   8.752  0.5073  0.0904 -0.3346
   18SAPC  H10X 2382   6.671   4.405   8.740 -0.9252 -2.7131 -0.6051
   18SAPC  H10Y 2383   6.770   4.271   8.681 -2.0073  0.0362 -0.3569
   18SAPC  C311 2384   6.870   4.466   8.713 -0.1854  0.0279 -0.9508
   18SAPC  H11X 2385   6.972   4.444   8.751 -0.7825  0.5927  1.0931
   18SAPC  H11Y 2386   6.832   4.557   8.764 -0.0831 -0.3701 -0.1338
   18SAPC  C312 2387   6.875   4.485   8.567 -0.0207 -0.2467  0.0703
   18SAPC  H12X 2388   6.771   4.499   8.531  0.2119  1.4208 -0.0524
   18SAPC  H12Y 2389   6.923   4.394   8.524  1.2390  1.1711 -1.6845
   18SAPC  C313 2390   6.968   4.602   8.529  0.4566  0.0412  0.7159
   18SAPC  H13X 2391   7.073   4.593   8.562 -0.2829 -3.4297  2.5977
   18SAPC  H13Y 2392   6.920   4.686   8.583 -0.5560 -0.2869  0.3518
   18SAPC  C314 2393   6.949   4.641   8.384 -0.2036 -0.3301 -0.2150
   18SAPC  H14X 2394   6.842   4.647   8.357 -0.4019 -3.6604 -0.5327
   18SAPC  H14Y 2395   6.988   4.550   8.335 -0.2902  0.3052 -1.5043
   18SAPC  C315 2396   7.040   4.760   8.346  0.7335 -0.3898 -0.0358
   18SAPC  H15X 2397   7.144   4.735   8.375  0.3743  0.1639  1.8524
   18SAPC  H15Y 2398   7.009   4.836   8.420  0.2864 -0.0740 -0.5360
   18SAPC  C316 2399   7.021   4.815   8.199  0.4574 -0.5051 -0.2742
   18SAPC  H16X 2400   6.914   4.825   8.171  0.4439  1.6742  0.3850
   18SAPC  H16Y 2401   7.055   4.740   8.125 -2.3468 -2.9762  0.7534
   18SAPC  C317 2402   7.092   4.959   8.183  0.0434  0.0536 -0.2257
   18SAPC  H17X 2403   7.200   4.956   8.210  0.3645  1.8749 -1.1801
   18SAPC  H17Y 2404   7.057   5.027   8.264 -0.2720 -2.0600  1.5040
   18SAPC  C318 2405   7.070   5.008   8.042 -0.0770  0.5976  0.1744
   18SAPC  H18X 2406   6.975   5.060   8.018  0.3932  0.7016 -1.5868
   18SAPC  H18Y 2407   7.082   4.918   7.978 -0.7835  0.4191  0.2837
   18SAPC  H18Z 2408   7.159   5.066   8.008  0.9927 -1.8066 -1.3946
   19SAPC     N 2409   0.372   1.173  10.829  0.2953  0.7977  0.1015
   19SAPC   C12 2410   0.224   1.182  10.868  0.0946  0.2010  0.6032
   19SAPC  H12A 2411   0.226   1.212  10.972 -1.6787 -0.1803  0.7874
   19SAPC  H12B 2412   0.190   1.080  10.861  0.8205 -0.0933  1.2521
   19SAPC   C13 2413   0.438   1.307  10.842  0.2341 -0.0393 -0.1818
   19SAPC  H13A 2414   0.441   1.338  10.945  1.7977  0.2115 -0.2786
   19SAPC  H13B 2415   0.544   1.317  10.823  0.6410  0.5571  2.1461
   19SAPC  H13C 2416   0.383   1.385  10.791  0.2575 -0.0773 -0.2669
   19SAPC   C14 2417   0.437   1.070  10.916  0.7523  0.2853 -0.4151
   19SAPC  H14A 2418   0.386   0.976  10.907  3.1615 -1.2837  1.0299
   19SAPC  H14B 2419   0.543   1.059  10.899  0.8609 -1.0148  0.9357
   19SAPC  H14C 2420   0.423   1.094  11.020  1.1825  0.1571 -0.3250
   19SAPC   C15 2421   0.387   1.119  10.689 -0.2202  0.3060 -0.0056
   19SAPC  H15A 2422   0.334   1.165  10.607 -1.2311 -2.1080 -0.7776
   19SAPC  H15B 2423   0.489   1.110  10.654 -0.8056 -2.0783 -1.3080
   19SAPC  H15C 2424   0.352   1.017  10.683 -0.3783  0.2495  1.5489
   19SAPC   C11 2425   0.127   1.275  10.789 -0.0857  0.1353  0.1519
   19SAPC  H11A 2426   0.023   1.258  10.823 -0.3076  2.1066  0.6337
   19SAPC  H11B 2427   0.137   1.253  10.681 -0.8905 -0.9937  0.2894
   19SAPC     P 2428   0.106   1.541  10.732 -0.1767  0.2036  0.3072
   19SAPC   O13 2429  -0.041   1.527  10.729 -0.1620  0.0413 -0.1468
   19SAPC   O14 2430   0.171   1.662  10.803  0.2169  0.7325  0.3177
   19SAPC   O12 2431   0.162   1.413  10.804 -0.0444  0.3394  0.2565
   19SAPC   O11 2432   0.159   1.528  10.583 -0.6220  0.5375 -0.2585
   19SAPC    C1 2433   0.287   1.577  10.541  0.5685 -0.4449 -0.1579
   19SAPC    HA 2434   0.294   1.687  10.555 -0.7093 -0.3777  0.1040
   19SAPC    HB 2435   0.369   1.537  10.605 -0.7552  0.3215  2.1384
   19SAPC    C2 2436   0.316   1.538  10.390 -0.5036 -0.6780  0.0995
   19SAPC    HS 2437   0.411   1.591  10.369 -0.8626  0.1450  0.5183
   19SAPC   O21 2438   0.206   1.571  10.304 -0.3492  0.1810  0.0318
   19SAPC   C21 2439   0.199   1.706  10.282 -0.3058  0.0658  0.0776
   19SAPC   O22 2440   0.274   1.788  10.339 -0.0675  0.2419  0.3389
   19SAPC   C22 2441   0.081   1.744  10.190 -0.1227 -0.1720 -0.2999
   19SAPC   H2R 2442   0.076   1.664  10.114 -0.4671  0.7846 -1.3086
   19SAPC   H2S 2443  -0.012   1.741  10.251 -0.5772  0.8480 -0.9128
   19SAPC    C3 2444   0.341   1.383  10.382 -0.2365 -0.5886 -0.4684
   19SAPC    HX 2445   0.243   1.337  10.405 -0.0224  0.1451  2.2616
   19SAPC    HY 2446   0.407   1.353  10.465  1.7919 -2.2853 -2.5739
   19SAPC   O31 2447   0.401   1.357  10.253 -0.4253 -0.0221  0.4639
   19SAPC   C31 2448   0.421   1.225  10.237 -0.6485 -0.6146  0.2207
   19SAPC   O32 2449   0.395   1.140  10.319  0.3530  0.6493 -0.1541
   19SAPC   C32 2450   0.494   1.210  10.105 -0.1459  0.4155 -0.3720
   19SAPC   H2X 2451   0.599   1.177  10.123 -0.5448 -0.8425 -0.2469
   19SAPC   H2Y 2452   0.505   1.310  10.059  2.3743  1.7220  2.6715
   19SAPC   C23 2453   0.101   1.882  10.121  0.0523  0.5646  0.0866
   19SAPC   H3R 2454   0.208   1.889  10.090 -0.0554  1.3164 -0.1320
   19SAPC   H3S 2455   0.086   1.956  10.202 -0.5879  0.7754 -0.2250
   19SAPC   C24 2456   0.004   1.888  10.000 -0.1506 -0.0312 -0.0562
   19SAPC   H4R 2457  -0.017   1.990   9.961  0.9145  0.8605  1.6071
   19SAPC   H4S 2458  -0.096   1.859  10.039  0.6198 -0.6586  1.5133
   19SAPC   C25 2459   0.031   1.794   9.889  0.2984 -0.4741  0.6716
   19SAPC   H5R 2460   0.094   1.708   9.918 -0.6377 -1.1414  0.7938
   19SAPC   C26 2461  -0.003   1.804   9.761 -0.0113  0.1174 -0.3392
   19SAPC   H6R 2462   0.020   1.722   9.691  2.1140 -0.9976  1.5634
   19SAPC   C27 2463  -0.082   1.916   9.691  0.6030  0.0024 -0.0973
   19SAPC   H7R 2464  -0.035   1.926   9.591 -0.6736 -0.6354 -0.7831
   19SAPC   H7S 2465  -0.078   2.014   9.742 -0.0589  0.1961 -0.4127
   19SAPC   C28 2466  -0.224   1.873   9.674 -0.7580 -0.5378 -0.2908
   19SAPC   H8R 2467  -0.286   1.897   9.762  1.2853 -1.4444  1.5100
   19SAPC   C29 2468  -0.285   1.824   9.565 -0.5495  0.3463 -0.2799
   19SAPC   H9R 2469  -0.394   1.811   9.568 -0.5391 -0.2516 -1.6419
   19SAPC  C210 2470  -0.230   1.784   9.432 -0.2484 -0.4111 -0.3053
   19SAPC  H10R 2471  -0.297   1.705   9.390 -1.5095  2.1913 -3.6447
   19SAPC  H10S 2472  -0.131   1.738   9.448  0.3470  0.6109 -0.9488
   19SAPC  C211 2473  -0.206   1.897   9.333 -0.1890 -0.1365 -0.0228
   19SAPC  H11R 2474  -0.186   1.996   9.377  2.1422  0.4518 -2.1869
   19SAPC  C212 2475  -0.193   1.883   9.199 -0.1380  0.3955 -0.0155
   19SAPC  H12R 2476  -0.176   1.966   9.128  1.8516 -0.5906 -0.7509
   19SAPC  C213 2477  -0.201   1.759   9.120 -0.3398  0.0824 -0.1274
   19SAPC  H13R 2478  -0.170   1.780   9.016 -1.3054 -0.9132 -0.6381
   19SAPC  H13S 2479  -0.304   1.719   9.115  0.3775 -2.3328  1.9829
   19SAPC  C214 2480  -0.114   1.646   9.170  0.1841 -0.1660  0.4043
   19SAPC  H14R 2481  -0.148   1.596   9.263  4.5776 -2.5521  1.0022
   19SAPC  C215 2482  -0.010   1.591   9.110 -0.8632  0.2173 -0.2592
   19SAPC  H15R 2483   0.034   1.509   9.169 -3.8807 -0.7883  0.7558
   19SAPC  C216 2484   0.057   1.625   8.975 -0.1151  0.0302  0.4066
   19SAPC  H16R 2485   0.159   1.586   8.959  0.6383  2.2420 -0.5861
   19SAPC  H16S 2486   0.070   1.735   8.977 -1.2326  0.1748  1.8899
   19SAPC  C217 2487  -0.040   1.590   8.861 -0.3159  0.6651  0.0265
   19SAPC  H17R 2488  -0.137   1.643   8.872 -0.8222 -0.0684 -0.7888
   19SAPC  H17S 2489  -0.060   1.481   8.849  0.6228  0.6251 -1.3966
   19SAPC  C218 2490   0.003   1.646   8.721 -0.3568  0.3745  0.4401
   19SAPC  H18R 2491   0.076   1.569   8.686  0.3887  0.6176  1.4098
   19SAPC  H18S 2492   0.060   1.740   8.736  0.8652 -0.2613 -0.0964
   19SAPC  C219 2493  -0.109   1.643   8.626 -0.2553 -0.5329 -0.7288
   19SAPC  H19R 2494  -0.183   1.713   8.671 -0.2312 -1.0382  0.1081
   19SAPC  H19S 2495  -0.148   1.542   8.602 -2.6737  0.5131 -1.5698
   19SAPC  C220 2496  -0.067   1.714   8.497 -0.5374  0.2161 -0.1537
   19SAPC  H20R 2497  -0.151   1.713   8.425 -2.6948  0.0983  2.2210
   19SAPC  H20S 2498   0.029   1.664   8.473  0.3233  0.8735  1.7390
   19SAPC  H20T 2499  -0.056   1.823   8.514 -1.2812  0.2491  0.1548
   19SAPC   C33 2500   0.442   1.101  10.021 -0.9320  0.4390  0.3818
   19SAPC   H3X 2501   0.334   1.101   9.997 -1.4560  2.7894  2.3550
   19SAPC   H3Y 2502   0.458   1.005  10.075 -1.9252 -0.1209 -0.3021
   19SAPC   C34 2503   0.517   1.111   9.882 -0.2391  0.5251  0.0384
   19SAPC   H4X 2504   0.626   1.105   9.901 -0.2408  1.5785  0.4132
   19SAPC   H4Y 2505   0.491   1.209   9.835  1.6845  1.1652  0.2298
   19SAPC   C35 2506   0.497   1.002   9.780 -0.4675  0.5297 -0.3684
   19SAPC   H5X 2507   0.395   1.006   9.735  1.1764 -2.7675 -5.2446
   19SAPC   H5Y 2508   0.498   0.899   9.822  0.8359 -0.6023 -2.9765
   19SAPC   C36 2509   0.605   1.005   9.663  0.2913  0.3053  0.2706
   19SAPC   H6X 2510   0.617   0.910   9.606 -0.9802 -0.1992  0.7943
   19SAPC   H6Y 2511   0.693   1.035   9.723 -0.1759  1.1417  0.5480
   19SAPC   C37 2512   0.563   1.104   9.555  0.5036 -0.3862 -0.4732
   19SAPC   H7X 2513   0.524   1.198   9.599 -0.7822 -0.9631 -0.3240
   19SAPC   H7Y 2514   0.474   1.066   9.500 -1.5578  1.3703  1.4903
   19SAPC   C38 2515   0.684   1.127   9.451  0.1376  0.1251 -0.1520
   19SAPC   H8X 2516   0.713   1.031   9.404 -0.7904 -0.2306 -0.0138
   19SAPC   H8Y 2517   0.768   1.162   9.514 -0.0041 -0.2561  0.2535
   19SAPC   C39 2518   0.654   1.224   9.339 -0.1912  0.0828  0.0384
   19SAPC   H9X 2519   0.633   1.327   9.375  0.1292  1.3000 -2.9602
   19SAPC   H9Y 2520   0.562   1.182   9.293 -0.8393 -0.8895  2.1034
   19SAPC  C310 2521   0.779   1.238   9.244 -0.2740 -0.1497  0.0371
   19SAPC  H10X 2522   0.834   1.142   9.236  2.4242  1.2252  0.9966
   19SAPC  H10Y 2523   0.842   1.304   9.307 -1.7340  0.1168  1.2702
   19SAPC  C311 2524   0.773   1.295   9.099  0.3453  0.4446 -0.0678
   19SAPC  H11X 2525   0.738   1.401   9.102 -0.7512  0.1515 -1.8274
   19SAPC  H11Y 2526   0.709   1.233   9.033  0.4023 -0.4183  0.6705
   19SAPC  C312 2527   0.904   1.305   9.021  0.2248  0.6527  0.2557
   19SAPC  H12X 2528   0.945   1.202   9.005  0.4503  0.9070 -0.8817
   19SAPC  H12Y 2529   0.982   1.362   9.075  0.8798  0.2372 -0.2297
   19SAPC  C313 2530   0.901   1.358   8.875 -0.4801  0.1050  0.3789
   19SAPC  H13X 2531   1.006   1.375   8.842 -0.1359 -1.0379  0.8371
   19SAPC  H13Y 2532   0.853   1.458   8.876 -0.1712  0.2555  0.2403
   19SAPC  C314 2533   0.824   1.272   8.773  1.0566 -0.5635 -0.0166
   19SAPC  H14X 2534   0.813   1.167   8.806 -0.3288 -0.3720  0.1810
   19SAPC  H14Y 2535   0.895   1.266   8.688 -0.2388  1.1520 -1.3071
   19SAPC  C315 2536   0.682   1.331   8.731 -0.0303  0.2650 -0.2941
   19SAPC  H15X 2537   0.699   1.425   8.675  1.5728  0.3295  0.2461
   19SAPC  H15Y 2538   0.620   1.349   8.821  0.1204  2.5293 -0.5941
   19SAPC  C316 2539   0.603   1.240   8.644 -0.8540 -0.3772  0.0099
   19SAPC  H16X 2540   0.659   1.187   8.564  0.0574 -0.6733  0.8172
   19SAPC  H16Y 2541   0.536   1.310   8.591  1.4087  2.8931  1.1669
   19SAPC  C317 2542   0.539   1.120   8.721 -0.1869 -0.3739 -0.1404
   19SAPC  H17X 2543   0.454   1.153   8.785  0.7111 -0.2778  1.0450
   19SAPC  H17Y 2544   0.615   1.068   8.784 -0.6149 -1.3886 -0.4288
   19SAPC  C318 2545   0.480   1.016   8.619 -0.2196  0.0485  0.0594
   19SAPC  H18X 2546   0.534   1.009   8.522  0.7316 -1.2560  0.6560
   19SAPC  H18Y 2547   0.374   1.047   8.608 -0.2640 -0.0028  0.3519
   19SAPC  H18Z 2548   0.464   0.918   8.668  1.1388 -0.8856 -1.3050
   20SAPC     N 2549   5.478   0.963  11.424  0.3404 -0.0724  0.3547
   20SAPC   C12 2550   5.374   0.987  11.316 -0.1170  0.6233  0.4787
   20SAPC  H12A 2551   5.303   1.062  11.347  1.1935  3.0484 -1.9606
   20SAPC  H12B 2552   5.327   0.891  11.300  0.1307  0.6493 -0.4596
   20SAPC   C13 2553   5.571   1.081  11.438  0.8876 -0.3587  0.1967
   20SAPC  H13A 2554   5.628   1.089  11.346 -1.3453 -0.2463 -1.2700
   20SAPC  H13B 2555   5.530   1.177  11.465 -0.9185 -1.5911  2.1371
   20SAPC  H13C 2556   5.639   1.065  11.520  0.3976  0.3995  0.7659
   20SAPC   C14 2557   5.421   0.931  11.563  0.5366  0.1113 -0.1261
   20SAPC  H14A 2558   5.390   0.828  11.568  1.9415 -0.4888 -2.2507
   20SAPC  H14B 2559   5.497   0.938  11.639  0.1513 -1.9884  0.5158
   20SAPC  H14C 2560   5.337   0.991  11.597 -0.1240 -1.3469  0.9313
   20SAPC   C15 2561   5.565   0.843  11.400  0.2512  0.1203 -0.0808
   20SAPC  H15A 2562   5.614   0.858  11.305 -1.4593 -1.0973 -1.2032
   20SAPC  H15B 2563   5.634   0.835  11.483 -0.7087  1.8580  0.9284
   20SAPC  H15C 2564   5.509   0.753  11.378  1.5426 -1.1647  1.5933
   20SAPC   C11 2565   5.413   1.024  11.172 -0.7619  1.5419  0.1379
   20SAPC  H11A 2566   5.472   1.118  11.169  0.9186  0.5245 -0.4542
   20SAPC  H11B 2567   5.320   1.039  11.113 -0.5638 -0.5470 -0.7899
   20SAPC     P 2568   5.438   0.796  11.038 -0.3220 -0.4750 -0.5885
   20SAPC   O13 2569   5.551   0.709  11.005 -0.4028 -0.1429 -0.0354
   20SAPC   O14 2570   5.324   0.749  11.118  0.4075 -0.4539 -0.2237
   20SAPC   O12 2571   5.497   0.929  11.107 -0.3909 -0.1546 -0.8329
   20SAPC   O11 2572   5.389   0.856  10.899 -0.2550  0.3285 -0.0311
   20SAPC    C1 2573   5.489   0.893  10.800  0.0306  0.0783 -0.1951
   20SAPC    HA 2574   5.480   1.004  10.791 -2.1805  0.0596  0.9647
   20SAPC    HB 2575   5.594   0.865  10.820 -0.1901 -1.5306 -1.1603
   20SAPC    C2 2576   5.448   0.840  10.661 -0.0100  0.8540  0.5335
   20SAPC    HS 2577   5.497   0.743  10.636 -1.5774 -0.5276  2.5108
   20SAPC   O21 2578   5.479   0.936  10.563 -0.1039  0.3757  0.5115
   20SAPC   C21 2579   5.604   0.940  10.523  0.9208 -0.5878 -0.0568
   20SAPC   O22 2580   5.695   0.873  10.573  0.3387 -0.1620  0.0985
   20SAPC   C22 2581   5.624   1.055  10.424  0.1325  0.0961  0.4277
   20SAPC   H2R 2582   5.565   1.141  10.461  1.0930  1.2017 -0.5374
   20SAPC   H2S 2583   5.733   1.076  10.421 -0.0465  1.0210 -2.7229
   20SAPC    C3 2584   5.297   0.808  10.647  0.6968  0.6430 -0.2155
   20SAPC    HX 2585   5.228   0.895  10.653 -1.7082 -1.1763 -0.0661
   20SAPC    HY 2586   5.270   0.748  10.737 -0.1117  0.2806 -0.6908
   20SAPC   O31 2587   5.269   0.723  10.536 -0.1368 -0.0367  0.1188
   20SAPC   C31 2588   5.215   0.780  10.431  0.3757 -0.0773 -0.0114
   20SAPC   O32 2589   5.200   0.902  10.414 -0.1917  0.0061 -0.7072
   20SAPC   C32 2590   5.192   0.670  10.331  1.1247 -0.2115 -0.3316
   20SAPC   H2X 2591   5.138   0.582  10.374  0.0391  0.3158 -0.5734
   20SAPC   H2Y 2592   5.293   0.637  10.299  1.0344  1.4796 -2.6473
   20SAPC   C23 2593   5.595   1.022  10.275  0.6362 -0.1732 -0.1647
   20SAPC   H3R 2594   5.667   0.942  10.252 -0.5888 -1.8203  1.4958
   20SAPC   H3S 2595   5.603   1.118  10.219 -0.7562 -0.7013 -1.3454
   20SAPC   C24 2596   5.445   0.992  10.242  0.1625  0.3524 -0.5781
   20SAPC   H4R 2597   5.430   0.906  10.311  2.7541 -0.9815 -1.5467
   20SAPC   H4S 2598   5.445   0.951  10.139 -1.2117 -0.1977 -0.3895
   20SAPC   C25 2599   5.346   1.107  10.260  0.1449  0.1342  0.3792
   20SAPC   H5R 2600   5.334   1.140  10.365 -1.4934 -0.8776  0.5543
   20SAPC   C26 2601   5.270   1.167  10.170  0.0028 -1.0517  0.1160
   20SAPC   H6R 2602   5.201   1.242  10.212  2.2114  0.7224  0.8130
   20SAPC   C27 2603   5.269   1.146  10.020 -0.0986 -0.5524  0.1871
   20SAPC   H7R 2604   5.337   1.069   9.980 -0.3584 -0.0203 -1.3637
   20SAPC   H7S 2605   5.301   1.236   9.963  0.3277 -0.1349  1.0727
   20SAPC   C28 2606   5.126   1.111   9.978 -0.6907 -0.0544  0.3111
   20SAPC   H8R 2607   5.072   1.056  10.056 -0.4651  0.7489  1.0536
   20SAPC   C29 2608   5.062   1.143   9.868  0.0721  0.7783 -0.2969
   20SAPC   H9R 2609   4.956   1.112   9.869  0.1293  0.3462 -2.6822
   20SAPC  C210 2610   5.115   1.219   9.751 -0.0254 -0.5057  0.8786
   20SAPC  H10R 2611   5.159   1.318   9.774  3.0148 -1.1819 -1.3623
   20SAPC  H10S 2612   5.031   1.236   9.680  1.1921 -0.7599 -0.6798
   20SAPC  C211 2613   5.229   1.148   9.678  0.3009  0.4421  0.0292
   20SAPC  H11R 2614   5.287   1.073   9.732 -1.6534 -1.2008 -0.0327
   20SAPC  C212 2615   5.275   1.188   9.556  0.0815  0.6142 -0.1445
   20SAPC  H12R 2616   5.362   1.138   9.513 -0.6976  0.6061 -1.7561
   20SAPC  C213 2617   5.217   1.299   9.476  0.3397 -0.1450 -0.3586
   20SAPC  H13R 2618   5.304   1.341   9.422  0.4229 -0.1329 -0.2128
   20SAPC  H13S 2619   5.168   1.376   9.539  2.0739  0.7507 -0.0689
   20SAPC  C214 2620   5.112   1.252   9.378  0.2915  0.3255  0.3719
   20SAPC  H14R 2621   5.022   1.209   9.426 -0.5515  1.9708  0.3305
   20SAPC  C215 2622   5.085   1.288   9.251 -0.1950  0.4760  0.3226
   20SAPC  H15R 2623   5.000   1.245   9.196  0.5878 -1.2259  0.3679
   20SAPC  C216 2624   5.176   1.372   9.163 -0.3483  0.1203 -0.0727
   20SAPC  H16R 2625   5.283   1.365   9.193 -0.7766  0.1722  1.5592
   20SAPC  H16S 2626   5.152   1.480   9.160 -0.6343  0.0741  0.4749
   20SAPC  C217 2627   5.151   1.326   9.012 -0.5479  0.7375 -0.2931
   20SAPC  H17R 2628   5.046   1.343   8.982 -0.2042  1.5707 -1.0722
   20SAPC  H17S 2629   5.182   1.221   8.994 -2.1757  0.4493 -1.5997
   20SAPC  C218 2630   5.229   1.410   8.907  0.0229  0.0097  0.1138
   20SAPC  H18R 2631   5.338   1.396   8.928  0.5566  1.3529 -1.5027
   20SAPC  H18S 2632   5.195   1.513   8.935 -1.2733 -0.6786  1.1745
   20SAPC  C219 2633   5.193   1.385   8.760 -0.6839  0.6145  0.1484
   20SAPC  H19R 2634   5.235   1.468   8.699 -0.6408  1.2253  0.9922
   20SAPC  H19S 2635   5.082   1.386   8.747 -1.0615  0.4646  2.8357
   20SAPC  C220 2636   5.244   1.255   8.712 -0.2967 -0.2838  0.8240
   20SAPC  H20R 2637   5.202   1.233   8.611  2.0713 -1.0923 -0.0602
   20SAPC  H20S 2638   5.224   1.164   8.772 -2.2796 -0.4936 -0.0882
   20SAPC  H20T 2639   5.355   1.253   8.706 -0.3375 -1.5864  0.2199
   20SAPC   C33 2640   5.121   0.729  10.206  0.1937  0.4085  0.2456
   20SAPC   H3X 2641   5.178   0.821  10.181 -0.5581  0.8582  0.1658
   20SAPC   H3Y 2642   5.015   0.756  10.221  0.6732  1.4155  2.0904
   20SAPC   C34 2643   5.141   0.658  10.074 -0.0446 -0.1682  1.2219
   20SAPC   H4X 2644   5.091   0.559  10.084  1.2299 -1.1668 -1.3079
   20SAPC   H4Y 2645   5.248   0.635  10.056  0.3041  1.8298  0.5475
   20SAPC   C35 2646   5.082   0.732   9.953 -0.1706 -0.1295 -0.5700
   20SAPC   H5X 2647   5.100   0.841   9.966 -0.1837 -0.3653  1.8740
   20SAPC   H5Y 2648   4.974   0.720   9.974  0.2348  1.0849  2.8288
   20SAPC   C36 2649   5.137   0.692   9.820 -0.3079  0.0733  0.9581
   20SAPC   H6X 2650   5.107   0.590   9.786  0.5397  0.1330  0.0270
   20SAPC   H6Y 2651   5.247   0.686   9.828  0.2394 -0.5461 -3.9864
   20SAPC   C37 2652   5.097   0.785   9.710 -0.9813  0.9174  0.3029
   20SAPC   H7X 2653   5.123   0.890   9.733  1.1187  0.6775 -0.6828
   20SAPC   H7Y 2654   4.991   0.783   9.678 -0.0099 -0.0698 -3.4483
   20SAPC   C38 2655   5.180   0.751   9.592  0.2708  0.3055  0.2374
   20SAPC   H8X 2656   5.158   0.649   9.554 -0.5242 -0.9705  3.7521
   20SAPC   H8Y 2657   5.287   0.762   9.619  0.4305  0.5789 -0.4860
   20SAPC   C39 2658   5.162   0.857   9.481  0.5883 -0.3471 -0.1735
   20SAPC   H9X 2659   5.264   0.871   9.438  1.7566 -2.5658  1.7066
   20SAPC   H9Y 2660   5.129   0.950   9.531  0.2558 -0.5864  0.0486
   20SAPC  C310 2661   5.071   0.814   9.362 -0.2691 -0.2529  0.0333
   20SAPC  H10X 2662   4.965   0.819   9.395  0.1028  0.4114  1.2066
   20SAPC  H10Y 2663   5.085   0.706   9.341  1.4804  0.2851 -1.8958
   20SAPC  C311 2664   5.087   0.903   9.244  0.4116  0.1776 -0.1959
   20SAPC  H11X 2665   5.196   0.903   9.221  0.4955  0.3063  0.1864
   20SAPC  H11Y 2666   5.061   1.008   9.270  0.1178 -0.1617  0.9355
   20SAPC  C312 2667   5.002   0.868   9.121  0.2331  0.0783 -0.0221
   20SAPC  H12X 2668   4.900   0.840   9.155  0.1317  0.6627  0.1538
   20SAPC  H12Y 2669   5.033   0.774   9.069 -0.5450 -0.6499  0.7922
   20SAPC  C313 2670   4.998   0.985   9.028  0.1924 -0.0069 -0.0770
   20SAPC  H13X 2671   5.100   1.003   8.988  0.4908  0.3315  0.7967
   20SAPC  H13Y 2672   4.957   1.070   9.086  0.7530 -0.1537  0.5535
   20SAPC  C314 2673   4.898   0.956   8.911  0.2582  0.4187  0.4036
   20SAPC  H14X 2674   4.798   0.953   8.960  0.8803  1.2264  1.8001
   20SAPC  H14Y 2675   4.913   0.856   8.865  0.8364  1.3109 -1.4348
   20SAPC  C315 2676   4.896   1.061   8.808 -0.4808 -0.1071  0.5323
   20SAPC  H15X 2677   4.996   1.075   8.761 -1.8921  0.1230 -2.6968
   20SAPC  H15Y 2678   4.869   1.159   8.853  0.2929  1.1449 -1.5466
   20SAPC  C316 2679   4.789   1.045   8.694  0.4149  0.0738  0.4531
   20SAPC  H16X 2680   4.690   1.050   8.745  1.0273 -0.9694  1.7933
   20SAPC  H16Y 2681   4.806   0.946   8.646  0.4469 -0.7466  2.0981
   20SAPC  C317 2682   4.808   1.159   8.591 -0.0186  0.3548 -0.5902
   20SAPC  H17X 2683   4.911   1.143   8.552 -0.2939 -1.9352 -0.5379
   20SAPC  H17Y 2684   4.795   1.258   8.638  1.7851  0.2353  0.2551
   20SAPC  C318 2685   4.708   1.155   8.478  0.3898  0.3385  0.0042
   20SAPC  H18X 2686   4.608   1.141   8.524 -0.2737 -0.4130 -1.5756
   20SAPC  H18Y 2687   4.728   1.068   8.412 -0.2159  1.1697 -1.3409
   20SAPC  H18Z 2688   4.702   1.248   8.418  0.6475  0.0093 -0.5412
   21SAPC     N 2689   0.331   2.338  10.654 -0.2882  0.5613 -0.2091
   21SAPC   C12 2690   0.299   2.413  10.532  0.2535  0.4799 -0.5404
   21SAPC  H12A 2691   0.192   2.425  10.538  0.2176  0.2135 -0.6385
   21SAPC  H12B 2692   0.318   2.341  10.453  0.2588 -2.6752  2.1374
   21SAPC   C13 2693   0.255   2.211  10.668  0.1453  0.3652  0.1733
   21SAPC  H13A 2694   0.270   2.130  10.598 -0.3525  1.3466 -1.1125
   21SAPC  H13B 2695   0.272   2.168  10.766 -0.0569  1.0059  0.4988
   21SAPC  H13C 2696   0.149   2.223  10.653 -0.5037 -0.0872  3.6507
   21SAPC   C14 2697   0.478   2.309  10.644 -0.3367  0.2786 -0.0193
   21SAPC  H14A 2698   0.497   2.246  10.558 -0.0897 -1.3217  1.1614
   21SAPC  H14B 2699   0.521   2.408  10.636  1.2135 -0.3487  0.0888
   21SAPC  H14C 2700   0.516   2.259  10.731 -1.3744 -0.3571  0.0751
   21SAPC   C15 2701   0.313   2.421  10.780 -0.3790 -0.6121  0.3187
   21SAPC  H15A 2702   0.343   2.369  10.870 -0.9110 -3.5882 -1.0804
   21SAPC  H15B 2703   0.369   2.510  10.760 -1.4601 -0.1785 -0.9268
   21SAPC  H15C 2704   0.215   2.456  10.812  1.4757  3.6030  2.2198
   21SAPC   C11 2705   0.367   2.546  10.500 -0.1052 -0.4766  0.3012
   21SAPC  H11A 2706   0.335   2.583  10.401  1.7271 -0.6354 -0.3987
   21SAPC  H11B 2707   0.473   2.516  10.486  0.6386  2.0961  0.0311
   21SAPC     P 2708   0.253   2.755  10.613 -0.0238  0.0727  0.0402
   21SAPC   O13 2709   0.125   2.694  10.646  0.3774  0.3974  0.2479
   21SAPC   O14 2710   0.291   2.867  10.702  0.3542 -0.3855  0.3157
   21SAPC   O12 2711   0.361   2.645  10.604  0.6218 -0.3927 -0.3489
   21SAPC   O11 2712   0.257   2.806  10.462 -0.1875 -0.7006  0.7626
   21SAPC    C1 2713   0.328   2.924  10.419 -0.1285 -0.2449  0.3748
   21SAPC    HA 2714   0.261   3.013  10.417 -0.2213 -0.1758  3.1802
   21SAPC    HB 2715   0.413   2.952  10.484  0.5114 -0.7771 -0.2063
   21SAPC    C2 2716   0.391   2.904  10.281  0.2513  0.1614 -1.0717
   21SAPC    HS 2717   0.301   2.888  10.218  0.1998  1.3913 -1.3407
   21SAPC   O21 2718   0.483   2.793  10.288  0.2551  0.4565  0.3307
   21SAPC   C21 2719   0.472   2.705  10.182 -0.5218 -0.5620  0.1924
   21SAPC   O22 2720   0.381   2.714  10.101  0.3885  0.5425  0.2529
   21SAPC   C22 2721   0.588   2.603  10.187  0.7093 -0.1660 -0.2208
   21SAPC   H2R 2722   0.647   2.621  10.280  3.4082 -1.8219 -1.4746
   21SAPC   H2S 2723   0.526   2.512  10.202  0.0028  0.3408  0.0092
   21SAPC    C3 2724   0.467   3.023  10.228  0.1383 -0.7766  0.4069
   21SAPC    HX 2725   0.563   3.013  10.283 -1.7898 -2.6127  3.7460
   21SAPC    HY 2726   0.407   3.113  10.253 -0.4898 -1.2072  0.4651
   21SAPC   O31 2727   0.492   3.001  10.083 -0.5571 -0.3540  0.4868
   21SAPC   C31 2728   0.406   3.030   9.998  0.4054 -0.7131 -0.1414
   21SAPC   O32 2729   0.306   3.100  10.023  0.0953 -0.0205 -0.4041
   21SAPC   C32 2730   0.440   2.963   9.867  0.0406  0.2767  0.2956
   21SAPC   H2X 2731   0.470   2.857   9.886  0.7597  0.5050  0.4691
   21SAPC   H2Y 2732   0.531   3.014   9.829 -1.1339  1.8718 -0.4675
   21SAPC   C23 2733   0.677   2.591  10.053  0.1622 -0.2679 -0.3132
   21SAPC   H3R 2734   0.601   2.572   9.974 -1.2532  2.5650  0.2478
   21SAPC   H3S 2735   0.752   2.509  10.059 -0.8794 -1.2420 -0.2589
   21SAPC   C24 2736   0.760   2.713  10.025  0.2351 -0.8545 -0.8435
   21SAPC   H4R 2737   0.693   2.802  10.033 -0.1467 -1.2648  0.7775
   21SAPC   H4S 2738   0.808   2.711   9.925  2.2611  0.4256  0.0254
   21SAPC   C25 2739   0.853   2.724  10.140 -0.9349 -1.1223  0.9264
   21SAPC   H5R 2740   0.850   2.631  10.199 -1.5056 -0.6940  1.5917
   21SAPC   C26 2741   0.921   2.838  10.186  0.0325  0.5221  0.4162
   21SAPC   H6R 2742   0.990   2.814  10.268 -0.4580 -0.6282  0.5142
   21SAPC   C27 2743   0.907   2.975  10.123 -0.3636 -0.7288 -0.1644
   21SAPC   H7R 2744   0.866   3.045  10.198  0.7491  1.4957 -1.5213
   21SAPC   H7S 2745   0.831   2.976  10.042 -0.2367 -2.5088 -0.3483
   21SAPC   C28 2746   1.039   3.031  10.067  0.1263 -0.3195 -0.6670
   21SAPC   H8R 2747   1.131   3.007  10.123 -0.5515  0.6737  0.9620
   21SAPC   C29 2748   1.049   3.108   9.955  0.4343  0.1127  0.0484
   21SAPC   H9R 2749   1.144   3.152   9.923  0.7900  1.9743  3.2052
   21SAPC  C210 2750   0.939   3.141   9.858  0.5588 -0.2293 -0.3265
   21SAPC  H10R 2751   0.967   3.237   9.809 -0.3396 -0.0359 -0.4732
   21SAPC  H10S 2752   0.846   3.152   9.918 -0.1392  0.8112 -1.5381
   21SAPC  C211 2753   0.919   3.027   9.760 -0.2023  0.3049 -0.3381
   21SAPC  H11R 2754   0.942   2.929   9.805 -2.8312  0.0343  0.6135
   21SAPC  C212 2755   0.892   3.032   9.629 -0.3711 -0.1393 -0.4003
   21SAPC  H12R 2756   0.869   2.941   9.572 -1.0717 -1.7666  2.3159
   21SAPC  C213 2757   0.868   3.163   9.548  0.1657 -0.1117 -0.5334
   21SAPC  H13R 2758   0.968   3.198   9.515 -0.6540  1.5509 -1.3675
   21SAPC  H13S 2759   0.834   3.238   9.622 -0.3338 -0.4104 -0.4546
   21SAPC  C214 2760   0.776   3.154   9.434  0.3640  0.1663  0.7772
   21SAPC  H14R 2761   0.737   3.052   9.417  2.6916 -1.5662  4.5415
   21SAPC  C215 2762   0.745   3.242   9.339  0.3278  0.1289  0.3267
   21SAPC  H15R 2763   0.667   3.217   9.265 -1.7711 -0.7941  2.6925
   21SAPC  C216 2764   0.797   3.386   9.344  0.7781 -0.2673  0.2269
   21SAPC  H16R 2765   0.879   3.392   9.419 -1.3171 -0.1350  2.6254
   21SAPC  H16S 2766   0.715   3.458   9.363 -0.4143 -0.7413 -2.6236
   21SAPC  C217 2767   0.859   3.432   9.213  0.0907  0.3643  0.0927
   21SAPC  H17R 2768   0.935   3.359   9.178 -0.3118 -0.2981  0.5696
   21SAPC  H17S 2769   0.919   3.520   9.245  0.8757 -0.6389  1.4984
   21SAPC  C218 2770   0.763   3.484   9.107 -0.4441  0.2468  0.0799
   21SAPC  H18R 2771   0.684   3.544   9.156 -0.5798  0.4342 -0.3655
   21SAPC  H18S 2772   0.697   3.402   9.070  0.6705  0.0888 -1.6670
   21SAPC  C219 2773   0.842   3.552   8.984 -0.8660 -0.3387  0.5666
   21SAPC  H19R 2774   0.930   3.488   8.961 -1.6603 -1.2714  0.0544
   21SAPC  H19S 2775   0.870   3.653   9.020 -2.0669 -0.2206  1.2169
   21SAPC  C220 2776   0.751   3.570   8.857 -0.1990 -0.2483  0.0927
   21SAPC  H20R 2777   0.670   3.637   8.894  1.4928  1.6258  0.5349
   21SAPC  H20S 2778   0.711   3.480   8.805  0.3546  0.8571 -2.4002
   21SAPC  H20T 2779   0.802   3.635   8.783 -0.8678  1.2346  0.8822
   21SAPC   C33 2780   0.318   2.965   9.769 -0.2041 -0.0319  0.1596
   21SAPC   H3X 2781   0.293   3.069   9.737 -0.7187 -0.1147  0.2852
   21SAPC   H3Y 2782   0.236   2.922   9.831 -0.3291  1.7091  1.2831
   21SAPC   C34 2783   0.349   2.866   9.652  0.5610 -0.1406 -0.4472
   21SAPC   H4X 2784   0.259   2.843   9.591  2.0761 -0.9215 -2.4986
   21SAPC   H4Y 2785   0.381   2.765   9.685  1.3861 -0.9771 -3.5190
   21SAPC   C35 2786   0.463   2.925   9.559  0.1504  0.4572 -0.0799
   21SAPC   H5X 2787   0.545   2.957   9.626 -0.4635  2.9127 -0.4001
   21SAPC   H5Y 2788   0.424   3.015   9.506  0.4884  0.7626  0.1886
   21SAPC   C36 2789   0.512   2.831   9.448  1.1497  0.5522 -0.2287
   21SAPC   H6X 2790   0.488   2.728   9.482  1.4835  0.6391  0.2834
   21SAPC   H6Y 2791   0.621   2.845   9.431  0.8735  1.9085 -1.0119
   21SAPC   C37 2792   0.441   2.852   9.313 -0.6420  0.2430 -0.7750
   21SAPC   H7X 2793   0.472   2.769   9.246  1.0505  0.7301 -0.6511
   21SAPC   H7Y 2794   0.470   2.954   9.281 -0.7881  0.4898 -0.1312
   21SAPC   C38 2795   0.289   2.841   9.312 -0.2285  0.1845  0.3893
   21SAPC   H8X 2796   0.245   2.925   9.370  1.9147  1.4341  0.3323
   21SAPC   H8Y 2797   0.243   2.762   9.374 -0.2500  1.5733  2.2443
   21SAPC   C39 2798   0.239   2.832   9.171 -0.8464 -0.0064 -0.6270
   21SAPC   H9X 2799   0.132   2.808   9.187 -0.4814 -0.4084  1.3981
   21SAPC   H9Y 2800   0.285   2.743   9.123 -0.5980  0.1642 -0.7072
   21SAPC  C310 2801   0.253   2.949   9.072  0.5689  0.5189  0.3659
   21SAPC  H10X 2802   0.357   2.943   9.035  1.0915  1.4061  1.6353
   21SAPC  H10Y 2803   0.222   3.047   9.115 -2.2633 -0.3079  0.4074
   21SAPC  C311 2804   0.154   2.926   8.952 -0.2586 -0.3054  0.1291
   21SAPC  H11X 2805   0.058   2.887   8.994 -1.8964  3.0920 -0.1144
   21SAPC  H11Y 2806   0.204   2.856   8.882 -0.9105  0.0953 -0.7530
   21SAPC  C312 2807   0.120   3.042   8.867  0.3015  0.4840  0.7335
   21SAPC  H12X 2808   0.213   3.082   8.820 -1.4830  1.0891 -2.6038
   21SAPC  H12Y 2809   0.068   3.122   8.923 -1.1275  0.2389 -0.1813
   21SAPC  C313 2810   0.040   2.993   8.744 -0.1589 -0.8916  0.0634
   21SAPC  H13X 2811  -0.006   3.077   8.690 -2.0880 -0.4310  2.2658
   21SAPC  H13Y 2812  -0.053   2.942   8.776 -0.6539 -1.6248 -2.3914
   21SAPC  C314 2813   0.116   2.919   8.638 -0.0311 -0.1332 -0.4021
   21SAPC  H14X 2814   0.131   2.820   8.685  0.0363 -0.0619 -0.2709
   21SAPC  H14Y 2815   0.212   2.963   8.604  0.1271 -0.8771 -0.9325
   21SAPC  C315 2816   0.032   2.918   8.506 -0.1915 -0.6609  0.7215
   21SAPC  H15X 2817   0.012   3.023   8.474 -0.1217 -0.6502  0.7120
   21SAPC  H15Y 2818  -0.061   2.862   8.527  1.4735 -2.9914  2.4278
   21SAPC  C316 2819   0.116   2.853   8.397 -0.5493  0.0583 -0.2809
   21SAPC  H16X 2820   0.208   2.912   8.378 -0.3391 -0.2660 -0.2762
   21SAPC  H16Y 2821   0.059   2.862   8.302  0.2824  2.5204 -0.6184
   21SAPC  C317 2822   0.150   2.704   8.426  0.9405 -0.2195 -0.3254
   21SAPC  H17X 2823   0.123   2.644   8.337 -2.0831  0.4118  0.0828
   21SAPC  H17Y 2824   0.082   2.673   8.508  2.4469 -1.2882  0.5625
   21SAPC  C318 2825   0.292   2.687   8.449  0.0012 -0.0039 -0.1599
   21SAPC  H18X 2826   0.358   2.728   8.370 -0.3745  2.8208  0.8837
   21SAPC  H18Y 2827   0.318   2.581   8.467  0.1785  0.1581  0.5439
   21SAPC  H18Z 2828   0.321   2.750   8.536 -0.8584 -0.4723  0.4850
   22SAPC     N 2829   2.923   5.469  10.979  0.1647  0.3743  0.6243
   22SAPC   C12 2830   2.899   5.363  10.874 -0.4275 -0.3484  0.0452
   22SAPC  H12A 2831   2.792   5.365  10.859 -0.3112  3.5383 -1.1526
   22SAPC  H12B 2832   2.929   5.266  10.911  1.2587 -0.3022 -1.1096
   22SAPC   C13 2833   3.060   5.456  11.048  0.2858  0.2824 -0.1772
   22SAPC  H13A 2834   3.069   5.357  11.091 -1.5686  0.3532  0.4776
   22SAPC  H13B 2835   3.128   5.478  10.968  1.2088 -2.5023 -0.2735
   22SAPC  H13C 2836   3.071   5.527  11.129 -1.5234  1.0572 -0.5666
   22SAPC   C14 2837   2.908   5.607  10.915 -0.5132 -0.0113 -1.6848
   22SAPC  H14A 2838   2.917   5.687  10.987  1.8442 -2.8116  1.4787
   22SAPC  H14B 2839   2.976   5.628  10.834  0.5767  1.1800 -0.5079
   22SAPC  H14C 2840   2.806   5.594  10.881 -1.0868 -0.5884  0.1454
   22SAPC   C15 2841   2.807   5.443  11.077  0.9910  0.0330 -0.0680
   22SAPC  H15A 2842   2.709   5.440  11.031  1.8640  0.6411 -2.0750
   22SAPC  H15B 2843   2.824   5.345  11.119  0.5012  0.5710  1.4588
   22SAPC  H15C 2844   2.804   5.508  11.163  2.2111 -1.3727  1.0833
   22SAPC   C11 2845   2.969   5.365  10.734 -0.3961  0.1730  0.2980
   22SAPC  H11A 2846   2.967   5.465  10.686  0.3602 -0.0293 -0.1766
   22SAPC  H11B 2847   2.905   5.305  10.666 -1.5217  0.5020  1.0415
   22SAPC     P 2848   3.146   5.184  10.703 -0.0368  0.0387  0.2446
   22SAPC   O13 2849   3.290   5.181  10.739  0.4510  0.5971  0.2812
   22SAPC   O14 2850   3.055   5.082  10.757 -0.3852 -0.2011  0.0293
   22SAPC   O12 2851   3.101   5.327  10.753  0.1842  0.0846  0.3435
   22SAPC   O11 2852   3.133   5.185  10.550 -0.5902 -0.0606 -0.3475
   22SAPC    C1 2853   3.143   5.296  10.458  0.0600  0.0765 -0.0297
   22SAPC    HA 2854   3.050   5.326  10.406  0.8072  1.0598 -0.8465
   22SAPC    HB 2855   3.183   5.382  10.516 -0.2663  1.1988 -1.4046
   22SAPC    C2 2856   3.245   5.261  10.346  0.4454  0.1606  0.8368
   22SAPC    HS 2857   3.261   5.343  10.272 -0.2438 -0.7575 -0.3626
   22SAPC   O21 2858   3.192   5.139  10.283  0.1165  0.1182 -0.2762
   22SAPC   C21 2859   3.093   5.157  10.198  0.3166 -0.0151 -0.4186
   22SAPC   O22 2860   3.043   5.263  10.169  0.3594  0.0713 -0.3604
   22SAPC   C22 2861   3.047   5.020  10.150  0.4686  0.0850 -0.1986
   22SAPC   H2R 2862   3.127   4.992  10.079  1.3110  1.9574 -0.0334
   22SAPC   H2S 2863   3.042   4.947  10.234 -0.9983 -1.8035 -1.8206
   22SAPC    C3 2864   3.385   5.226  10.401 -0.1345 -0.2231  0.4540
   22SAPC    HX 2865   3.379   5.126  10.450 -2.2516 -0.6533 -0.5846
   22SAPC    HY 2866   3.422   5.300  10.475 -0.0378 -0.8762  1.0749
   22SAPC   O31 2867   3.477   5.216  10.293 -0.5305  0.1811  0.1355
   22SAPC   C31 2868   3.524   5.328  10.243 -0.7382 -0.0816 -0.4025
   22SAPC   O32 2869   3.525   5.442  10.292  0.6803 -0.3227 -0.4126
   22SAPC   C32 2870   3.606   5.288  10.109  0.6502  0.4559 -0.9643
   22SAPC   H2X 2871   3.532   5.260  10.031  0.0066  1.4348 -0.7189
   22SAPC   H2Y 2872   3.665   5.198  10.136 -0.9644 -0.0299  1.2782
   22SAPC   C23 2873   2.904   5.029  10.087  0.1323  0.1154  0.3260
   22SAPC   H3R 2874   2.905   5.113  10.015  1.0706  0.4866  0.7609
   22SAPC   H3S 2875   2.822   5.058  10.157 -0.7737 -2.7580  0.5780
   22SAPC   C24 2876   2.865   4.900  10.028  0.0312 -0.6935  0.0996
   22SAPC   H4R 2877   2.762   4.923   9.992 -0.4359 -0.5826  1.4247
   22SAPC   H4S 2878   2.848   4.824  10.108 -2.4066 -0.4369 -0.1059
   22SAPC   C25 2879   2.964   4.855   9.927  1.1178  0.3436 -0.1392
   22SAPC   H5R 2880   3.044   4.791   9.967  1.7318  0.5186 -1.0748
   22SAPC   C26 2881   2.942   4.869   9.792 -0.9146  0.8653  0.6220
   22SAPC   H6R 2882   3.002   4.802   9.730  1.2470  1.1778  2.2607
   22SAPC   C27 2883   2.827   4.928   9.717  0.7130 -0.0475  0.6306
   22SAPC   H7R 2884   2.873   4.974   9.627  0.7917  1.6660  1.5156
   22SAPC   H7S 2885   2.791   5.011   9.781 -2.2469  0.6269 -1.6504
   22SAPC   C28 2886   2.717   4.832   9.688  0.2249  0.4817 -0.9072
   22SAPC   H8R 2887   2.672   4.790   9.779  0.2902  0.0768 -1.0593
   22SAPC   C29 2888   2.669   4.803   9.564  0.2306  0.0951  0.0351
   22SAPC   H9R 2889   2.588   4.730   9.550 -0.2281  0.7515 -0.8349
   22SAPC  C210 2890   2.725   4.857   9.436 -0.5510  0.3244  0.3352
   22SAPC  H10R 2891   2.742   4.966   9.442  0.0149  0.2599  0.0185
   22SAPC  H10S 2892   2.656   4.850   9.350 -1.8387 -0.2453  1.3743
   22SAPC  C211 2893   2.859   4.790   9.399  0.1142 -0.5267 -0.0342
   22SAPC  H11R 2894   2.940   4.791   9.473  0.4554  0.0437 -0.4011
   22SAPC  C212 2895   2.893   4.730   9.288  0.7388  0.3181  0.5703
   22SAPC  H12R 2896   2.991   4.681   9.280  0.4867 -0.4629  1.8919
   22SAPC  C213 2897   2.810   4.704   9.167  0.2135 -0.6804 -0.2872
   22SAPC  H13R 2898   2.706   4.736   9.189 -0.2786  0.8727 -4.1461
   22SAPC  H13S 2899   2.800   4.595   9.145 -0.9784 -0.9756  1.5198
   22SAPC  C214 2900   2.854   4.781   9.044  0.7338 -0.2567 -0.6610
   22SAPC  H14R 2901   2.816   4.884   9.038  0.8216 -0.2158 -0.5148
   22SAPC  C215 2902   2.914   4.736   8.935  0.3627  0.0284 -0.7935
   22SAPC  H15R 2903   2.946   4.793   8.847  0.4016 -0.3981 -1.0572
   22SAPC  C216 2904   2.967   4.588   8.925 -0.5823 -0.8096  0.2435
   22SAPC  H16R 2905   2.905   4.515   8.980 -0.0618 -1.2231  0.2947
   22SAPC  H16S 2906   3.051   4.585   8.998 -1.5304 -1.6286  1.3307
   22SAPC  C217 2907   2.992   4.535   8.780 -0.6697  0.0247 -0.0054
   22SAPC  H17R 2908   2.905   4.566   8.718 -1.0052 -1.4763 -0.3385
   22SAPC  H17S 2909   2.980   4.425   8.795  0.0475  0.1566  1.7714
   22SAPC  C218 2910   3.122   4.590   8.724  0.2079  0.3457  0.4005
   22SAPC  H18R 2911   3.210   4.575   8.790 -0.5914  1.9475  1.9313
   22SAPC  H18S 2912   3.109   4.700   8.731 -0.1218  0.3397 -0.0658
   22SAPC  C219 2913   3.149   4.568   8.579  0.2084  0.0816 -0.4345
   22SAPC  H19R 2914   3.158   4.458   8.567  0.9557  0.0886 -0.0039
   22SAPC  H19S 2915   3.248   4.612   8.556  0.0746  1.0442  0.7377
   22SAPC  C220 2916   3.046   4.613   8.472  0.7455  0.7891  0.1474
   22SAPC  H20R 2917   2.998   4.711   8.491 -0.8835  0.4919 -2.1009
   22SAPC  H20S 2918   2.961   4.543   8.485  1.8464 -0.7146 -0.4572
   22SAPC  H20T 2919   3.082   4.614   8.367 -2.9447  1.9837 -1.2802
   22SAPC   C33 2920   3.704   5.394  10.057  0.7651 -0.3022 -0.5991
   22SAPC   H3X 2921   3.765   5.423  10.144 -0.3804 -0.1245  0.1664
   22SAPC   H3Y 2922   3.649   5.486  10.027  1.7364  0.0459 -1.3583
   22SAPC   C34 2923   3.794   5.357   9.934  0.1633 -0.0451 -0.8729
   22SAPC   H4X 2924   3.860   5.271   9.958 -0.0038  0.0738  0.0629
   22SAPC   H4Y 2925   3.871   5.437   9.927 -1.6155  1.8624  0.1440
   22SAPC   C35 2926   3.714   5.324   9.807 -0.0211 -0.9826 -0.6218
   22SAPC   H5X 2927   3.643   5.407   9.783  0.0976 -0.7729 -0.2573
   22SAPC   H5Y 2928   3.651   5.237   9.835  1.2348 -1.8141 -0.3450
   22SAPC   C36 2929   3.811   5.302   9.694 -0.5473  0.5048 -0.1044
   22SAPC   H6X 2930   3.854   5.200   9.690 -0.5921  0.4453  0.7565
   22SAPC   H6Y 2931   3.897   5.372   9.700  1.4109 -1.8021 -0.0290
   22SAPC   C37 2932   3.732   5.325   9.568  0.0453 -0.3520  0.1835
   22SAPC   H7X 2933   3.692   5.428   9.584  0.4468 -0.5734  3.2819
   22SAPC   H7Y 2934   3.644   5.257   9.568 -2.0010  2.1439  0.0802
   22SAPC   C38 2935   3.817   5.324   9.442  0.0184 -0.3045 -0.7194
   22SAPC   H8X 2936   3.870   5.229   9.420  0.7024  0.2729 -1.6334
   22SAPC   H8Y 2937   3.887   5.407   9.463  1.6235 -1.4565 -1.2567
   22SAPC   C39 2938   3.736   5.366   9.315  0.0547  0.6757  0.1809
   22SAPC   H9X 2939   3.684   5.460   9.343 -1.1285 -0.0921  0.6234
   22SAPC   H9Y 2940   3.660   5.290   9.288 -0.6232  0.3349  2.7636
   22SAPC  C310 2941   3.840   5.380   9.205  0.2991  0.2531 -0.2776
   22SAPC  H10X 2942   3.881   5.278   9.193 -0.2061  0.0834 -0.5955
   22SAPC  H10Y 2943   3.933   5.426   9.246  0.4598  1.2099 -1.6204
   22SAPC  C311 2944   3.789   5.448   9.080 -0.0992  0.3419 -0.5969
   22SAPC  H11X 2945   3.866   5.447   8.999  0.7223 -1.4262  0.1620
   22SAPC  H11Y 2946   3.762   5.552   9.106 -0.9638 -0.5415  2.3192
   22SAPC  C312 2947   3.669   5.379   9.007 -0.2954  0.0171  0.0213
   22SAPC  H12X 2948   3.643   5.450   8.925 -1.4415 -0.0765  0.2863
   22SAPC  H12Y 2949   3.584   5.373   9.078 -0.0970 -0.5356  0.2188
   22SAPC  C313 2950   3.708   5.243   8.951 -0.2169  0.1665  0.3932
   22SAPC  H13X 2951   3.727   5.176   9.038 -0.7841 -0.6336 -0.0974
   22SAPC  H13Y 2952   3.805   5.250   8.897 -1.7001 -0.4548 -2.4954
   22SAPC  C314 2953   3.596   5.190   8.863  0.5152  0.0099 -0.1453
   22SAPC  H14X 2954   3.498   5.233   8.892  1.0442  2.5306 -1.7568
   22SAPC  H14Y 2955   3.600   5.079   8.864  1.0069  0.0257 -0.1017
   22SAPC  C315 2956   3.609   5.237   8.718  0.1653 -0.4346 -0.7572
   22SAPC  H15X 2957   3.693   5.184   8.668  0.7318 -0.2358 -0.0364
   22SAPC  H15Y 2958   3.630   5.346   8.711  3.3371 -0.8394  0.9035
   22SAPC  C316 2959   3.483   5.196   8.634 -0.6629 -0.3388 -0.2040
   22SAPC  H16X 2960   3.389   5.235   8.679 -0.7672 -0.7358 -0.0782
   22SAPC  H16Y 2961   3.466   5.087   8.634 -3.8249  0.0612  0.4247
   22SAPC  C317 2962   3.481   5.229   8.478 -0.2241 -0.0893  0.0561
   22SAPC  H17X 2963   3.399   5.166   8.439  0.3912 -1.0084  0.2173
   22SAPC  H17Y 2964   3.580   5.190   8.447  0.2603 -0.6554  2.1646
   22SAPC  C318 2965   3.468   5.379   8.443  0.3281  0.0879  0.6357
   22SAPC  H18X 2966   3.554   5.440   8.480  0.8247  0.6042 -1.2597
   22SAPC  H18Y 2967   3.377   5.422   8.491 -1.1849 -2.9202  0.6758
   22SAPC  H18Z 2968   3.456   5.398   8.334  1.7138  0.8266  0.5882
   23SAPC     N 2969   5.380   2.059  10.862  0.3406  0.3382 -0.3560
   23SAPC   C12 2970   5.426   2.156  10.753 -0.3831  0.7352  0.3758
   23SAPC  H12A 2971   5.515   2.209  10.783 -0.3350  0.5051  0.6389
   23SAPC  H12B 2972   5.355   2.236  10.736 -0.0919  1.2061  1.3213
   23SAPC   C13 2973   5.334   2.146  10.982 -0.1923  0.1363  0.0185
   23SAPC  H13A 2974   5.307   2.097  11.074  0.1971  2.8330  1.6864
   23SAPC  H13B 2975   5.413   2.217  11.003  0.7944 -1.3185  1.5045
   23SAPC  H13C 2976   5.239   2.195  10.970 -1.1928 -1.0651  2.2658
   23SAPC   C14 2977   5.267   1.975  10.822 -0.2502 -0.2710  0.2610
   23SAPC  H14A 2978   5.180   2.024  10.782 -0.4024 -0.3383  0.5045
   23SAPC  H14B 2979   5.297   1.913  10.739 -0.2393 -0.5744  0.4882
   23SAPC  H14C 2980   5.228   1.919  10.906 -0.6685  1.5671  1.3502
   23SAPC   C15 2981   5.498   1.974  10.901  0.3159 -0.6238  0.6067
   23SAPC  H15A 2982   5.527   1.931  10.807 -1.6289 -0.1714 -0.2439
   23SAPC  H15B 2983   5.571   2.046  10.936 -0.8733  0.6011  0.6658
   23SAPC  H15C 2984   5.480   1.894  10.971 -1.2234 -1.6806 -0.9060
   23SAPC   C11 2985   5.469   2.096  10.618 -0.2904  0.1410  0.2457
   23SAPC  H11A 2986   5.445   2.166  10.535 -0.1985  0.0905  0.1761
   23SAPC  H11B 2987   5.422   1.996  10.611 -1.1392  0.5004  0.6454
   23SAPC     P 2988   5.696   1.974  10.583  0.4505  0.1695 -0.2635
   23SAPC   O13 2989   5.841   1.992  10.624  0.3316  0.4246 -0.2825
   23SAPC   O14 2990   5.629   1.847  10.632  0.4253  0.0165 -0.3608
   23SAPC   O12 2991   5.611   2.095  10.622  0.0857  0.4976  0.0307
   23SAPC   O11 2992   5.689   1.992  10.427 -0.1480  0.4524 -0.3561
   23SAPC    C1 2993   5.731   2.108  10.358  0.2373  0.7807 -0.0854
   23SAPC    HA 2994   5.809   2.171  10.406  1.6795  2.2403 -3.9186
   23SAPC    HB 2995   5.766   2.068  10.260 -1.9455 -0.5064 -0.4078
   23SAPC    C2 2996   5.609   2.204  10.317 -0.5073 -0.2112  0.6970
   23SAPC    HS 2997   5.598   2.277  10.400 -1.9191 -0.2388  0.5568
   23SAPC   O21 2998   5.488   2.121  10.294  0.3877 -0.3836 -0.3947
   23SAPC   C21 2999   5.375   2.181  10.276  0.4582 -0.8064 -0.1859
   23SAPC   O22 3000   5.350   2.301  10.287  0.2149 -0.8723  0.3584
   23SAPC   C22 3001   5.265   2.081  10.245  0.6913  0.4546 -0.7852
   23SAPC   H2R 3002   5.297   1.995  10.307 -0.3957 -0.5253 -1.5344
   23SAPC   H2S 3003   5.171   2.115  10.294 -0.3663 -2.0535 -0.8980
   23SAPC    C3 3004   5.651   2.289  10.185  0.7349 -0.0614  0.6320
   23SAPC    HX 3005   5.757   2.323  10.178  0.8451 -0.5928 -0.7031
   23SAPC    HY 3006   5.582   2.375  10.192 -2.2161 -2.1901 -0.2593
   23SAPC   O31 3007   5.593   2.222  10.074 -0.4216 -0.0310  0.1167
   23SAPC   C31 3008   5.675   2.158   9.997 -0.5774  0.0886  0.6422
   23SAPC   O32 3009   5.796   2.170   9.991  0.0092 -0.3443 -0.1648
   23SAPC   C32 3010   5.597   2.055   9.906  0.3205  0.2459 -0.7445
   23SAPC   H2X 3011   5.490   2.051   9.935  0.4470  1.8549  0.0553
   23SAPC   H2Y 3012   5.639   1.959   9.943 -0.5319 -0.7480 -2.2951
   23SAPC   C23 3013   5.265   2.036  10.101  0.2871 -0.0586  0.3342
   23SAPC   H3R 3014   5.363   1.988  10.081  1.2658  2.4339 -1.2601
   23SAPC   H3S 3015   5.247   2.114  10.024  0.4451  1.5145  1.8224
   23SAPC   C24 3016   5.172   1.916  10.061 -0.5961 -0.1471 -0.1422
   23SAPC   H4R 3017   5.205   1.830  10.123  1.8106  0.9106  0.1692
   23SAPC   H4S 3018   5.184   1.893   9.953 -0.2154  4.1811 -1.1999
   23SAPC   C25 3019   5.030   1.961  10.096 -0.1317  0.2233 -0.1079
   23SAPC   H5R 3020   5.019   1.976  10.204 -2.6997 -0.1667 -0.2629
   23SAPC   C26 3021   4.924   1.990  10.015 -0.0914 -0.0252 -0.0477
   23SAPC   H6R 3022   4.830   2.024  10.060 -0.9724 -1.0512 -1.0525
   23SAPC   C27 3023   4.912   1.984   9.863 -0.5161  0.9977 -0.2495
   23SAPC   H7R 3024   4.994   1.921   9.821 -1.2903 -0.4189  0.2842
   23SAPC   H7S 3025   4.921   2.083   9.813 -0.5433  0.6837 -0.8892
   23SAPC   C28 3026   4.787   1.918   9.817 -0.1948  0.7897 -0.2322
   23SAPC   H8R 3027   4.725   1.858   9.886  1.2726  0.0829  0.5432
   23SAPC   C29 3028   4.753   1.912   9.681  0.0816  0.3279 -0.6244
   23SAPC   H9R 3029   4.654   1.874   9.652 -0.2265  0.9971 -0.4761
   23SAPC  C210 3030   4.830   1.980   9.562  0.3187  0.5878  0.5478
   23SAPC  H10R 3031   4.824   1.922   9.468  0.4541  0.2073  0.7686
   23SAPC  H10S 3032   4.938   1.988   9.584  0.6821  1.4180 -1.3770
   23SAPC  C211 3033   4.786   2.123   9.537  0.4068  0.0779 -0.0927
   23SAPC  H11R 3034   4.731   2.164   9.624  1.1298  1.2861 -0.1738
   23SAPC  C212 3035   4.797   2.204   9.433 -0.1196  0.2977  0.2484
   23SAPC  H12R 3036   4.742   2.299   9.432  0.3422  0.5580 -0.5202
   23SAPC  C213 3037   4.875   2.170   9.302 -0.8844  0.0039  0.2649
   23SAPC  H13R 3038   4.945   2.084   9.307  2.8292  2.7856 -0.3861
   23SAPC  H13S 3039   4.937   2.257   9.272 -2.4450  0.5901 -1.5095
   23SAPC  C214 3040   4.775   2.138   9.199 -0.0507  0.3168  0.1220
   23SAPC  H14R 3041   4.695   2.072   9.235 -0.5658  0.3451 -0.9387
   23SAPC  C215 3042   4.764   2.183   9.071 -0.0750  0.0244  0.0952
   23SAPC  H15R 3043   4.678   2.143   9.017  0.0123 -0.9264  0.6394
   23SAPC  C216 3044   4.853   2.282   9.002  0.0296 -0.6603  0.1831
   23SAPC  H16R 3045   4.927   2.329   9.071  3.0960 -3.2999 -1.0283
   23SAPC  H16S 3046   4.780   2.354   8.959 -1.7566 -1.7734  1.2297
   23SAPC  C217 3047   4.938   2.214   8.893 -0.1500 -0.3744 -0.0319
   23SAPC  H17R 3048   4.987   2.119   8.925  2.6085  0.8049 -0.5181
   23SAPC  H17S 3049   5.018   2.284   8.863 -0.5308 -0.1483 -0.5409
   23SAPC  C218 3050   4.868   2.199   8.757 -0.0315  0.0129 -0.1515
   23SAPC  H18R 3051   4.794   2.281   8.748  0.6924  0.8674  1.3680
   23SAPC  H18S 3052   4.800   2.110   8.754  0.0381 -0.0482  0.0584
   23SAPC  C219 3053   4.968   2.201   8.641 -0.4913  0.0283 -0.1870
   23SAPC  H19R 3054   5.047   2.124   8.657 -1.1058 -0.6943 -0.5909
   23SAPC  H19S 3055   5.021   2.298   8.641  0.8174 -0.6544  0.5296
   23SAPC  C220 3056   4.905   2.175   8.504 -0.6982 -0.6212 -0.1860
   23SAPC  H20R 3057   4.987   2.176   8.429 -1.7544  1.7489 -1.4150
   23SAPC  H20S 3058   4.844   2.262   8.473 -0.1780  0.1330  0.8733
   23SAPC  H20T 3059   4.861   2.073   8.503  3.6835 -2.8765  3.2245
   23SAPC   C33 3060   5.605   2.077   9.748 -0.6128 -0.0171 -0.2972
   23SAPC   H3X 3061   5.600   2.186   9.728  1.0489 -0.1453 -1.6373
   23SAPC   H3Y 3062   5.523   2.016   9.704  0.4727 -4.0532  2.6339
   23SAPC   C34 3063   5.738   2.026   9.702 -0.0148 -0.0838 -0.0384
   23SAPC   H4X 3064   5.746   1.924   9.744 -2.3127  0.9260  3.2096
   23SAPC   H4Y 3065   5.821   2.087   9.742 -0.7696  1.6074 -0.9426
   23SAPC   C35 3066   5.757   2.028   9.552 -0.1205  0.5191 -0.4488
   23SAPC   H5X 3067   5.676   1.960   9.517 -1.3193  1.5413  0.2684
   23SAPC   H5Y 3068   5.853   1.978   9.527 -0.4599  0.7878 -2.5270
   23SAPC   C36 3069   5.736   2.165   9.475  0.3188  0.1849  0.2613
   23SAPC   H6X 3070   5.836   2.210   9.495  1.5664 -2.0575 -0.5437
   23SAPC   H6Y 3071   5.654   2.222   9.524 -0.3407 -0.9789  0.5429
   23SAPC   C37 3072   5.721   2.144   9.324 -0.6697  0.1283  0.3638
   23SAPC   H7X 3073   5.612   2.122   9.315 -1.0950  0.3870  3.6822
   23SAPC   H7Y 3074   5.779   2.055   9.293  1.1001  2.2201 -2.9812
   23SAPC   C38 3075   5.771   2.261   9.227 -0.2750  0.3544 -0.3243
   23SAPC   H8X 3076   5.867   2.303   9.263 -0.5441 -0.7709  1.8882
   23SAPC   H8Y 3077   5.692   2.339   9.232  1.7475  2.3747  2.2329
   23SAPC   C39 3078   5.777   2.214   9.076 -0.4193  0.0052 -0.2732
   23SAPC   H9X 3079   5.674   2.206   9.035 -0.8135  1.1017  0.4545
   23SAPC   H9Y 3080   5.835   2.121   9.058  0.6801  0.9094 -1.6146
   23SAPC  C310 3081   5.851   2.331   9.002 -0.3065  0.8893 -0.2312
   23SAPC  H10X 3082   5.953   2.358   9.037 -0.5261  0.1012  1.0886
   23SAPC  H10Y 3083   5.786   2.421   9.012  1.0666  1.7279  1.7641
   23SAPC  C311 3084   5.865   2.301   8.851  0.1084 -0.2850 -0.1094
   23SAPC  H11X 3085   5.868   2.392   8.787 -0.3855  1.5924  2.4204
   23SAPC  H11Y 3086   5.778   2.237   8.823  0.3703 -0.6921 -0.0075
   23SAPC  C312 3087   5.986   2.220   8.804  0.0692  0.3737 -0.0135
   23SAPC  H12X 3088   5.989   2.120   8.852 -1.2062 -0.8777 -2.3524
   23SAPC  H12Y 3089   6.079   2.277   8.823  0.5338 -0.0139 -1.0357
   23SAPC  C313 3090   5.991   2.186   8.655  0.5763 -0.2710  0.0759
   23SAPC  H13X 3091   5.999   2.275   8.590  0.0020  0.1026  0.5081
   23SAPC  H13Y 3092   5.892   2.142   8.629 -0.2496  0.4280  1.8351
   23SAPC  C314 3093   6.104   2.091   8.621  0.6481 -0.5397  0.0295
   23SAPC  H14X 3094   6.085   2.003   8.686 -1.6368 -0.1098  0.0077
   23SAPC  H14Y 3095   6.197   2.136   8.662  1.5343 -1.8293 -0.4845
   23SAPC  C315 3096   6.131   2.069   8.473 -0.1042  0.9197  0.0492
   23SAPC  H15X 3097   6.164   2.168   8.434  0.2363  1.1279  0.8532
   23SAPC  H15Y 3098   6.038   2.046   8.416  0.6415 -0.4517 -0.6668
   23SAPC  C316 3099   6.235   1.963   8.455 -0.3301 -0.5278 -0.4249
   23SAPC  H16X 3100   6.188   1.870   8.493 -0.3344  0.0488  1.0549
   23SAPC  H16Y 3101   6.318   1.982   8.526  0.4821 -0.5140 -1.3544
   23SAPC  C317 3102   6.300   1.939   8.322 -0.7175 -0.3356  0.4084
   23SAPC  H17X 3103   6.376   1.859   8.332 -0.4924  0.0570  2.2781
   23SAPC  H17Y 3104   6.354   2.028   8.283 -1.7269  0.5142  0.9011
   23SAPC  C318 3105   6.189   1.886   8.233 -0.0490 -0.6694 -1.1241
   23SAPC  H18X 3106   6.223   1.823   8.148 -1.2236 -0.2445 -1.9350
   23SAPC  H18Y 3107   6.124   1.972   8.205  2.3292  1.2239 -1.1231
   23SAPC  H18Z 3108   6.121   1.819   8.289 -0.9584  1.4310  0.4222
   24SAPC     N 3109   2.654   5.975  11.251  0.1478  0.1498  0.5578
   24SAPC   C12 3110   2.624   5.945  11.102  0.0231  0.0352 -0.6423
   24SAPC  H12A 3111   2.577   6.031  11.058  1.1376  1.0996  0.1534
   24SAPC  H12B 3112   2.547   5.870  11.097  0.9343 -0.8597 -1.8686
   24SAPC   C13 3113   2.521   6.010  11.315 -0.1444 -0.0308  0.4083
   24SAPC  H13A 3114   2.480   5.911  11.326  1.3949 -0.8630 -0.9219
   24SAPC  H13B 3115   2.540   6.068  11.405  1.9157  1.0816 -0.6713
   24SAPC  H13C 3116   2.459   6.066  11.246 -0.3519 -1.1415 -0.3365
   24SAPC   C14 3117   2.712   5.861  11.320 -0.3075 -0.2333  0.1182
   24SAPC  H14A 3118   2.811   5.847  11.279 -0.7917  0.4485 -1.3639
   24SAPC  H14B 3119   2.732   5.883  11.424 -1.2979  2.6479 -0.2086
   24SAPC  H14C 3120   2.658   5.769  11.302 -2.6154  1.1872 -0.6749
   24SAPC   C15 3121   2.744   6.095  11.268  0.6415  0.1973  0.0176
   24SAPC  H15A 3122   2.774   6.119  11.369  0.3886  2.7684 -0.4550
   24SAPC  H15B 3123   2.829   6.089  11.201  1.0329 -0.4928  0.5607
   24SAPC  H15C 3124   2.679   6.176  11.242 -0.5323 -0.7103  0.0378
   24SAPC   C11 3125   2.749   5.908  11.020  0.6769 -0.2635  0.0523
   24SAPC  H11A 3126   2.707   5.863  10.928  0.8661 -1.7113  0.6572
   24SAPC  H11B 3127   2.810   5.834  11.076  0.5992  1.1205  2.1102
   24SAPC     P 3128   2.767   6.144  10.911 -0.3442 -0.3548 -0.0210
   24SAPC   O13 3129   2.625   6.164  10.947  0.2558  0.1941  0.1560
   24SAPC   O14 3130   2.846   6.272  10.928 -0.0678  1.1150 -0.4688
   24SAPC   O12 3131   2.833   6.020  10.987  0.1044  0.5367 -0.0271
   24SAPC   O11 3132   2.772   6.104  10.759 -0.2790  0.2888  0.8264
   24SAPC    C1 3133   2.862   6.017  10.695 -0.1776 -0.4240 -0.1097
   24SAPC    HA 3134   2.960   5.998  10.744  0.8902  0.4405 -1.7940
   24SAPC    HB 3135   2.820   5.916  10.674  0.1353 -0.2990 -1.4257
   24SAPC    C2 3136   2.888   6.084  10.558 -0.7926  0.0565  0.8145
   24SAPC    HS 3137   2.934   6.182  10.582 -1.2449  1.1704 -2.3425
   24SAPC   O21 3138   2.756   6.098  10.490  0.0556 -0.2217 -0.0741
   24SAPC   C21 3139   2.747   6.200  10.401 -0.6498  0.1625 -0.2816
   24SAPC   O22 3140   2.832   6.285  10.381  0.7081 -0.3410  0.4056
   24SAPC   C22 3141   2.613   6.176  10.335  1.5233 -0.1657  0.3557
   24SAPC   H2R 3142   2.603   6.068  10.309  0.2126 -0.2006  0.9400
   24SAPC   H2S 3143   2.541   6.183  10.419  0.1710 -0.8528 -0.6905
   24SAPC    C3 3144   3.000   6.017  10.466  0.0427 -0.4013  0.3584
   24SAPC    HX 3145   2.965   5.913  10.448  0.1448 -0.3621 -0.0904
   24SAPC    HY 3146   3.100   6.008  10.514  0.7778 -1.3965 -1.2414
   24SAPC   O31 3147   3.003   6.077  10.333  0.0828 -0.8049 -0.1271
   24SAPC   C31 3148   3.105   6.167  10.317 -0.4536  0.0911 -0.5420
   24SAPC   O32 3149   3.190   6.191  10.401  0.0215 -0.2530  0.1136
   24SAPC   C32 3150   3.087   6.241  10.192 -0.6337 -0.5221  0.6443
   24SAPC   H2X 3151   3.014   6.324  10.205 -0.3229  0.4903 -2.9862
   24SAPC   H2Y 3152   3.047   6.166  10.120 -2.3700  0.6055  0.3588
   24SAPC   C23 3153   2.568   6.268  10.217 -0.3489 -0.2088  0.1921
   24SAPC   H3R 3154   2.631   6.360  10.215  0.6179 -0.7173  3.0439
   24SAPC   H3S 3155   2.458   6.288  10.217 -0.0824  1.6421 -1.9130
   24SAPC   C24 3156   2.592   6.214  10.072  0.5267 -0.2586 -0.2826
   24SAPC   H4R 3157   2.544   6.288  10.005  1.1504  1.2754  0.9260
   24SAPC   H4S 3158   2.538   6.117  10.061 -1.0665  0.5094  0.5065
   24SAPC   C25 3159   2.738   6.204  10.050  0.1809 -0.5004 -0.1830
   24SAPC   H5R 3160   2.797   6.158  10.130  1.5683 -0.1354 -0.9719
   24SAPC   C26 3161   2.805   6.228   9.933  0.1163 -0.1584 -0.0871
   24SAPC   H6R 3162   2.915   6.224   9.929  0.0525 -0.6527 -2.0969
   24SAPC   C27 3163   2.754   6.275   9.795  0.1085 -0.1491  0.4099
   24SAPC   H7R 3164   2.846   6.295   9.736  0.6338  0.6746  1.4640
   24SAPC   H7S 3165   2.704   6.373   9.809  0.6144  0.3001 -0.7938
   24SAPC   C28 3166   2.664   6.180   9.722  0.1242  0.5428  0.0190
   24SAPC   H8R 3167   2.578   6.136   9.776  1.7948 -4.3254 -0.8119
   24SAPC   C29 3168   2.696   6.112   9.609 -0.2538  0.4887 -0.0838
   24SAPC   H9R 3169   2.612   6.045   9.582 -0.1161  0.6550 -0.9797
   24SAPC  C210 3170   2.817   6.116   9.516  0.5088 -0.3979  0.8898
   24SAPC  H10R 3171   2.842   6.010   9.497 -0.7968 -0.7786  1.1725
   24SAPC  H10S 3172   2.907   6.155   9.568  2.3894 -1.9773 -1.0593
   24SAPC  C211 3173   2.778   6.193   9.393 -0.4811 -0.1076 -0.4652
   24SAPC  H11R 3174   2.769   6.302   9.405 -1.3459 -0.0745 -1.2282
   24SAPC  C212 3175   2.764   6.138   9.269  0.6999 -0.0321 -0.4164
   24SAPC  H12R 3176   2.737   6.204   9.185  1.1617  1.3555  0.4973
   24SAPC  C213 3177   2.792   5.993   9.234 -0.0160 -0.7061 -0.5261
   24SAPC  H13R 3178   2.718   5.979   9.152 -0.3182  1.8451 -0.7633
   24SAPC  H13S 3179   2.763   5.928   9.320 -0.3516  1.3794  1.0215
   24SAPC  C214 3180   2.936   5.970   9.188 -0.4641  0.5764  0.3442
   24SAPC  H14R 3181   2.999   5.942   9.274  0.7163  1.1885 -0.3002
   24SAPC  C215 3182   2.992   5.968   9.065  0.0846  0.0332 -0.4301
   24SAPC  H15R 3183   3.102   5.963   9.060  0.2997  0.7590  2.1688
   24SAPC  C216 3184   2.911   5.983   8.936 -0.4985 -0.0063 -0.4903
   24SAPC  H16R 3185   2.972   6.049   8.871 -0.5189 -1.0052 -1.5693
   24SAPC  H16S 3186   2.812   6.024   8.964 -1.2139 -2.6879  1.3175
   24SAPC  C217 3187   2.888   5.834   8.879  0.5872  0.4030 -0.1893
   24SAPC  H17R 3188   2.809   5.777   8.931 -0.6905  1.0176 -1.4009
   24SAPC  H17S 3189   2.978   5.770   8.866 -0.0246 -0.3806 -0.6837
   24SAPC  C218 3190   2.834   5.854   8.737 -0.0297  0.2161  0.2350
   24SAPC  H18R 3191   2.900   5.912   8.668 -0.2670 -0.3598 -0.4901
   24SAPC  H18S 3192   2.739   5.911   8.738  0.3632  0.9947 -1.8410
   24SAPC  C219 3193   2.798   5.724   8.671  0.8578  0.0486  0.0450
   24SAPC  H19R 3194   2.756   5.651   8.744  1.4888  0.1587  0.5245
   24SAPC  H19S 3195   2.892   5.672   8.644  0.1369 -1.1287 -0.2972
   24SAPC  C220 3196   2.709   5.751   8.553  0.0775  0.0451 -0.7432
   24SAPC  H20R 3197   2.757   5.828   8.490  0.4977  0.1717 -0.2757
   24SAPC  H20S 3198   2.611   5.789   8.591  0.2205 -0.1053 -0.2216
   24SAPC  H20T 3199   2.687   5.663   8.490 -3.0574  0.2959 -0.1731
   24SAPC   C33 3200   3.218   6.308  10.142  0.6466  0.7150 -0.3699
   24SAPC   H3X 3201   3.257   6.370  10.225 -2.7672 -1.5516  3.2450
   24SAPC   H3Y 3202   3.201   6.365  10.048  0.1646  0.5036 -0.4111
   24SAPC   C34 3203   3.323   6.193  10.106  0.5084 -1.0223 -0.6197
   24SAPC   H4X 3204   3.315   6.123  10.192  0.0777 -1.9267 -1.3831
   24SAPC   H4Y 3205   3.428   6.230  10.110  0.3803 -0.6351 -0.7550
   24SAPC   C35 3206   3.299   6.109   9.989 -0.0519  0.1979  0.1954
   24SAPC   H5X 3207   3.197   6.066   9.990  0.3194 -1.2193 -3.8743
   24SAPC   H5Y 3208   3.370   6.023   9.984 -1.8683 -1.3074 -0.6245
   24SAPC   C36 3209   3.326   6.189   9.863  0.6275  0.1359  0.2571
   24SAPC   H6X 3210   3.433   6.217   9.857  0.8406 -0.4629  1.1944
   24SAPC   H6Y 3211   3.261   6.279   9.862 -0.6978 -0.7975 -0.2817
   24SAPC   C37 3212   3.288   6.106   9.737 -0.2883  0.1118 -0.1617
   24SAPC   H7X 3213   3.201   6.157   9.690 -1.8249 -0.5623  1.8075
   24SAPC   H7Y 3214   3.243   6.008   9.761  0.7095 -0.8263 -1.9643
   24SAPC   C38 3215   3.386   6.093   9.629 -0.8633  0.3633  0.6302
   24SAPC   H8X 3216   3.450   6.006   9.654  1.3891  1.7562  0.0235
   24SAPC   H8Y 3217   3.448   6.185   9.629 -0.5725  0.1732  1.2447
   24SAPC   C39 3218   3.320   6.072   9.491  0.1379 -0.3602  0.3891
   24SAPC   H9X 3219   3.246   6.153   9.470 -0.6334 -0.8569  1.1652
   24SAPC   H9Y 3220   3.249   5.987   9.493  0.5372 -0.6811  1.0722
   24SAPC  C310 3221   3.423   6.067   9.380 -0.2763  1.2091  0.2824
   24SAPC  H10X 3222   3.486   5.977   9.398  2.8426  2.9006 -1.3526
   24SAPC  H10Y 3223   3.494   6.152   9.385  0.7704  0.3815 -0.1803
   24SAPC  C311 3224   3.362   6.052   9.240  0.3394 -0.0395 -0.6612
   24SAPC  H11X 3225   3.306   6.143   9.210  1.7098  1.4343  1.0590
   24SAPC  H11Y 3226   3.279   5.978   9.245 -0.6038  1.0835  1.6283
   24SAPC  C312 3227   3.473   6.010   9.147 -0.7975 -0.0084  0.0437
   24SAPC  H12X 3228   3.525   5.916   9.174 -0.4464 -1.0463 -3.7149
   24SAPC  H12Y 3229   3.553   6.085   9.168  0.5399 -1.8182  1.8364
   24SAPC  C313 3230   3.440   5.993   8.994 -0.0581  0.0713  0.1252
   24SAPC  H13X 3231   3.375   5.905   8.976 -0.1409  0.6039 -2.6164
   24SAPC  H13Y 3232   3.529   5.971   8.931 -0.5054  2.0453 -1.3358
   24SAPC  C314 3233   3.382   6.122   8.941  0.1952  0.5367  0.0562
   24SAPC  H14X 3234   3.447   6.206   8.974 -1.0207  1.1273  1.0461
   24SAPC  H14Y 3235   3.287   6.136   8.998  1.5460 -0.5100  2.7466
   24SAPC  C315 3236   3.347   6.136   8.791  0.3572  0.3681  0.4880
   24SAPC  H15X 3237   3.443   6.157   8.738  0.7785 -0.8453  0.7336
   24SAPC  H15Y 3238   3.270   6.214   8.774  0.8744  1.0245  1.0976
   24SAPC  C316 3239   3.292   6.013   8.733 -0.2622  0.2923  0.1571
   24SAPC  H16X 3240   3.192   5.989   8.777  0.1567  1.6877  1.9995
   24SAPC  H16Y 3241   3.363   5.932   8.759 -0.3282 -0.1054 -0.8296
   24SAPC  C317 3242   3.259   6.009   8.583 -0.8220  0.2206  0.1020
   24SAPC  H17X 3243   3.345   6.028   8.516  0.5721  2.0137  2.2614
   24SAPC  H17Y 3244   3.194   6.093   8.550  0.5987  0.8532 -1.1830
   24SAPC  C318 3245   3.199   5.877   8.542 -0.0358  0.2228 -0.0648
   24SAPC  H18X 3246   3.272   5.794   8.555 -1.1716 -0.5939  1.3677
   24SAPC  H18Y 3247   3.169   5.874   8.434 -0.3196 -2.9722 -0.0068
   24SAPC  H18Z 3248   3.109   5.855   8.604 -1.3779  0.6801 -1.7731
   25SAPC     N 3249   5.621   3.076   5.887 -0.1883  0.7540 -0.6658
   25SAPC   C12 3250   5.608   2.936   5.824  0.5267 -0.4645  0.3688
   25SAPC  H12A 3251   5.660   2.926   5.731 -1.0005 -0.1632 -0.5530
   25SAPC  H12B 3252   5.505   2.927   5.793  0.2892  2.0579  0.1722
   25SAPC   C13 3253   5.548   3.091   6.017  0.0472  0.3602 -0.1373
   25SAPC  H13A 3254   5.590   3.025   6.092  0.3848 -2.5723 -2.7108
   25SAPC  H13B 3255   5.559   3.191   6.055  2.0996 -0.3820  1.4173
   25SAPC  H13C 3256   5.442   3.076   6.006  0.2654  0.3313 -2.9452
   25SAPC   C14 3257   5.769   3.105   5.923  0.2904  0.0980 -0.6716
   25SAPC  H14A 3258   5.820   3.112   5.829 -0.2174 -0.1241 -0.9675
   25SAPC  H14B 3259   5.772   3.197   5.980  0.6324 -0.7906  0.8199
   25SAPC  H14C 3260   5.814   3.032   5.989  1.8092  2.0232  0.5456
   25SAPC   C15 3261   5.579   3.188   5.801 -0.1775 -0.4371 -0.9563
   25SAPC  H15A 3262   5.473   3.189   5.780 -0.9106  0.1392  2.1309
   25SAPC  H15B 3263   5.592   3.284   5.850 -0.2802 -1.2794  0.8070
   25SAPC  H15C 3264   5.634   3.191   5.709  0.2534 -2.2019 -0.7781
   25SAPC   C11 3265   5.657   2.817   5.913 -0.6016  0.7110  0.8766
   25SAPC  H11A 3266   5.759   2.826   5.956 -0.4962 -1.4319  1.1515
   25SAPC  H11B 3267   5.674   2.730   5.847 -0.7591  1.3924 -0.0926
   25SAPC     P 3268   5.566   2.627   6.086 -0.1216 -0.4513 -0.1390
   25SAPC   O13 3269   5.497   2.653   6.212 -0.3738 -0.4341  0.5533
   25SAPC   O14 3270   5.513   2.531   5.988  0.4860 -0.5470  0.1818
   25SAPC   O12 3271   5.566   2.772   6.015 -0.5834  0.0438  0.7331
   25SAPC   O11 3272   5.721   2.607   6.117 -0.0102  0.2167  0.0346
   25SAPC    C1 3273   5.782   2.474   6.132 -0.2076  0.4534 -0.1827
   25SAPC    HA 3274   5.743   2.400   6.059  1.4495  0.7212 -1.4088
   25SAPC    HB 3275   5.892   2.487   6.133 -0.3664  1.9550 -0.2941
   25SAPC    C2 3276   5.734   2.420   6.264  0.3076  0.8678 -0.2655
   25SAPC    HS 3277   5.629   2.388   6.249 -0.0917  1.4508  1.1844
   25SAPC   O21 3278   5.753   2.518   6.366 -0.1877 -0.1177 -0.2296
   25SAPC   C21 3279   5.653   2.525   6.458  0.1106  0.4536  1.0969
   25SAPC   O22 3280   5.554   2.450   6.469 -1.1023  0.2433  0.3707
   25SAPC   C22 3281   5.683   2.645   6.548 -0.0929 -0.1122 -0.2037
   25SAPC   H2R 3282   5.794   2.640   6.555 -0.0794 -0.6564 -0.7257
   25SAPC   H2S 3283   5.656   2.735   6.490 -1.0104 -1.3597 -1.7934
   25SAPC    C3 3284   5.824   2.295   6.291  0.0783 -0.3991 -0.1572
   25SAPC    HX 3285   5.927   2.335   6.288  1.2083 -3.1642 -1.1430
   25SAPC    HY 3286   5.821   2.222   6.208  0.7597 -0.7749  0.1460
   25SAPC   O31 3287   5.791   2.226   6.416  0.0133  0.0659  0.0068
   25SAPC   C31 3288   5.695   2.146   6.416  0.3656  0.1346  0.8137
   25SAPC   O32 3289   5.612   2.131   6.329  0.3794  0.1645  0.8128
   25SAPC   C32 3290   5.691   2.080   6.557 -0.2970  0.4573 -0.2509
   25SAPC   H2X 3291   5.735   1.979   6.539 -1.5565 -0.0206 -0.7351
   25SAPC   H2Y 3292   5.588   2.053   6.587  0.8624 -3.3343  0.9227
   25SAPC   C23 3293   5.619   2.623   6.688  0.1140 -0.2627 -0.4585
   25SAPC   H3R 3294   5.655   2.524   6.722 -0.2046 -0.6196 -1.1306
   25SAPC   H3S 3295   5.508   2.619   6.681  0.1156 -2.3986 -0.0867
   25SAPC   C24 3296   5.659   2.728   6.798  0.1817  0.8443  0.6205
   25SAPC   H4R 3297   5.765   2.708   6.826  0.5807 -1.3676 -2.0355
   25SAPC   H4S 3298   5.602   2.699   6.889  1.8113  1.4504  1.8925
   25SAPC   C25 3299   5.626   2.866   6.753 -0.2445 -0.3272  0.1481
   25SAPC   H5R 3300   5.530   2.885   6.702 -1.1278 -0.0199  1.8556
   25SAPC   C26 3301   5.713   2.971   6.754  0.3189  0.2155 -0.1561
   25SAPC   H6R 3302   5.678   3.069   6.721  3.1169  0.3866 -3.1016
   25SAPC   C27 3303   5.853   2.965   6.806 -0.3167 -0.5680  0.2286
   25SAPC   H7R 3304   5.894   2.869   6.767 -2.5061 -1.9112  1.0369
   25SAPC   H7S 3305   5.847   2.952   6.916 -0.8823  0.3356  0.3072
   25SAPC   C28 3306   5.953   3.073   6.761 -0.4846  0.7678  0.0373
   25SAPC   H8R 3307   5.953   3.120   6.661  2.1109  0.7610 -0.0371
   25SAPC   C29 3308   6.046   3.123   6.842  0.8679  0.6529 -1.2522
   25SAPC   H9R 3309   6.106   3.206   6.801  2.5108 -0.0100 -0.2833
   25SAPC  C210 3310   6.069   3.095   6.988 -0.3458  0.7127 -0.3021
   25SAPC  H10R 3311   5.966   3.091   7.031 -0.4765 -0.0375 -0.6579
   25SAPC  H10S 3312   6.120   3.186   7.026 -0.5452  1.4360 -1.6836
   25SAPC  C211 3313   6.153   2.977   7.035  0.5512 -0.0029  0.7267
   25SAPC  H11R 3314   6.206   2.928   6.952 -2.9962 -0.7563 -1.3163
   25SAPC  C212 3315   6.159   2.921   7.158  0.2002 -0.3797 -0.6613
   25SAPC  H12R 3316   6.242   2.852   7.180  1.5673  0.9470 -1.4064
   25SAPC  C213 3317   6.098   2.960   7.292  0.2333 -0.1769  0.3778
   25SAPC  H13R 3318   6.027   3.046   7.278  1.0967  0.4680 -0.1393
   25SAPC  H13S 3319   6.180   2.993   7.359  0.5359  0.8093 -0.4466
   25SAPC  C214 3320   6.010   2.854   7.345 -0.3460 -0.2163  0.0007
   25SAPC  H14R 3321   5.968   2.784   7.271 -1.1621 -0.7547  0.9525
   25SAPC  C215 3322   5.975   2.836   7.473 -0.2308 -0.4286 -0.0622
   25SAPC  H15R 3323   5.909   2.753   7.502 -0.9399  0.6507  1.5118
   25SAPC  C216 3324   6.032   2.919   7.582 -0.0004 -0.2684  0.7728
   25SAPC  H16R 3325   6.033   3.029   7.568  1.3552 -0.0995  1.8679
   25SAPC  H16S 3326   6.141   2.895   7.587  0.0869 -1.2760 -2.8928
   25SAPC  C217 3327   5.976   2.892   7.727  0.1600  0.3566 -0.6272
   25SAPC  H17R 3328   5.950   2.785   7.740 -2.3427  1.1224  1.4431
   25SAPC  H17S 3329   5.877   2.940   7.739 -1.1061 -1.9774 -1.0707
   25SAPC  C218 3330   6.080   2.931   7.834  1.0863  0.2023  0.4587
   25SAPC  H18R 3331   6.110   3.035   7.809 -1.5981  0.7125 -1.0416
   25SAPC  H18S 3332   6.162   2.861   7.808  1.1539  0.5140 -0.1844
   25SAPC  C219 3333   6.032   2.909   7.981  0.0667 -0.0229  0.8682
   25SAPC  H19R 3334   5.991   2.807   8.000  2.9469 -1.5386 -0.5358
   25SAPC  H19S 3335   5.956   2.984   8.015 -0.0471 -0.4940  1.6856
   25SAPC  C220 3336   6.143   2.928   8.081  0.4305 -0.2305  0.0801
   25SAPC  H20R 3337   6.100   2.902   8.180 -0.5672 -0.9779 -0.5254
   25SAPC  H20S 3338   6.183   3.031   8.076 -0.1757 -0.0268 -3.4075
   25SAPC  H20T 3339   6.230   2.861   8.060  1.7872  2.1092 -2.3787
   25SAPC   C33 3340   5.752   2.153   6.676  0.7094 -0.1370  0.0200
   25SAPC   H3X 3341   5.698   2.248   6.695  1.6657  0.4331 -0.0749
   25SAPC   H3Y 3342   5.858   2.173   6.652  0.7929 -0.6278 -0.0478
   25SAPC   C34 3343   5.743   2.071   6.800  0.5109 -0.0561  0.0909
   25SAPC   H4X 3344   5.778   1.967   6.785  0.1463 -0.5216  2.1689
   25SAPC   H4Y 3345   5.637   2.059   6.831 -0.3143  2.8903 -1.1469
   25SAPC   C35 3346   5.832   2.127   6.912  0.4341  0.1224 -0.5734
   25SAPC   H5X 3347   5.768   2.197   6.970 -0.6606 -1.8398  0.7155
   25SAPC   H5Y 3348   5.920   2.177   6.867  0.9539  0.5406  0.8516
   25SAPC   C36 3349   5.887   2.026   7.007  0.5261  0.0196 -0.1389
   25SAPC   H6X 3350   5.960   1.963   6.951  0.4856 -2.1111  2.0402
   25SAPC   H6Y 3351   5.819   1.949   7.049 -0.3553  0.9424  0.1660
   25SAPC   C37 3352   5.981   2.085   7.117  0.0660 -0.3150  0.1836
   25SAPC   H7X 3353   5.928   2.160   7.179 -2.3562 -2.5699  0.9930
   25SAPC   H7Y 3354   6.063   2.130   7.057 -1.5497  1.9252 -0.4933
   25SAPC   C38 3355   6.053   1.990   7.218 -0.0156 -0.5500  1.0702
   25SAPC   H8X 3356   6.130   2.049   7.272 -0.1000  0.1082  0.4744
   25SAPC   H8Y 3357   6.099   1.912   7.154 -0.1839  1.3265 -1.4861
   25SAPC   C39 3358   5.942   1.940   7.316 -0.3112 -0.6666  0.6193
   25SAPC   H9X 3359   5.927   1.831   7.300 -3.7818 -0.1380 -0.7290
   25SAPC   H9Y 3360   5.845   1.992   7.301 -0.6532 -0.3132  3.4488
   25SAPC  C310 3361   5.987   1.953   7.465 -0.6625  0.2519 -0.5337
   25SAPC  H10X 3362   5.977   2.059   7.496 -0.2055  0.9277 -2.5282
   25SAPC  H10Y 3363   6.089   1.915   7.488 -0.9129 -0.3302 -0.3659
   25SAPC  C311 3364   5.883   1.875   7.555 -0.6703 -0.0412 -0.5773
   25SAPC  H11X 3365   5.878   1.770   7.522 -2.4757  0.0834 -0.7770
   25SAPC  H11Y 3366   5.787   1.927   7.536 -1.5551 -0.7927  1.5280
   25SAPC  C312 3367   5.923   1.869   7.713  1.0941 -0.1375  0.6709
   25SAPC  H12X 3368   5.952   1.976   7.713 -0.3348  0.2841 -0.2147
   25SAPC  H12Y 3369   6.016   1.809   7.716  2.1073  1.3454 -0.1225
   25SAPC  C313 3370   5.802   1.827   7.810 -0.1886 -0.6175  0.2340
   25SAPC  H13X 3371   5.757   1.732   7.773 -2.1852  1.4152 -3.1095
   25SAPC  H13Y 3372   5.726   1.909   7.808 -0.2715 -0.6832  0.6612
   25SAPC  C314 3373   5.850   1.828   7.959  0.3490 -0.1147  0.2887
   25SAPC  H14X 3374   5.895   1.929   7.974  3.2298 -0.5837 -3.6698
   25SAPC  H14Y 3375   5.932   1.753   7.965 -1.0974 -1.7291  0.5677
   25SAPC  C315 3376   5.742   1.806   8.061 -0.2411  0.0498 -1.4934
   25SAPC  H15X 3377   5.699   1.708   8.033  0.4989 -0.5015 -0.7706
   25SAPC  H15Y 3378   5.662   1.883   8.048 -2.8091 -1.9759  0.9539
   25SAPC  C316 3379   5.789   1.794   8.208 -0.0853  0.4622  0.6492
   25SAPC  H16X 3380   5.706   1.846   8.261  2.1089  1.8539  2.9297
   25SAPC  H16Y 3381   5.883   1.854   8.209 -0.8732  1.8765 -1.5778
   25SAPC  C317 3382   5.802   1.655   8.268  0.9626  0.2585  0.1248
   25SAPC  H17X 3383   5.871   1.591   8.209 -1.4143 -0.1608 -2.4036
   25SAPC  H17Y 3384   5.703   1.606   8.252  1.3805 -0.6460  0.2856
   25SAPC  C318 3385   5.834   1.658   8.419  0.3795 -0.2726  0.2079
   25SAPC  H18X 3386   5.827   1.554   8.456  1.4009 -0.3349  0.2775
   25SAPC  H18Y 3387   5.764   1.716   8.482  0.4276 -0.1212  0.1255
   25SAPC  H18Z 3388   5.930   1.711   8.439 -0.1428  1.1556 -0.8123
   26SAPC     N 3389   5.323   5.381   6.056  0.4710  0.0520  0.4993
   26SAPC   C12 3390   5.395   5.476   6.153  0.1025 -0.1142  0.4065
   26SAPC  H12A 3391   5.395   5.570   6.099  0.2136  0.9947  2.2387
   26SAPC  H12B 3392   5.496   5.446   6.175 -0.9008 -2.9729  1.6933
   26SAPC   C13 3393   5.292   5.251   6.121 -0.0276 -1.0382 -0.1818
   26SAPC  H13A 3394   5.213   5.257   6.195  0.4542  1.6260  0.2320
   26SAPC  H13B 3395   5.268   5.174   6.049 -0.8125 -0.4156 -0.5971
   26SAPC  H13C 3396   5.383   5.224   6.174  0.8144  1.3399 -0.3083
   26SAPC   C14 3397   5.184   5.430   6.003 -0.9646  0.2955  0.1287
   26SAPC  H14A 3398   5.195   5.507   5.928 -4.4770 -0.7965 -1.7099
   26SAPC  H14B 3399   5.139   5.344   5.955  1.0026 -0.4615 -0.4647
   26SAPC  H14C 3400   5.127   5.472   6.085  1.7238  2.8725  0.8633
   26SAPC   C15 3401   5.403   5.360   5.935  1.1409  0.6178 -0.0416
   26SAPC  H15A 3402   5.365   5.286   5.866  0.7110  3.6756 -3.3784
   26SAPC  H15B 3403   5.428   5.453   5.886  0.4734  1.0761  0.4810
   26SAPC  H15C 3404   5.496   5.312   5.962  0.8707 -0.7366 -1.3810
   26SAPC   C11 3405   5.320   5.499   6.287 -0.5653 -0.7121 -0.0296
   26SAPC  H11A 3406   5.387   5.554   6.356 -0.6398  0.8832 -1.1741
   26SAPC  H11B 3407   5.303   5.401   6.335 -0.6765 -1.1322 -0.8941
   26SAPC     P 3408   5.185   5.722   6.246 -0.0180 -0.1262  0.3891
   26SAPC   O13 3409   5.263   5.771   6.132  0.1011 -0.0025 -0.1905
   26SAPC   O14 3410   5.040   5.766   6.251  0.5354  0.5453  0.5310
   26SAPC   O12 3411   5.196   5.566   6.264  0.4502 -0.5075 -0.2876
   26SAPC   O11 3412   5.265   5.783   6.374  0.1928 -0.0684  0.1985
   26SAPC    C1 3413   5.237   5.746   6.506 -0.8652 -0.0934 -0.2370
   26SAPC    HA 3414   5.151   5.677   6.508 -2.2131  1.5104 -0.4979
   26SAPC    HB 3415   5.331   5.703   6.548 -0.2994  1.3533  0.0558
   26SAPC    C2 3416   5.196   5.875   6.586 -0.1789 -0.5364  0.5039
   26SAPC    HS 3417   5.289   5.935   6.584  0.4006 -1.4337 -0.6292
   26SAPC   O21 3418   5.156   5.834   6.710  0.1559  0.2359  0.2706
   26SAPC   C21 3419   5.255   5.814   6.798 -0.6587 -0.5765 -0.3711
   26SAPC   O22 3420   5.371   5.840   6.771  0.3017  0.0111 -0.4957
   26SAPC   C22 3421   5.199   5.754   6.931 -0.0716  0.0145 -0.4577
   26SAPC   H2R 3422   5.097   5.794   6.951  0.2710  0.9875 -0.6230
   26SAPC   H2S 3423   5.208   5.644   6.941 -2.6612 -0.1801  0.5219
   26SAPC    C3 3424   5.077   5.955   6.520  0.1549  0.0021  1.1205
   26SAPC    HX 3425   4.990   5.886   6.512  0.7061 -0.4358 -2.0338
   26SAPC    HY 3426   5.101   5.988   6.417 -0.1392 -0.9989  0.7203
   26SAPC   O31 3427   5.029   6.067   6.600 -0.2677 -0.2930 -0.6808
   26SAPC   C31 3428   5.085   6.186   6.580  0.2994 -0.1507 -0.1966
   26SAPC   O32 3429   5.186   6.202   6.511  0.1976 -0.1997 -0.0014
   26SAPC   C32 3430   4.994   6.294   6.642  0.6443  0.6265 -0.4843
   26SAPC   H2X 3431   5.001   6.269   6.750 -2.9215 -6.1660 -1.2791
   26SAPC   H2Y 3432   4.891   6.275   6.605  2.0707 -0.5887 -4.3514
   26SAPC   C23 3433   5.285   5.812   7.052  0.2755 -0.4023  0.5051
   26SAPC   H3R 3434   5.268   5.922   7.055 -1.1745 -0.6147  1.2479
   26SAPC   H3S 3435   5.391   5.797   7.025  0.1044  1.3696 -1.4196
   26SAPC   C24 3436   5.258   5.754   7.184 -0.0643  0.4093  0.3694
   26SAPC   H4R 3437   5.331   5.790   7.260  2.0281 -0.0778 -1.3168
   26SAPC   H4S 3438   5.273   5.644   7.176 -0.0971  0.4299  0.0080
   26SAPC   C25 3439   5.123   5.802   7.225  0.2294 -0.1301 -0.4866
   26SAPC   H5R 3440   5.061   5.844   7.145 -1.2333  0.6480  1.0006
   26SAPC   C26 3441   5.084   5.816   7.353 -0.4663  0.3161 -0.3716
   26SAPC   H6R 3442   4.982   5.853   7.371  0.0834  0.8949  1.8448
   26SAPC   C27 3443   5.161   5.779   7.485  0.5371 -0.3790 -0.4197
   26SAPC   H7R 3444   5.187   5.879   7.525 -0.0336 -0.1700 -0.5615
   26SAPC   H7S 3445   5.267   5.753   7.464  1.0166  1.6012 -0.7367
   26SAPC   C28 3446   5.095   5.684   7.583  0.1019 -0.0569 -0.0187
   26SAPC   H8R 3447   5.041   5.608   7.525 -0.2005  1.7537 -2.2627
   26SAPC   C29 3448   5.095   5.694   7.714  0.0730  0.2395 -0.0717
   26SAPC   H9R 3449   5.046   5.617   7.777 -2.5745  1.3291 -0.6522
   26SAPC  C210 3450   5.165   5.806   7.789  0.9417 -0.8600 -0.6790
   26SAPC  H10R 3451   5.085   5.865   7.839  2.1134  0.0913  0.1209
   26SAPC  H10S 3452   5.211   5.890   7.734 -2.0787  1.9351  0.7131
   26SAPC  C211 3453   5.254   5.756   7.900 -0.0647  0.4611 -0.2161
   26SAPC  H11R 3454   5.350   5.720   7.861 -1.1936 -2.6213 -0.3695
   26SAPC  C212 3455   5.226   5.724   8.027  0.4065 -0.3125  0.0793
   26SAPC  H12R 3456   5.305   5.700   8.100  0.0772  0.7202  0.8018
   26SAPC  C213 3457   5.086   5.741   8.085  0.2907 -0.2702  0.9028
   26SAPC  H13R 3458   5.010   5.721   8.007  1.1308  0.1250 -0.0518
   26SAPC  H13S 3459   5.070   5.845   8.121  0.6245  0.2721 -0.4340
   26SAPC  C214 3460   5.059   5.640   8.192  0.4969  0.0584 -0.0916
   26SAPC  H14R 3461   4.974   5.573   8.169  0.2059 -0.0268  1.1376
   26SAPC  C215 3462   5.123   5.635   8.314 -0.3092  0.0937 -0.4382
   26SAPC  H15R 3463   5.123   5.540   8.370  1.1185  0.9377  1.0617
   26SAPC  C216 3464   5.239   5.722   8.363 -0.2172  0.1336  0.1545
   26SAPC  H16R 3465   5.225   5.770   8.463  1.3596  1.3788 -0.1615
   26SAPC  H16S 3466   5.253   5.808   8.294 -0.7321  2.2591  2.5282
   26SAPC  C217 3467   5.367   5.638   8.372 -0.4663 -0.4386  0.0600
   26SAPC  H17R 3468   5.385   5.591   8.273  1.9279 -1.1664  0.7798
   26SAPC  H17S 3469   5.362   5.568   8.458  0.3831  1.2278  1.5333
   26SAPC  C218 3470   5.492   5.720   8.403 -0.0285  0.1397 -0.4984
   26SAPC  H18R 3471   5.474   5.770   8.501 -2.0550 -1.2095 -0.1093
   26SAPC  H18S 3472   5.505   5.798   8.325  2.3677  0.3936  0.0907
   26SAPC  C219 3473   5.628   5.638   8.389  0.3765  0.3204 -0.3838
   26SAPC  H19R 3474   5.622   5.588   8.290 -0.8709  1.5046 -0.9390
   26SAPC  H19S 3475   5.615   5.557   8.464  3.0176 -1.1030 -1.3256
   26SAPC  C220 3476   5.763   5.708   8.416  0.2886  0.5594 -1.1293
   26SAPC  H20R 3477   5.778   5.705   8.526 -3.0314  0.5173 -0.5825
   26SAPC  H20S 3478   5.756   5.812   8.377 -0.8698  1.6288  1.7015
   26SAPC  H20T 3479   5.838   5.654   8.354  0.8958 -1.1060  0.9617
   26SAPC   C33 3480   5.033   6.443   6.621 -0.0367  0.4027 -0.2516
   26SAPC   H3X 3481   4.942   6.504   6.639 -1.1943 -1.2551 -0.2723
   26SAPC   H3Y 3482   5.062   6.473   6.518 -1.2576  0.6751 -0.5312
   26SAPC   C34 3483   5.147   6.496   6.719 -0.2498  0.0200  0.7144
   26SAPC   H4X 3484   5.178   6.590   6.668 -1.1875  0.6584  1.3092
   26SAPC   H4Y 3485   5.235   6.428   6.722 -0.3182 -0.7298 -4.5329
   26SAPC   C35 3486   5.077   6.507   6.857  0.0717 -0.1624  0.4397
   26SAPC   H5X 3487   5.047   6.405   6.890  0.5492  0.2712  2.3438
   26SAPC   H5Y 3488   4.994   6.580   6.846  1.3598  1.2208 -0.5950
   26SAPC   C36 3489   5.158   6.573   6.969 -0.6891  0.1004  0.4215
   26SAPC   H6X 3490   5.174   6.682   6.951  2.2352 -0.1876  0.8250
   26SAPC   H6Y 3491   5.260   6.530   6.970  0.1374  1.8920 -0.9623
   26SAPC   C37 3492   5.091   6.545   7.106 -0.0287 -0.3429 -0.2176
   26SAPC   H7X 3493   5.032   6.450   7.104 -1.6186  0.6049  0.1637
   26SAPC   H7Y 3494   5.020   6.625   7.133 -0.6043 -0.7409 -0.5308
   26SAPC   C38 3495   5.200   6.555   7.216  0.4430  0.1336  0.1167
   26SAPC   H8X 3496   5.261   6.648   7.211 -0.7168  0.8787 -1.0102
   26SAPC   H8Y 3497   5.270   6.470   7.213  0.8840  0.4781  0.4731
   26SAPC   C39 3498   5.136   6.550   7.360  0.6157 -0.1401  0.6649
   26SAPC   H9X 3499   5.098   6.447   7.379  0.8654 -0.7391 -1.7724
   26SAPC   H9Y 3500   5.053   6.621   7.382 -0.7032 -0.7145 -2.0411
   26SAPC  C310 3501   5.241   6.585   7.464  0.2371 -0.2168  0.3908
   26SAPC  H10X 3502   5.279   6.684   7.432 -1.5251 -0.2461 -2.0673
   26SAPC  H10Y 3503   5.322   6.509   7.458 -0.3765 -1.0842  2.3105
   26SAPC  C311 3504   5.192   6.595   7.608 -0.3256 -0.4321 -0.0241
   26SAPC  H11X 3505   5.159   6.490   7.622  1.8339 -0.8598  2.5815
   26SAPC  H11Y 3506   5.108   6.666   7.622 -0.2144 -0.5220  1.1842
   26SAPC  C312 3507   5.305   6.638   7.703  0.1087 -0.0323  0.3239
   26SAPC  H12X 3508   5.354   6.731   7.669  1.6682 -1.9129 -3.0362
   26SAPC  H12Y 3509   5.389   6.568   7.687  0.6469 -0.0953  2.9746
   26SAPC  C313 3510   5.264   6.634   7.852 -0.3850  1.0182 -0.6140
   26SAPC  H13X 3511   5.213   6.542   7.888  1.2436  0.6299  0.7679
   26SAPC  H13Y 3512   5.189   6.714   7.868 -1.8010 -0.2333 -0.7294
   26SAPC  C314 3513   5.379   6.662   7.947  0.0814 -0.2976  0.0242
   26SAPC  H14X 3514   5.448   6.723   7.886 -1.1102  0.1012 -0.9711
   26SAPC  H14Y 3515   5.421   6.564   7.979 -0.0912 -0.3394  0.1252
   26SAPC  C315 3516   5.337   6.731   8.080 -0.3438 -0.5811  0.2357
   26SAPC  H15X 3517   5.260   6.668   8.130 -0.1923 -1.9213 -1.1355
   26SAPC  H15Y 3518   5.308   6.837   8.068  0.5400 -0.3108  0.4171
   26SAPC  C316 3519   5.464   6.741   8.168  0.4088  0.9916  0.5465
   26SAPC  H16X 3520   5.548   6.784   8.110  0.0744 -1.1092 -1.6754
   26SAPC  H16Y 3521   5.486   6.634   8.186 -0.3168  0.6118 -0.6268
   26SAPC  C317 3522   5.438   6.816   8.298 -0.1438 -0.7945 -0.2629
   26SAPC  H17X 3523   5.373   6.749   8.359 -0.9038 -3.8886 -4.0498
   26SAPC  H17Y 3524   5.370   6.900   8.275 -2.9532 -2.5679  1.0312
   26SAPC  C318 3525   5.560   6.858   8.376  0.2951 -0.0537 -0.0301
   26SAPC  H18X 3526   5.621   6.941   8.335  1.7906 -0.1763  1.8224
   26SAPC  H18Y 3527   5.640   6.782   8.390  0.7497  0.7076  1.6866
   26SAPC  H18Z 3528   5.527   6.887   8.478  3.3412 -1.5954  1.5387
   27SAPC     N 3529   3.426   4.966   6.257  0.0474 -0.4155  0.0039
   27SAPC   C12 3530   3.396   4.893   6.389 -0.6503  0.4371 -0.4645
   27SAPC  H12A 3531   3.493   4.872   6.430  0.0251  1.4903 -1.4630
   27SAPC  H12B 3532   3.362   4.794   6.362  1.9703 -1.2030  1.7790
   27SAPC   C13 3533   3.307   5.014   6.192  0.8885 -0.7063 -0.1129
   27SAPC  H13A 3534   3.236   5.064   6.257  1.0313  1.4906 -1.5806
   27SAPC  H13B 3535   3.325   5.080   6.109 -0.1249 -0.5206 -0.1997
   27SAPC  H13C 3536   3.261   4.925   6.150 -1.1869  1.2992 -2.3995
   27SAPC   C14 3537   3.514   5.089   6.280 -0.0105  0.4716  0.2083
   27SAPC  H14A 3538   3.540   5.138   6.187  0.6250 -0.0397  0.1132
   27SAPC  H14B 3539   3.461   5.161   6.341 -1.3581 -0.3050  0.0018
   27SAPC  H14C 3540   3.605   5.060   6.330  0.8964  1.4429 -0.8282
   27SAPC   C15 3541   3.512   4.879   6.167  0.1058 -0.1278 -0.1789
   27SAPC  H15A 3542   3.599   4.837   6.215 -0.1708  0.4477  0.8683
   27SAPC  H15B 3543   3.447   4.799   6.134 -1.5990  1.8502 -1.9654
   27SAPC  H15C 3544   3.528   4.939   6.079 -2.8252  1.1582  0.0337
   27SAPC   C11 3545   3.289   4.950   6.483 -0.4373 -0.3303  0.3777
   27SAPC  H11A 3546   3.322   5.048   6.523  1.3124 -0.9794  0.6279
   27SAPC  H11B 3547   3.285   4.881   6.570 -0.1852  0.1478  0.7765
   27SAPC     P 3548   3.048   4.847   6.422 -0.0275  0.0508  0.1863
   27SAPC   O13 3549   2.963   4.874   6.307  0.1401  0.0168 -0.0627
   27SAPC   O14 3550   3.108   4.712   6.437 -0.0185  0.1750  0.2972
   27SAPC   O12 3551   3.162   4.961   6.422 -0.0507  0.6214 -0.4729
   27SAPC   O11 3552   2.960   4.873   6.548 -0.2386 -0.3349 -0.2992
   27SAPC    C1 3553   2.910   5.006   6.573 -0.4677 -0.4136  0.3172
   27SAPC    HA 3554   2.890   5.067   6.482  0.7743 -1.1306 -0.4556
   27SAPC    HB 3555   2.815   5.004   6.631 -1.0257 -0.7970 -0.5853
   27SAPC    C2 3556   3.002   5.081   6.678  0.0022  0.3247  0.6815
   27SAPC    HS 3557   3.094   5.112   6.623 -1.6678 -0.1398 -2.6015
   27SAPC   O21 3558   3.032   4.992   6.790 -0.3947  0.1318 -0.6521
   27SAPC   C21 3559   3.139   5.017   6.862 -0.7683  0.4036  0.0575
   27SAPC   O22 3560   3.233   5.089   6.833  0.5739 -0.1408  0.2056
   27SAPC   C22 3561   3.146   4.926   6.987 -0.7406  0.3460  0.3730
   27SAPC   H2R 3562   3.050   4.872   6.997 -0.3943 -0.5984 -1.1170
   27SAPC   H2S 3563   3.230   4.855   6.972 -2.1224 -1.0370 -1.1632
   27SAPC    C3 3564   2.951   5.223   6.733  0.4609 -0.1122  0.2097
   27SAPC    HX 3565   2.933   5.287   6.644  1.7210 -1.2812 -0.9377
   27SAPC    HY 3566   3.033   5.268   6.794 -1.3467  1.6669  1.4423
   27SAPC   O31 3567   2.823   5.211   6.808 -0.0404 -0.2996  0.5012
   27SAPC   C31 3568   2.792   5.316   6.890 -0.2089 -0.0836 -0.0430
   27SAPC   O32 3569   2.866   5.420   6.897  0.1321  0.0498  0.1181
   27SAPC   C32 3570   2.668   5.288   6.979 -0.5633 -0.0131  0.8035
   27SAPC   H2X 3571   2.679   5.193   7.034  1.1890 -0.4046 -0.1230
   27SAPC   H2Y 3572   2.584   5.264   6.911 -0.5469 -0.1033  0.8153
   27SAPC   C23 3573   3.170   5.005   7.118  0.2275 -0.6759  0.1490
   27SAPC   H3R 3574   3.263   5.062   7.100  0.8427 -0.6640  2.9171
   27SAPC   H3S 3575   3.194   4.927   7.194 -1.5877  0.5509  2.1098
   27SAPC   C24 3576   3.043   5.088   7.159  0.1420  0.1651  0.0137
   27SAPC   H4R 3577   2.957   5.038   7.110  0.1206  2.4099 -2.4818
   27SAPC   H4S 3578   3.057   5.190   7.117 -1.4929  0.3792 -0.0782
   27SAPC   C25 3579   3.015   5.109   7.306 -0.0595  0.4159  0.1605
   27SAPC   H5R 3580   3.103   5.154   7.354  0.8426  1.6126 -2.4660
   27SAPC   C26 3581   2.907   5.070   7.370  0.4181  0.4886  0.1810
   27SAPC   H6R 3582   2.901   5.097   7.477 -1.4996  0.6320  0.0662
   27SAPC   C27 3583   2.787   5.004   7.299 -0.0216 -0.3404 -0.6671
   27SAPC   H7R 3584   2.807   4.916   7.233  0.5057 -2.1106  1.7049
   27SAPC   H7S 3585   2.738   5.084   7.239  0.0296  1.6563  1.7861
   27SAPC   C28 3586   2.679   4.960   7.384 -0.0522  0.0230 -0.6902
   27SAPC   H8R 3587   2.692   4.854   7.409 -1.8697 -0.1006 -0.1463
   27SAPC   C29 3588   2.575   5.035   7.449 -0.3388  0.1228 -0.3421
   27SAPC   H9R 3589   2.505   4.984   7.515  1.1093 -0.9206  0.4523
   27SAPC  C210 3590   2.557   5.181   7.438 -0.2311 -0.5092 -0.5175
   27SAPC  H10R 3591   2.508   5.207   7.342  0.2936 -0.5238 -0.7931
   27SAPC  H10S 3592   2.656   5.231   7.438 -0.5846  0.2574  0.9778
   27SAPC  C211 3593   2.472   5.240   7.536  0.4402 -0.0835 -0.2353
   27SAPC  H11R 3594   2.520   5.269   7.631 -0.0025 -0.2615  0.0483
   27SAPC  C212 3595   2.335   5.253   7.537 -0.3721  0.6644 -0.5629
   27SAPC  H12R 3596   2.297   5.319   7.616 -3.2537 -1.2376 -0.2151
   27SAPC  C213 3597   2.231   5.200   7.439 -1.0810  0.4817  0.1218
   27SAPC  H13R 3598   2.167   5.129   7.496  1.0418 -0.6909  1.1308
   27SAPC  H13S 3599   2.279   5.133   7.365  1.4007  0.4620  1.6628
   27SAPC  C214 3600   2.146   5.292   7.357  0.8844 -0.6831 -0.2808
   27SAPC  H14R 3601   2.167   5.307   7.250 -1.7329  0.6779 -0.6776
   27SAPC  C215 3602   2.050   5.382   7.407  0.9519  0.0509 -0.1526
   27SAPC  H15R 3603   1.998   5.455   7.342  3.0187  0.4436 -1.4716
   27SAPC  C216 3604   2.013   5.396   7.551  0.0055  0.7252 -0.3873
   27SAPC  H16R 3605   2.027   5.502   7.584  0.5704  0.5086  0.0889
   27SAPC  H16S 3606   2.085   5.338   7.612  2.5235  2.9592 -1.0146
   27SAPC  C217 3607   1.870   5.350   7.570 -0.5939 -0.4089  0.2836
   27SAPC  H17R 3608   1.847   5.248   7.532  2.1703 -0.2039 -2.3712
   27SAPC  H17S 3609   1.797   5.420   7.525  1.9147  0.3251 -3.0368
   27SAPC  C218 3610   1.835   5.355   7.720  0.7097 -0.1090 -0.1542
   27SAPC  H18R 3611   1.861   5.455   7.759 -0.6977  1.2623 -2.5372
   27SAPC  H18S 3612   1.891   5.284   7.786  0.3787  0.0451  0.3034
   27SAPC  C219 3613   1.680   5.330   7.746 -0.2428  0.0673  0.1108
   27SAPC  H19R 3614   1.661   5.226   7.713  2.6093 -0.7530  0.7462
   27SAPC  H19S 3615   1.620   5.396   7.679 -0.4614 -0.9576 -0.7247
   27SAPC  C220 3616   1.645   5.347   7.899  0.5180  0.2131 -1.1938
   27SAPC  H20R 3617   1.693   5.269   7.961 -0.2084  2.5001  2.5382
   27SAPC  H20S 3618   1.539   5.341   7.931  1.2715 -0.9151  1.3411
   27SAPC  H20T 3619   1.698   5.438   7.935  2.2044 -1.1074 -0.2052
   27SAPC   C33 3620   2.637   5.403   7.073  0.0282  0.2506 -0.2569
   27SAPC   H3X 3621   2.545   5.377   7.129 -0.2479 -0.7376 -1.1212
   27SAPC   H3Y 3622   2.608   5.481   7.000 -0.7950 -3.1083 -3.8487
   27SAPC   C34 3623   2.745   5.441   7.174 -0.9014 -0.3936 -0.4259
   27SAPC   H4X 3624   2.825   5.488   7.113 -1.0469  1.0894  0.4776
   27SAPC   H4Y 3625   2.777   5.344   7.217  1.4291  0.3757 -0.2936
   27SAPC   C35 3626   2.713   5.533   7.286  0.4191  0.3111 -0.4115
   27SAPC   H5X 3627   2.625   5.504   7.347  0.5016 -1.0462 -0.8949
   27SAPC   H5Y 3628   2.688   5.627   7.233  1.6069  1.5657  1.1566
   27SAPC   C36 3629   2.835   5.572   7.368  0.5801  0.2411  0.3334
   27SAPC   H6X 3630   2.914   5.596   7.294 -0.3218 -0.0576 -0.7551
   27SAPC   H6Y 3631   2.866   5.481   7.424 -2.9138 -0.7070  1.0160
   27SAPC   C37 3632   2.805   5.699   7.446  0.2992  0.2473  0.0812
   27SAPC   H7X 3633   2.794   5.780   7.370  0.3561 -0.5578 -0.8086
   27SAPC   H7Y 3634   2.889   5.714   7.517  1.5031 -3.0250 -0.4841
   27SAPC   C38 3635   2.674   5.701   7.521  0.2925  0.1555  0.9956
   27SAPC   H8X 3636   2.590   5.684   7.451  0.4448 -0.6668  1.0023
   27SAPC   H8Y 3637   2.653   5.803   7.559 -1.0651 -0.0219  0.7603
   27SAPC   C39 3638   2.674   5.597   7.633  0.0481 -0.1084  0.4744
   27SAPC   H9X 3639   2.743   5.624   7.716  2.7802 -1.9659 -1.0697
   27SAPC   H9Y 3640   2.699   5.503   7.581 -1.6778 -0.9773  1.1343
   27SAPC  C310 3641   2.531   5.577   7.691 -0.3226  0.1593  0.5196
   27SAPC  H10X 3642   2.482   5.507   7.620  1.3048 -0.5465  0.0585
   27SAPC  H10Y 3643   2.478   5.675   7.690 -1.4593 -0.4459 -0.1249
   27SAPC  C311 3644   2.534   5.508   7.829 -0.4721 -0.2321 -0.3209
   27SAPC  H11X 3645   2.589   5.573   7.901  1.4153 -1.5388 -0.5132
   27SAPC  H11Y 3646   2.597   5.418   7.815  0.3864  0.3965 -0.6281
   27SAPC  C312 3647   2.391   5.484   7.880  0.8190  0.4446  0.1187
   27SAPC  H12X 3648   2.331   5.418   7.814 -2.4055  2.0207  1.2506
   27SAPC  H12Y 3649   2.347   5.586   7.887  0.2464  0.1497  1.0231
   27SAPC  C313 3650   2.375   5.408   8.017  0.7623 -0.7571  0.7236
   27SAPC  H13X 3651   2.413   5.304   8.011  0.6099 -0.7654 -0.1856
   27SAPC  H13Y 3652   2.267   5.393   8.040  0.7430  0.1792  1.3031
   27SAPC  C314 3653   2.449   5.478   8.130 -0.1938  0.1784  0.8408
   27SAPC  H14X 3654   2.414   5.584   8.131  0.1280  0.4317 -2.5799
   27SAPC  H14Y 3655   2.558   5.480   8.110 -0.6341 -0.1176 -2.0246
   27SAPC  C315 3656   2.428   5.433   8.276 -0.1062  0.5722  0.6065
   27SAPC  H15X 3657   2.319   5.434   8.299  0.0370 -0.7236  1.4074
   27SAPC  H15Y 3658   2.472   5.507   8.347 -1.0846  1.2051  0.5814
   27SAPC  C316 3659   2.488   5.300   8.327  0.7597  0.3499  0.4478
   27SAPC  H16X 3660   2.598   5.307   8.334  1.0080 -1.4632 -0.7549
   27SAPC  H16Y 3661   2.468   5.224   8.248  0.4297  1.3741 -0.4980
   27SAPC  C317 3662   2.427   5.268   8.468 -0.3011 -0.2390  0.1405
   27SAPC  H17X 3663   2.438   5.162   8.500 -0.9583 -0.4654 -0.3768
   27SAPC  H17Y 3664   2.317   5.274   8.459 -0.4409 -3.1178 -0.8325
   27SAPC  C318 3665   2.486   5.352   8.596  0.4038 -0.6120 -0.1916
   27SAPC  H18X 3666   2.478   5.462   8.583 -3.6471 -0.7981 -0.4017
   27SAPC  H18Y 3667   2.592   5.321   8.605  0.5911  0.3597  1.3406
   27SAPC  H18Z 3668   2.438   5.324   8.693  1.3067 -0.6878  0.2439
   28SAPC     N 3669   1.052   1.939   6.076  0.5331  0.0181  0.1817
   28SAPC   C12 3670   1.089   1.915   6.223  0.4607 -0.1827 -0.2911
   28SAPC  H12A 3671   0.997   1.892   6.275  0.4192  0.3479 -0.1318
   28SAPC  H12B 3672   1.132   2.004   6.266  0.3431  0.0862 -0.7242
   28SAPC   C13 3673   1.168   1.993   6.005  0.6132  0.9645 -0.6169
   28SAPC  H13A 3674   1.146   1.994   5.900 -0.6872  3.2294 -0.4070
   28SAPC  H13B 3675   1.195   2.095   6.029  0.9255  0.5886  0.6989
   28SAPC  H13C 3676   1.259   1.942   6.033 -1.4374 -2.2697  0.7374
   28SAPC   C14 3677   1.001   1.816   6.013  0.7531 -0.0706  0.1435
   28SAPC  H14A 3678   0.985   1.828   5.907 -3.0454 -5.0977 -0.2165
   28SAPC  H14B 3679   1.081   1.745   6.024  1.9784  0.8407 -2.1459
   28SAPC  H14C 3680   0.912   1.769   6.053 -0.2646 -0.0791 -1.9537
   28SAPC   C15 3681   0.947   2.047   6.076  0.0763 -0.3384 -0.0131
   28SAPC  H15A 3682   0.942   2.090   5.977  2.0302 -0.5506 -0.2442
   28SAPC  H15B 3683   0.854   2.017   6.122 -0.1553 -1.3834 -1.1155
   28SAPC  H15C 3684   0.987   2.129   6.134 -1.5287  0.0873  0.5516
   28SAPC   C11 3685   1.183   1.801   6.251  0.3243 -0.0400 -0.1882
   28SAPC  H11A 3686   1.230   1.820   6.349 -0.7291  1.5754  0.0344
   28SAPC  H11B 3687   1.263   1.790   6.175  0.7097  0.8230  0.0871
   28SAPC     P 3688   1.022   1.634   6.375  0.0291 -0.2726  0.2353
   28SAPC   O13 3689   0.994   1.746   6.464  0.1632  0.1351 -0.4617
   28SAPC   O14 3690   0.904   1.568   6.316 -0.1816  0.3469  0.3428
   28SAPC   O12 3691   1.112   1.679   6.256 -0.1640 -0.3179  0.3238
   28SAPC   O11 3692   1.105   1.521   6.429  0.1351 -0.3593 -0.9992
   28SAPC    C1 3693   1.222   1.535   6.520  0.0752 -0.2841  0.0661
   28SAPC    HA 3694   1.308   1.485   6.471 -0.8477  0.7341 -2.8172
   28SAPC    HB 3695   1.246   1.643   6.530  0.4971 -0.2828 -0.8532
   28SAPC    C2 3696   1.193   1.453   6.653  0.3751 -0.4165  0.3718
   28SAPC    HS 3697   1.189   1.344   6.629 -0.9711 -0.2321 -0.3276
   28SAPC   O21 3698   1.068   1.495   6.705  0.2075  0.0347  0.4354
   28SAPC   C21 3699   0.986   1.402   6.744  0.0058 -0.0213  0.4074
   28SAPC   O22 3700   1.014   1.283   6.759  0.0717 -0.1632  0.0577
   28SAPC   C22 3701   0.851   1.470   6.752  0.0412 -0.1444  0.9776
   28SAPC   H2R 3702   0.842   1.568   6.701 -0.7472 -1.1445 -0.9209
   28SAPC   H2S 3703   0.780   1.426   6.680  1.9061  0.8957 -1.6498
   28SAPC    C3 3704   1.315   1.485   6.751  0.8579  0.3547 -0.1293
   28SAPC    HX 3705   1.313   1.596   6.760  1.1446  0.5223 -1.7613
   28SAPC    HY 3706   1.407   1.463   6.693  0.3140  0.6740 -1.1397
   28SAPC   O31 3707   1.291   1.418   6.878  0.0619  0.2205 -0.3255
   28SAPC   C31 3708   1.322   1.290   6.887  0.7281 -0.2134 -1.5813
   28SAPC   O32 3709   1.369   1.225   6.795  0.5027 -1.4691 -0.1921
   28SAPC   C32 3710   1.285   1.241   7.029 -0.2804 -0.2608 -0.2189
   28SAPC   H2X 3711   1.174   1.235   7.033 -0.3467  0.2006 -1.0583
   28SAPC   H2Y 3712   1.327   1.303   7.111  2.2364 -1.3747 -0.5851
   28SAPC   C23 3713   0.774   1.466   6.888  0.2497 -0.3686 -0.6683
   28SAPC   H3R 3714   0.690   1.537   6.877  0.7437  0.3639  0.1602
   28SAPC   H3S 3715   0.835   1.504   6.973 -1.0699 -0.7114  0.4710
   28SAPC   C24 3716   0.714   1.329   6.932  0.1704 -0.4032  0.1304
   28SAPC   H4R 3717   0.617   1.358   6.979 -1.2624  0.1734 -2.9202
   28SAPC   H4S 3718   0.683   1.280   6.837 -0.7348  1.0461 -0.3776
   28SAPC   C25 3719   0.807   1.240   7.007 -1.0119 -0.5773  0.4186
   28SAPC   H5R 3720   0.882   1.195   6.940 -0.5414 -2.3293  2.0412
   28SAPC   C26 3721   0.796   1.193   7.136 -0.2444 -0.3139 -0.0399
   28SAPC   H6R 3722   0.886   1.144   7.174  0.7260  1.6091  0.2657
   28SAPC   C27 3723   0.698   1.245   7.233  0.8134 -0.2031 -0.8778
   28SAPC   H7R 3724   0.651   1.335   7.189 -0.0529 -0.5730 -0.7356
   28SAPC   H7S 3725   0.749   1.276   7.327  0.9578 -0.9227 -0.7114
   28SAPC   C28 3726   0.593   1.140   7.248 -0.0336  0.2203  0.0919
   28SAPC   H8R 3727   0.552   1.098   7.155 -2.8511  1.2591  0.7644
   28SAPC   C29 3728   0.547   1.101   7.371 -0.6978  0.3314 -0.0694
   28SAPC   H9R 3729   0.473   1.020   7.376 -0.9891  0.6245  0.3465
   28SAPC  C210 3730   0.606   1.139   7.496 -0.7052 -0.3137 -0.4673
   28SAPC  H10R 3731   0.530   1.121   7.575 -1.5685  0.7553 -1.0273
   28SAPC  H10S 3732   0.628   1.248   7.497  0.1886 -0.4758 -0.7395
   28SAPC  C211 3733   0.727   1.063   7.538  0.1376  0.2760 -0.1688
   28SAPC  H11R 3734   0.787   1.027   7.453 -0.1199 -2.1492  0.6124
   28SAPC  C212 3735   0.776   1.057   7.667 -0.4872  0.1104 -0.4888
   28SAPC  H12R 3736   0.865   0.999   7.694  0.8762  2.9070  1.6111
   28SAPC  C213 3737   0.705   1.125   7.784 -0.3489 -0.3696 -0.3249
   28SAPC  H13R 3738   0.730   1.063   7.873 -2.5390  1.2052  1.4967
   28SAPC  H13S 3739   0.595   1.112   7.772 -0.1593 -0.2318 -2.5774
   28SAPC  C214 3740   0.737   1.271   7.809 -0.2512 -0.5591  0.1867
   28SAPC  H14R 3741   0.691   1.348   7.746 -1.1099 -1.4040 -0.2333
   28SAPC  C215 3742   0.826   1.311   7.907 -0.6846  0.3772  0.5392
   28SAPC  H15R 3743   0.842   1.417   7.928  1.6663  0.2272 -0.2254
   28SAPC  C216 3744   0.900   1.218   8.008  0.3394 -0.0835  1.1095
   28SAPC  H16R 3745   0.908   1.113   7.974 -0.8957  0.0397  0.3854
   28SAPC  H16S 3746   0.847   1.210   8.105  0.2459 -0.0552  1.0613
   28SAPC  C217 3747   1.047   1.271   8.029  0.2077 -0.2462  0.3291
   28SAPC  H17R 3748   1.099   1.294   7.933 -2.9454 -0.5302 -1.6028
   28SAPC  H17S 3749   1.091   1.183   8.079 -0.6004  0.1675  1.8202
   28SAPC  C218 3750   1.055   1.394   8.123 -0.3547  0.0838  0.2687
   28SAPC  H18R 3751   1.001   1.365   8.216  0.3361 -1.3156  0.2506
   28SAPC  H18S 3752   1.003   1.481   8.078 -0.1170  0.1852  0.1891
   28SAPC  C219 3753   1.198   1.438   8.156 -0.2915  0.0930  0.5134
   28SAPC  H19R 3754   1.198   1.549   8.157 -1.2631  0.1168 -0.6042
   28SAPC  H19S 3755   1.275   1.406   8.083 -0.4389 -0.7762  0.7230
   28SAPC  C220 3756   1.247   1.377   8.293 -0.0632  0.0467 -0.3660
   28SAPC  H20R 3757   1.183   1.405   8.379 -1.2399 -1.0115 -0.8605
   28SAPC  H20S 3758   1.349   1.416   8.313  0.6451 -1.1328 -1.5135
   28SAPC  H20T 3759   1.256   1.267   8.283  1.8447  0.3326 -2.9613
   28SAPC   C33 3760   1.348   1.104   7.042  0.3703 -0.1196  0.5765
   28SAPC   H3X 3761   1.458   1.109   7.025  0.6596 -0.1287  2.2636
   28SAPC   H3Y 3762   1.306   1.034   6.966  0.5352 -0.3158  0.6633
   28SAPC   C34 3763   1.315   1.030   7.169 -0.2699  0.3105 -0.3264
   28SAPC   H4X 3764   1.336   0.920   7.166 -3.4098 -0.4648  1.6044
   28SAPC   H4Y 3765   1.207   1.017   7.189  0.1444  0.0829  2.1080
   28SAPC   C35 3766   1.384   1.081   7.292 -0.5412  0.0752 -0.1010
   28SAPC   H5X 3767   1.379   1.192   7.290 -2.0513  0.0366  0.1891
   28SAPC   H5Y 3768   1.492   1.056   7.290 -0.5743 -0.4566 -4.1004
   28SAPC   C36 3769   1.329   1.013   7.414  0.0842 -0.2956 -0.0809
   28SAPC   H6X 3770   1.336   0.903   7.423 -1.2444 -0.4126 -0.2292
   28SAPC   H6Y 3771   1.219   1.026   7.406  0.0216 -0.6464  0.2175
   28SAPC   C37 3772   1.375   1.093   7.533 -0.1359 -0.3204 -0.1279
   28SAPC   H7X 3773   1.333   1.196   7.536  1.0678  0.3175 -2.4352
   28SAPC   H7Y 3774   1.485   1.108   7.527 -0.3294  1.1299 -0.5255
   28SAPC   C38 3775   1.354   1.021   7.664 -0.2814 -0.2578 -0.0231
   28SAPC   H8X 3776   1.391   0.916   7.668 -0.9696 -0.5112  0.0420
   28SAPC   H8Y 3777   1.244   1.005   7.667 -0.6101  0.7676 -3.2203
   28SAPC   C39 3778   1.395   1.099   7.781  0.0405 -0.0012 -0.2550
   28SAPC   H9X 3779   1.351   1.200   7.775  1.7678  0.8708  0.9451
   28SAPC   H9Y 3780   1.505   1.112   7.775  0.0034  2.6505  2.4505
   28SAPC  C310 3781   1.340   1.032   7.906  0.4751 -0.5513  0.5498
   28SAPC  H10X 3782   1.352   0.924   7.885  0.6559 -0.6838  1.2777
   28SAPC  H10Y 3783   1.234   1.060   7.920  0.9966  1.8470  0.1735
   28SAPC  C311 3784   1.419   1.064   8.032 -0.0107 -0.3627  0.3704
   28SAPC  H11X 3785   1.383   1.162   8.070 -3.4857 -1.0832 -0.7406
   28SAPC  H11Y 3786   1.525   1.089   8.009  0.0355 -0.1847  0.7629
   28SAPC  C312 3787   1.403   0.956   8.144  0.4254 -0.3308 -0.0623
   28SAPC  H12X 3788   1.409   0.857   8.095 -0.3952 -1.5990  2.2628
   28SAPC  H12Y 3789   1.295   0.967   8.170  0.6443  1.1752  0.3142
   28SAPC  C313 3790   1.481   0.981   8.268 -0.4712  0.0197 -0.1122
   28SAPC  H13X 3791   1.443   1.078   8.307  0.3552 -0.4351  1.9240
   28SAPC  H13Y 3792   1.589   0.993   8.244 -0.1507 -2.0201  0.1652
   28SAPC  C314 3793   1.444   0.878   8.380  0.0026 -0.9119 -0.2077
   28SAPC  H14X 3794   1.340   0.840   8.368 -0.8626  1.1341  0.3622
   28SAPC  H14Y 3795   1.455   0.924   8.480  1.0711 -0.7901 -0.3660
   28SAPC  C315 3796   1.542   0.752   8.386  0.4030  0.4421 -0.0673
   28SAPC  H15X 3797   1.638   0.791   8.425 -0.8874  2.8870  0.9158
   28SAPC  H15Y 3798   1.553   0.716   8.282 -0.2551 -0.1542  0.0628
   28SAPC  C316 3799   1.487   0.637   8.470  0.5092 -0.0047  0.7719
   28SAPC  H16X 3800   1.402   0.595   8.412  0.3173  1.8000 -0.3290
   28SAPC  H16Y 3801   1.430   0.675   8.558 -0.2520  0.3976  0.1242
   28SAPC  C317 3802   1.584   0.529   8.511 -0.3609 -0.3323  0.3670
   28SAPC  H17X 3803   1.535   0.449   8.571 -1.4597 -0.6223 -0.8667
   28SAPC  H17Y 3804   1.664   0.584   8.565 -1.2265  0.1488  1.2013
   28SAPC  C318 3805   1.645   0.461   8.388  0.0201 -0.1282  0.0003
   28SAPC  H18X 3806   1.562   0.413   8.331 -0.3072 -1.4899  1.5461
   28SAPC  H18Y 3807   1.711   0.376   8.416 -0.4645 -0.9883 -1.3765
   28SAPC  H18Z 3808   1.697   0.538   8.327  0.2960  0.3171  0.7869
   29SAPC     N 3809   4.028   4.875   6.063 -0.0652  0.8078  0.4807
   29SAPC   C12 3810   4.129   4.770   6.115 -0.1461  0.4680 -0.9738
   29SAPC  H12A 3811   4.178   4.733   6.026  0.2859  0.1587 -0.6124
   29SAPC  H12B 3812   4.070   4.686   6.149 -0.3663  0.9577 -0.1265
   29SAPC   C13 3813   3.944   4.828   5.946 -0.4905 -0.3646  0.5036
   29SAPC  H13A 3814   3.872   4.902   5.914 -0.2436 -1.6282 -3.5691
   29SAPC  H13B 3815   4.012   4.803   5.866  0.9906  3.1911  0.4609
   29SAPC  H13C 3816   3.901   4.732   5.969  2.3689 -1.6919  0.7156
   29SAPC   C14 3817   3.932   4.910   6.170  0.0308 -0.6070 -0.1280
   29SAPC  H14A 3818   3.876   4.821   6.196  0.2020 -1.2617 -1.8794
   29SAPC  H14B 3819   3.980   4.938   6.263 -0.2090  0.1763 -0.2288
   29SAPC  H14C 3820   3.864   4.986   6.133 -0.6531 -0.1183  2.0022
   29SAPC   C15 3821   4.116   4.989   6.023  0.6391  0.2507 -0.0732
   29SAPC  H15A 3822   4.060   5.071   5.981 -2.5046 -0.4617  2.3736
   29SAPC  H15B 3823   4.173   5.027   6.106  0.9434 -0.5073  0.0808
   29SAPC  H15C 3824   4.184   4.958   5.944  0.0673 -0.4198 -0.3160
   29SAPC   C11 3825   4.239   4.806   6.218  0.4373  0.1878  0.0165
   29SAPC  H11A 3826   4.188   4.841   6.310 -2.5481 -0.6250 -1.2001
   29SAPC  H11B 3827   4.306   4.888   6.184  1.0052  0.9053  2.6663
   29SAPC     P 3828   4.428   4.686   6.340 -0.2137  0.2411 -0.1027
   29SAPC   O13 3829   4.466   4.549   6.379 -0.7157  0.5069 -0.1061
   29SAPC   O14 3830   4.526   4.765   6.270 -0.1483 -0.0279  0.7122
   29SAPC   O12 3831   4.301   4.682   6.249 -0.2141 -0.3346  0.0390
   29SAPC   O11 3832   4.377   4.764   6.470  0.4337  0.1505 -0.0885
   29SAPC    C1 3833   4.443   4.883   6.508  0.0461  0.2490 -1.2739
   29SAPC    HA 3834   4.554   4.871   6.511  0.0820  0.6945 -0.0173
   29SAPC    HB 3835   4.425   4.959   6.430 -2.3388 -0.3011 -1.3354
   29SAPC    C2 3836   4.398   4.917   6.660  0.0225 -0.3199  0.6301
   29SAPC    HS 3837   4.446   5.008   6.701 -0.1589 -0.5479  1.3476
   29SAPC   O21 3838   4.421   4.811   6.748  0.7569 -0.8972 -0.1584
   29SAPC   C21 3839   4.547   4.778   6.777  0.8903  0.7122  0.0580
   29SAPC   O22 3840   4.651   4.821   6.729  0.5319 -0.0175  0.2599
   29SAPC   C22 3841   4.537   4.672   6.894  0.9759 -0.4358  0.3989
   29SAPC   H2R 3842   4.606   4.700   6.976  0.3857  0.0184  0.7485
   29SAPC   H2S 3843   4.436   4.689   6.936  0.1660 -2.2953 -0.6544
   29SAPC    C3 3844   4.250   4.934   6.660 -0.5629 -0.6163  0.0390
   29SAPC    HX 3845   4.205   4.837   6.632  0.7929 -0.8141 -1.6693
   29SAPC    HY 3846   4.227   4.997   6.571 -0.0501 -1.3624 -0.6295
   29SAPC   O31 3847   4.206   4.998   6.782 -0.1420  0.3194 -0.2974
   29SAPC   C31 3848   4.099   4.944   6.838  0.5515  0.1587 -0.6842
   29SAPC   O32 3849   4.042   4.841   6.805 -0.5158  0.5766 -0.0286
   29SAPC   C32 3850   4.056   5.017   6.970  0.5741 -0.0885 -0.0737
   29SAPC   H2X 3851   3.946   5.028   6.964  0.3188 -1.4679  1.1959
   29SAPC   H2Y 3852   4.104   5.116   6.980 -0.3247  0.4092 -0.5507
   29SAPC   C23 3853   4.565   4.526   6.860  0.0872  0.0746 -0.6249
   29SAPC   H3R 3854   4.659   4.509   6.805 -0.7164 -0.1727 -1.9626
   29SAPC   H3S 3855   4.490   4.477   6.794  1.0367  0.6437 -2.1556
   29SAPC   C24 3856   4.582   4.447   6.991  0.4572  0.0683 -0.1071
   29SAPC   H4R 3857   4.671   4.492   7.041  0.2368  0.5240 -0.1164
   29SAPC   H4S 3858   4.628   4.349   6.968 -0.6525 -0.1581 -1.5016
   29SAPC   C25 3859   4.457   4.433   7.083 -0.5055 -0.8979  0.8728
   29SAPC   H5R 3860   4.376   4.371   7.043 -1.1956  0.1866  0.5478
   29SAPC   C26 3861   4.434   4.496   7.198 -0.8311 -0.1453 -0.1010
   29SAPC   H6R 3862   4.355   4.465   7.268  0.3877 -1.2789  0.8297
   29SAPC   C27 3863   4.517   4.608   7.259 -0.0095 -0.0485  0.6689
   29SAPC   H7R 3864   4.446   4.685   7.294 -0.1860  1.0219 -1.8296
   29SAPC   H7S 3865   4.580   4.657   7.182 -0.3846 -2.0354 -1.0005
   29SAPC   C28 3866   4.609   4.557   7.367  0.2371  0.1374  0.7011
   29SAPC   H8R 3867   4.705   4.507   7.343  0.2425  0.1255  0.7455
   29SAPC   C29 3868   4.579   4.568   7.498 -0.0022  0.0256 -0.6636
   29SAPC   H9R 3869   4.655   4.533   7.570  0.1455 -0.7782 -1.1918
   29SAPC  C210 3870   4.453   4.607   7.565 -0.1880 -0.7861  0.1083
   29SAPC  H10R 3871   4.421   4.512   7.612 -0.0678  0.5795  3.2161
   29SAPC  H10S 3872   4.365   4.638   7.504 -0.4565 -0.6351  0.5673
   29SAPC  C211 3873   4.462   4.710   7.679  0.1429 -0.8580  0.1874
   29SAPC  H11R 3874   4.443   4.811   7.642 -1.7607 -2.1592 -2.7593
   29SAPC  C212 3875   4.485   4.687   7.817 -0.1231 -0.0762  0.6726
   29SAPC  H12R 3876   4.515   4.767   7.887  2.5752  0.0064 -0.4426
   29SAPC  C213 3877   4.519   4.547   7.864  0.2481  0.0246 -0.1285
   29SAPC  H13R 3878   4.629   4.542   7.868  0.2868 -0.7613 -1.4541
   29SAPC  H13S 3879   4.483   4.465   7.797 -0.5957  0.2345  0.0494
   29SAPC  C214 3880   4.457   4.499   7.996  0.3335  0.6366 -0.4188
   29SAPC  H14R 3881   4.361   4.452   7.974  0.6826  0.1796 -1.0091
   29SAPC  C215 3882   4.502   4.514   8.125 -0.5778 -0.1262 -0.1229
   29SAPC  H15R 3883   4.445   4.475   8.210 -1.2956  0.9080 -0.1108
   29SAPC  C216 3884   4.617   4.605   8.163  0.0572 -1.0961 -0.5248
   29SAPC  H16R 3885   4.662   4.648   8.071  0.8229 -0.6628  0.0367
   29SAPC  H16S 3886   4.704   4.548   8.202  1.6978  2.1620  0.9725
   29SAPC  C217 3887   4.579   4.724   8.247 -0.2892  0.7419  0.4253
   29SAPC  H17R 3888   4.528   4.687   8.339  0.4591 -0.3900  0.4095
   29SAPC  H17S 3889   4.498   4.784   8.200 -0.6965 -0.8821 -1.0114
   29SAPC  C218 3890   4.700   4.814   8.283 -0.0149  0.4020 -0.3162
   29SAPC  H18R 3891   4.789   4.754   8.314  1.5661  2.2892 -0.9866
   29SAPC  H18S 3892   4.671   4.882   8.366 -0.7499 -1.0215  0.6299
   29SAPC  C219 3893   4.758   4.891   8.162 -0.0438 -0.2608  0.2523
   29SAPC  H19R 3894   4.683   4.956   8.112 -0.4509 -1.6968 -1.0708
   29SAPC  H19S 3895   4.786   4.819   8.082 -0.6009  1.3394 -1.4544
   29SAPC  C220 3896   4.884   4.973   8.187  0.4708 -0.2591 -0.2275
   29SAPC  H20R 3897   4.929   5.011   8.093  1.2781  2.4945  1.1618
   29SAPC  H20S 3898   4.958   4.921   8.252 -0.5451 -1.8202 -0.2647
   29SAPC  H20T 3899   4.842   5.054   8.250  0.5810 -1.2751  1.2237
   29SAPC   C33 3900   4.084   4.917   7.089 -0.3204 -0.7891  0.1320
   29SAPC   H3X 3901   4.191   4.894   7.109 -0.4482 -1.6979 -0.1677
   29SAPC   H3Y 3902   4.033   4.820   7.071 -1.1802 -1.3342  4.2840
   29SAPC   C34 3903   4.020   4.980   7.209 -0.4570 -0.6996  0.0539
   29SAPC   H4X 3904   3.917   5.005   7.178 -0.9649 -0.9732  1.4087
   29SAPC   H4Y 3905   4.070   5.077   7.225  4.2681 -2.4508 -2.1898
   29SAPC   C35 3906   4.026   4.897   7.341 -0.1703  0.3342  0.5393
   29SAPC   H5X 3907   4.113   4.827   7.339 -0.2233  0.2475  1.0637
   29SAPC   H5Y 3908   3.935   4.834   7.347  0.1828 -0.0581  2.7307
   29SAPC   C36 3909   4.034   5.006   7.449  0.1643  0.4633  0.0228
   29SAPC   H6X 3910   3.945   5.070   7.431 -2.0639 -2.8185 -1.5083
   29SAPC   H6Y 3911   4.128   5.062   7.429  1.7142 -0.9511  2.7464
   29SAPC   C37 3912   4.017   4.952   7.589 -0.7311 -0.4292 -0.6217
   29SAPC   H7X 3913   4.110   4.896   7.613  0.3059  1.5629  0.3238
   29SAPC   H7Y 3914   3.925   4.891   7.585 -2.2461  1.8036 -2.4039
   29SAPC   C38 3915   3.994   5.064   7.703 -0.1035 -0.2453 -0.2572
   29SAPC   H8X 3916   3.906   5.128   7.683 -1.0626 -1.0982  1.0952
   29SAPC   H8Y 3917   4.082   5.132   7.698  1.7103 -2.5610 -1.8431
   29SAPC   C39 3918   3.975   5.008   7.839 -0.3730  0.6089  0.0176
   29SAPC   H9X 3919   3.900   4.926   7.844  0.7977 -0.4206  2.3484
   29SAPC   H9Y 3920   3.928   5.081   7.909 -0.6330 -0.3008  0.8298
   29SAPC  C310 3921   4.103   4.971   7.912 -0.3510  0.1093 -0.3130
   29SAPC  H10X 3922   4.176   5.050   7.883  1.0396 -1.0766 -0.1816
   29SAPC  H10Y 3923   4.132   4.871   7.872 -2.5433 -0.0171 -1.7316
   29SAPC  C311 3924   4.087   4.963   8.066  0.3801  0.0989  0.1508
   29SAPC  H11X 3925   4.007   4.886   8.078  0.3233 -0.0981 -1.2831
   29SAPC  H11Y 3926   4.051   5.058   8.109 -1.0972  0.5011 -1.8319
   29SAPC  C312 3927   4.209   4.912   8.147  0.0314 -0.1517  0.3240
   29SAPC  H12X 3928   4.292   4.986   8.143 -0.3415  0.3432  1.4536
   29SAPC  H12Y 3929   4.248   4.826   8.089 -0.2243  0.3415 -0.5976
   29SAPC  C313 3930   4.179   4.874   8.295 -0.4588 -0.2164  0.0253
   29SAPC  H13X 3931   4.229   4.779   8.328  0.1339  1.1289  3.5046
   29SAPC  H13Y 3932   4.073   4.845   8.306 -0.2002 -0.8860  0.8966
   29SAPC  C314 3933   4.222   4.988   8.391 -0.2189  0.1781  0.1996
   29SAPC  H14X 3934   4.171   4.981   8.489 -1.4104  1.9663 -0.2361
   29SAPC  H14Y 3935   4.182   5.081   8.344 -1.5304 -1.0262 -1.1840
   29SAPC  C315 3936   4.373   4.995   8.428 -0.1223 -0.2805 -0.3238
   29SAPC  H15X 3937   4.426   5.055   8.351  1.1471  1.3590  1.7260
   29SAPC  H15Y 3938   4.408   4.890   8.444  0.5385 -0.2512 -1.4573
   29SAPC  C316 3939   4.393   5.078   8.565 -0.5148  0.1290  0.0451
   29SAPC  H16X 3940   4.333   5.032   8.646 -0.0809 -0.7524 -0.1211
   29SAPC  H16Y 3941   4.346   5.175   8.538  1.0178  1.2321  1.2479
   29SAPC  C317 3942   4.537   5.090   8.612 -0.2978  0.1145  0.3174
   29SAPC  H17X 3943   4.593   5.149   8.536  1.8593 -0.6325  1.2569
   29SAPC  H17Y 3944   4.584   4.990   8.624 -1.1691 -0.1861  1.4136
   29SAPC  C318 3945   4.542   5.172   8.748  0.3960  0.1643  0.0048
   29SAPC  H18X 3946   4.460   5.136   8.814 -0.9586  1.3181 -1.0258
   29SAPC  H18Y 3947   4.535   5.280   8.724 -0.0004 -0.0480 -0.8764
   29SAPC  H18Z 3948   4.640   5.160   8.799  0.5771  1.6681  0.0410
   30SAPC     N 3949   0.901   0.166   5.914 -0.2730  0.1342 -0.2153
   30SAPC   C12 3950   0.978   0.079   6.016  0.3444  0.0760 -0.4972
   30SAPC  H12A 3951   1.081   0.112   6.019 -0.1957  1.8172  0.5389
   30SAPC  H12B 3952   0.976  -0.026   5.991  1.6291 -0.0116 -0.3368
   30SAPC   C13 3953   0.764   0.125   5.889 -0.2416 -0.0881 -0.0645
   30SAPC  H13A 3954   0.712   0.146   5.981  0.6753 -2.0807  0.9843
   30SAPC  H13B 3955   0.722   0.169   5.800 -0.6688  0.9181  0.6220
   30SAPC  H13C 3956   0.758   0.017   5.878  2.2475 -0.1477 -1.6621
   30SAPC   C14 3957   0.911   0.305   5.949  0.0921 -0.2760 -0.0646
   30SAPC  H14A 3958   0.848   0.323   6.034  0.2737  1.8910 -0.3416
   30SAPC  H14B 3959   1.011   0.332   5.976 -0.9437  2.6509  1.2074
   30SAPC  H14C 3960   0.880   0.360   5.861  0.2541 -1.9145 -1.1988
   30SAPC   C15 3961   0.983   0.144   5.788 -0.3146 -0.1413  0.0195
   30SAPC  H15A 3962   1.079   0.187   5.812 -1.3990  2.6535 -0.2434
   30SAPC  H15B 3963   0.987   0.039   5.766 -0.5895 -0.4539  1.3792
   30SAPC  H15C 3964   0.940   0.199   5.705  1.9329  0.4730 -0.8046
   30SAPC   C11 3965   0.940   0.088   6.161  0.3678  0.2751  0.8747
   30SAPC  H11A 3966   0.930   0.190   6.202 -1.6541 -1.1224  4.2072
   30SAPC  H11B 3967   1.009   0.035   6.229 -1.3904 -0.6288  2.0150
   30SAPC     P 3968   0.791  -0.119   6.225 -0.0900  0.5708  0.4034
   30SAPC   O13 3969   0.714  -0.192   6.127 -0.7000 -0.0169 -0.3620
   30SAPC   O14 3970   0.931  -0.175   6.246 -0.0551 -0.2446 -0.0159
   30SAPC   O12 3971   0.804   0.033   6.180 -0.6435 -0.1820 -0.0444
   30SAPC   O11 3972   0.709  -0.123   6.359 -0.0067  0.4225  0.2732
   30SAPC    C1 3973   0.699  -0.001   6.422 -0.2444  0.2024 -0.6790
   30SAPC    HA 3974   0.795   0.038   6.461  0.1030  0.9559 -2.2292
   30SAPC    HB 3975   0.654   0.078   6.358  1.1149  0.4343 -1.3883
   30SAPC    C2 3976   0.594   0.001   6.538 -0.8843  0.2066 -0.3365
   30SAPC    HS 3977   0.581   0.101   6.586 -2.4092  1.4041 -2.9713
   30SAPC   O21 3978   0.620  -0.110   6.630 -0.4798 -0.4495  0.2769
   30SAPC   C21 3979   0.588  -0.096   6.755  0.0486  0.2212 -0.1447
   30SAPC   O22 3980   0.554   0.004   6.809  0.0053 -0.8693 -0.2341
   30SAPC   C22 3981   0.614  -0.222   6.832 -0.0490  0.7180  0.6378
   30SAPC   H2R 3982   0.639  -0.307   6.765 -0.2454  1.6179 -0.6067
   30SAPC   H2S 3983   0.702  -0.196   6.894 -0.0098  1.7203  0.1708
   30SAPC    C3 3984   0.454  -0.018   6.471 -0.1227 -0.0418  0.3686
   30SAPC    HX 3985   0.459  -0.073   6.374 -1.3985  1.1823 -0.4412
   30SAPC    HY 3986   0.423   0.084   6.441  1.5609  0.1175 -0.9450
   30SAPC   O31 3987   0.356  -0.085   6.550  0.2125  0.4730 -0.4268
   30SAPC   C31 3988   0.252  -0.019   6.597 -0.4038  0.0945 -0.9409
   30SAPC   O32 3989   0.224   0.101   6.583  0.7061 -0.4814 -0.2212
   30SAPC   C32 3990   0.177  -0.114   6.691  0.2048  0.5170  0.5844
   30SAPC   H2X 3991   0.234  -0.204   6.723  1.2284  0.6681 -0.7047
   30SAPC   H2Y 3992   0.074  -0.131   6.652 -0.5670  0.5987  2.4948
   30SAPC   C23 3993   0.480  -0.277   6.892 -0.3735  0.8857 -0.0262
   30SAPC   H3R 3994   0.423  -0.330   6.812  1.0996 -1.2409  0.2601
   30SAPC   H3S 3995   0.420  -0.197   6.941 -2.3041 -0.4776 -0.0387
   30SAPC   C24 3996   0.503  -0.379   7.013  1.0605  0.2673  0.4804
   30SAPC   H4R 3997   0.404  -0.412   7.053  0.6102 -0.3540 -1.0712
   30SAPC   H4S 3998   0.536  -0.321   7.102 -3.5671  0.3733  2.4391
   30SAPC   C25 3999   0.589  -0.498   6.978  0.0384 -0.3346 -0.3948
   30SAPC   H5R 4000   0.652  -0.487   6.888 -0.7355  0.1442 -0.8943
   30SAPC   C26 4001   0.565  -0.620   7.040 -0.6573  0.2117  0.2872
   30SAPC   H6R 4002   0.623  -0.707   7.005 -0.4251  0.8109 -0.8856
   30SAPC   C27 4003   0.465  -0.647   7.150  0.1190  1.0410 -0.8821
   30SAPC   H7R 4004   0.482  -0.750   7.189 -0.2149  1.0241 -0.7802
   30SAPC   H7S 4005   0.364  -0.630   7.108  0.7326  3.0783 -1.6662
   30SAPC   C28 4006   0.473  -0.567   7.284  0.2106  0.4729  0.4380
   30SAPC   H8R 4007   0.575  -0.564   7.325  0.1735 -2.6330  1.0410
   30SAPC   C29 4008   0.379  -0.511   7.360  0.4196  0.3991 -0.0288
   30SAPC   H9R 4009   0.418  -0.459   7.449 -0.5811  0.1770  0.5612
   30SAPC  C210 4010   0.231  -0.512   7.342  0.0121 -0.3588 -0.1523
   30SAPC  H10R 4011   0.182  -0.534   7.440 -3.0233  0.9671 -1.2719
   30SAPC  H10S 4012   0.205  -0.604   7.285 -0.9227 -1.2216  1.5801
   30SAPC  C211 4013   0.168  -0.401   7.258  0.0145 -0.0565  0.1300
   30SAPC  H11R 4014   0.139  -0.421   7.154 -2.0827  2.3344  0.1507
   30SAPC  C212 4015   0.167  -0.273   7.297  0.6630  0.1138 -0.2842
   30SAPC  H12R 4016   0.119  -0.198   7.231 -0.8852 -1.8234 -1.4672
   30SAPC  C213 4017   0.217  -0.208   7.420 -0.4873  0.8741  0.2033
   30SAPC  H13R 4018   0.256  -0.286   7.489  0.3755  0.2563 -0.9460
   30SAPC  H13S 4019   0.128  -0.157   7.463 -0.5042 -0.2968  1.6657
   30SAPC  C214 4020   0.327  -0.106   7.401 -0.1551  0.0561  0.8883
   30SAPC  H14R 4021   0.296  -0.023   7.336  1.8634 -0.6014 -1.0853
   30SAPC  C215 4022   0.452  -0.111   7.449 -0.3785  0.5200  0.7477
   30SAPC  H15R 4023   0.521  -0.032   7.416 -0.3031  0.0098 -0.3413
   30SAPC  C216 4024   0.522  -0.217   7.536 -0.0864  0.0568  0.4520
   30SAPC  H16R 4025   0.611  -0.264   7.487 -0.2347 -0.1136  0.3463
   30SAPC  H16S 4026   0.458  -0.296   7.582  2.5075 -0.9021  2.7115
   30SAPC  C217 4027   0.600  -0.144   7.653  0.1837  0.1337  0.0585
   30SAPC  H17R 4028   0.677  -0.080   7.605  1.4151 -0.7474  0.7967
   30SAPC  H17S 4029   0.655  -0.229   7.701 -0.4541 -1.0042 -1.1452
   30SAPC  C218 4030   0.509  -0.101   7.762  0.2617 -1.0718 -0.4124
   30SAPC  H18R 4031   0.443  -0.020   7.724  1.6348  1.1197  1.6326
   30SAPC  H18S 4032   0.563  -0.051   7.845 -2.4439  0.6393  0.4645
   30SAPC  C219 4033   0.420  -0.206   7.820  1.2567 -0.4409 -0.4844
   30SAPC  H19R 4034   0.472  -0.302   7.840  1.0181 -0.1427  1.7540
   30SAPC  H19S 4035   0.337  -0.226   7.748 -1.7430  0.9829  2.2949
   30SAPC  C220 4036   0.360  -0.151   7.948 -0.8734 -0.2423  1.3054
   30SAPC  H20R 4037   0.300  -0.060   7.925  1.2618  0.7510 -0.7751
   30SAPC  H20S 4038   0.442  -0.148   8.022  1.4302  0.8490 -1.1173
   30SAPC  H20T 4039   0.292  -0.232   7.981  0.7464 -1.0833  2.6842
   30SAPC   C33 4040   0.143  -0.048   6.831  0.3537  0.2295 -0.2206
   30SAPC   H3X 4041   0.105   0.053   6.806 -0.0231  0.1043 -0.1640
   30SAPC   H3Y 4042   0.229  -0.037   6.900 -0.3255 -0.1246  0.6970
   30SAPC   C34 4043   0.042  -0.137   6.909  0.1761  0.0763  0.0012
   30SAPC   H4X 4044   0.083  -0.238   6.925 -0.3727 -0.7291 -2.9392
   30SAPC   H4Y 4045  -0.041  -0.165   6.840  0.0891 -1.9951  0.9020
   30SAPC   C35 4046  -0.006  -0.070   7.032  0.4047  0.2083 -0.5714
   30SAPC   H5X 4047  -0.057   0.024   7.002 -2.1950 -1.2773 -1.0638
   30SAPC   H5Y 4048   0.088  -0.061   7.092 -0.1832 -0.4210  0.4707
   30SAPC   C36 4049  -0.106  -0.151   7.109  0.0542  0.6697  0.6628
   30SAPC   H6X 4050  -0.069  -0.254   7.129 -0.4181 -0.2516 -2.6957
   30SAPC   H6Y 4051  -0.199  -0.139   7.050  0.3330  2.1468  0.4827
   30SAPC   C37 4052  -0.141  -0.077   7.239 -0.5226  0.5095  0.3163
   30SAPC   H7X 4053  -0.198   0.014   7.213 -2.4418 -1.3143 -2.3272
   30SAPC   H7Y 4054  -0.044  -0.046   7.284  0.2464  0.6933 -1.3798
   30SAPC   C38 4055  -0.206  -0.179   7.338 -0.0277  0.3853  0.0210
   30SAPC   H8X 4056  -0.131  -0.261   7.345 -0.5429 -0.1256 -0.3226
   30SAPC   H8Y 4057  -0.296  -0.223   7.289  1.5722 -0.4134 -2.3589
   30SAPC   C39 4058  -0.237  -0.127   7.478  0.2088 -0.4666 -0.6423
   30SAPC   H9X 4059  -0.311  -0.044   7.478  1.3885  0.6889  1.9966
   30SAPC   H9Y 4060  -0.148  -0.080   7.525 -0.5809  0.0562  0.3787
   30SAPC  C310 4061  -0.301  -0.237   7.558 -0.7947  0.5866 -0.2259
   30SAPC  H10X 4062  -0.242  -0.331   7.554 -0.5161  0.6193  1.8631
   30SAPC  H10Y 4063  -0.398  -0.264   7.513 -1.3334  1.3165  0.4556
   30SAPC  C311 4064  -0.325  -0.199   7.704 -0.5963  0.0184  0.6134
   30SAPC  H11X 4065  -0.368  -0.285   7.759  0.9373 -0.8556  0.4965
   30SAPC  H11Y 4066  -0.414  -0.132   7.703  0.5944  1.7801 -2.3600
   30SAPC  C312 4067  -0.207  -0.133   7.782 -0.0813  0.4272 -0.4962
   30SAPC  H12X 4068  -0.243  -0.087   7.876 -1.5762 -0.7752 -0.4352
   30SAPC  H12Y 4069  -0.170  -0.048   7.722  1.9219 -0.8441 -1.1758
   30SAPC  C313 4070  -0.086  -0.229   7.799 -0.6784  0.0107 -0.0731
   30SAPC  H13X 4071   0.005  -0.168   7.821  0.3529 -2.2029  2.4261
   30SAPC  H13Y 4072  -0.051  -0.276   7.705  2.3509 -1.1072  1.4487
   30SAPC  C314 4073  -0.084  -0.341   7.898  0.0665 -0.0052 -0.2866
   30SAPC  H14X 4074  -0.183  -0.391   7.898  0.7396 -1.4649  1.3887
   30SAPC  H14Y 4075  -0.067  -0.304   8.001  0.0871  1.0574 -0.6633
   30SAPC  C315 4076   0.026  -0.445   7.863  0.2611 -0.6936 -1.0520
   30SAPC  H15X 4077   0.126  -0.397   7.858  0.7103 -1.3098  0.9561
   30SAPC  H15Y 4078  -0.007  -0.492   7.768 -1.8953 -0.7406 -0.3430
   30SAPC  C316 4079   0.038  -0.548   7.974 -0.2316  0.8673 -0.3230
   30SAPC  H16X 4080   0.093  -0.634   7.930 -1.4477  0.3392 -0.8387
   30SAPC  H16Y 4081  -0.058  -0.600   7.996 -1.0192  1.5396 -2.0050
   30SAPC  C317 4082   0.115  -0.502   8.104  0.0978 -0.0991  0.0508
   30SAPC  H17X 4083   0.073  -0.403   8.129 -0.1458  0.2696 -1.6943
   30SAPC  H17Y 4084   0.216  -0.473   8.069 -0.7285  2.2902 -0.5075
   30SAPC  C318 4085   0.125  -0.602   8.223  0.5410 -0.0427  0.6589
   30SAPC  H18X 4086   0.022  -0.612   8.263  0.1009 -3.6721 -0.9736
   30SAPC  H18Y 4087   0.187  -0.558   8.303 -0.8283 -1.5590  2.6581
   30SAPC  H18Z 4088   0.154  -0.707   8.201  0.3064  0.0130  0.0552
   31SAPC     N 4089   0.869   1.015   6.219 -0.1190 -0.3737  0.3544
   31SAPC   C12 4090   0.736   0.968   6.273 -1.1329  0.0054 -0.5234
   31SAPC  H12A 4091   0.669   1.002   6.195  0.0216  1.8687 -0.7674
   31SAPC  H12B 4092   0.712   1.020   6.364 -0.5464 -0.1074 -0.3045
   31SAPC   C13 4093   0.898   0.948   6.093  0.3887 -0.5465  0.0909
   31SAPC  H13A 4094   0.894   0.841   6.103 -1.1698 -0.3683  1.9413
   31SAPC  H13B 4095   0.824   0.976   6.020  0.5673 -0.1300  0.0637
   31SAPC  H13C 4096   1.000   0.977   6.070  0.8350  0.8005  3.2277
   31SAPC   C14 4097   0.861   1.165   6.211 -0.1791  0.1650  0.6658
   31SAPC  H14A 4098   0.781   1.191   6.143 -0.1753 -2.1594 -0.3370
   31SAPC  H14B 4099   0.844   1.211   6.307 -0.2051  0.2810  0.6055
   31SAPC  H14C 4100   0.956   1.200   6.173 -0.0183  0.3113  1.1950
   31SAPC   C15 4101   0.976   0.977   6.317 -0.0195 -0.1146 -0.2400
   31SAPC  H15A 4102   1.069   0.998   6.266  0.0465  0.1876  0.0064
   31SAPC  H15B 4103   0.972   1.032   6.410  0.7276  0.4834 -0.5468
   31SAPC  H15C 4104   0.974   0.872   6.343 -0.0962 -0.2305 -0.7011
   31SAPC   C11 4105   0.712   0.816   6.293 -0.1294  0.0010  0.0690
   31SAPC  H11A 4106   0.668   0.775   6.386  0.3064  1.0481  0.7529
   31SAPC  H11B 4107   0.812   0.767   6.292  0.9085  2.0300  0.4753
   31SAPC     P 4108   0.483   0.770   6.184 -0.1640  0.4661  0.0108
   31SAPC   O13 4109   0.440   0.908   6.177  0.1866 -1.0172  0.0368
   31SAPC   O14 4110   0.422   0.676   6.089 -0.6778  0.3692  0.7312
   31SAPC   O12 4111   0.644   0.769   6.176 -0.3878 -0.1827 -0.1393
   31SAPC   O11 4112   0.452   0.707   6.322 -0.3647 -0.0377 -0.5055
   31SAPC    C1 4113   0.491   0.570   6.346  0.7096 -0.1488  0.2901
   31SAPC    HA 4114   0.416   0.502   6.299  2.3311 -0.7187 -1.6273
   31SAPC    HB 4115   0.594   0.547   6.312  2.1294  4.7698  0.5543
   31SAPC    C2 4116   0.490   0.539   6.501  0.5244 -0.0961  0.1431
   31SAPC    HS 4117   0.384   0.528   6.532  0.2668 -0.2185 -0.7323
   31SAPC   O21 4118   0.565   0.638   6.569 -0.0998 -0.3766  0.3236
   31SAPC   C21 4119   0.507   0.702   6.661 -0.2596 -0.2127  0.8150
   31SAPC   O22 4120   0.387   0.688   6.695  0.5665 -0.1463  0.4429
   31SAPC   C22 4121   0.609   0.802   6.710 -0.1215 -0.3169 -0.0903
   31SAPC   H2R 4122   0.705   0.745   6.716  0.4479  0.5860 -0.4561
   31SAPC   H2S 4123   0.611   0.887   6.639  0.0660  0.5351  0.9033
   31SAPC    C3 4124   0.562   0.403   6.526 -0.3671 -0.9967 -0.0475
   31SAPC    HX 4125   0.664   0.410   6.484 -0.3690 -3.0973 -0.4765
   31SAPC    HY 4126   0.510   0.320   6.474 -2.4353 -0.3343  0.8433
   31SAPC   O31 4127   0.564   0.361   6.668 -0.0496 -0.0680  0.2736
   31SAPC   C31 4128   0.682   0.373   6.742  0.0015 -0.7696  0.0055
   31SAPC   O32 4129   0.777   0.430   6.692 -0.1525  0.1414  0.1667
   31SAPC   C32 4130   0.670   0.327   6.884  0.4781 -0.3866  0.3034
   31SAPC   H2X 4131   0.643   0.219   6.888  3.4723 -1.2090  1.6506
   31SAPC   H2Y 4132   0.603   0.394   6.942 -1.5375 -1.3490 -0.8150
   31SAPC   C23 4133   0.578   0.876   6.841 -0.2112 -0.3092  0.2758
   31SAPC   H3R 4134   0.484   0.933   6.822 -0.5103 -0.6620  0.6668
   31SAPC   H3S 4135   0.658   0.950   6.862 -0.4074  0.0739 -0.2891
   31SAPC   C24 4136   0.559   0.782   6.957  1.0895 -0.3796  0.1100
   31SAPC   H4R 4137   0.475   0.714   6.930 -0.3292  1.0509  0.7103
   31SAPC   H4S 4138   0.527   0.856   7.034  1.7599 -0.9654  0.9685
   31SAPC   C25 4139   0.674   0.705   7.004  0.3447 -0.1138 -0.2751
   31SAPC   H5R 4140   0.739   0.652   6.932 -0.9894 -0.0782 -1.5472
   31SAPC   C26 4141   0.702   0.675   7.136 -0.3220 -0.1844 -0.1308
   31SAPC   H6R 4142   0.800   0.626   7.150 -0.0618  0.2968 -0.2410
   31SAPC   C27 4143   0.649   0.713   7.268 -0.2309 -0.2830 -0.4874
   31SAPC   H7R 4144   0.635   0.824   7.263  2.0725  0.1136  0.5890
   31SAPC   H7S 4145   0.713   0.702   7.358 -1.7594 -1.7417  0.4829
   31SAPC   C28 4146   0.514   0.648   7.297  0.0292 -0.1480 -0.2244
   31SAPC   H8R 4147   0.468   0.610   7.205  1.0865  0.9836 -1.2722
   31SAPC   C29 4148   0.448   0.623   7.412  0.3862 -0.8223 -0.2829
   31SAPC   H9R 4149   0.346   0.584   7.405  0.8858 -2.2351  0.0587
   31SAPC  C210 4150   0.494   0.650   7.554  0.2553  0.5965 -0.6427
   31SAPC  H10R 4151   0.599   0.617   7.571 -0.1357 -1.3749 -1.7001
   31SAPC  H10S 4152   0.429   0.583   7.614  0.9836  0.3637 -0.0948
   31SAPC  C211 4153   0.467   0.794   7.596 -0.4636  0.8697 -0.5642
   31SAPC  H11R 4154   0.465   0.866   7.513 -0.2567  0.0360 -1.3098
   31SAPC  C212 4155   0.461   0.828   7.726  0.2295  0.1785 -0.2207
   31SAPC  H12R 4156   0.444   0.932   7.758  2.6636  0.9239 -1.1196
   31SAPC  C213 4157   0.486   0.730   7.848 -0.2122 -0.5392 -0.1792
   31SAPC  H13R 4158   0.584   0.682   7.828  1.2750  2.4427 -0.5462
   31SAPC  H13S 4159   0.417   0.643   7.837  1.3677 -1.9811  0.8393
   31SAPC  C214 4160   0.468   0.797   7.981  0.6221  0.0178 -0.7023
   31SAPC  H14R 4161   0.370   0.842   7.999  0.3642 -0.3732 -1.1028
   31SAPC  C215 4162   0.548   0.805   8.087 -1.1435  0.0628  0.0755
   31SAPC  H15R 4163   0.513   0.850   8.181  1.0261  2.0761  0.0101
   31SAPC  C216 4164   0.679   0.743   8.088 -0.0658 -0.4011 -0.2564
   31SAPC  H16R 4165   0.735   0.774   7.997 -0.8111 -0.0484 -0.6024
   31SAPC  H16S 4166   0.667   0.633   8.075 -0.8049 -0.4597  0.8616
   31SAPC  C217 4167   0.761   0.756   8.224 -0.2154  0.6298  0.1754
   31SAPC  H17R 4168   0.839   0.677   8.224 -2.2249 -1.4623  0.1173
   31SAPC  H17S 4169   0.698   0.732   8.313  0.7540  3.2258  1.6843
   31SAPC  C218 4170   0.830   0.891   8.242  0.7706  0.2331 -0.0373
   31SAPC  H18R 4171   0.759   0.975   8.222 -0.3857 -0.6073  0.3997
   31SAPC  H18S 4172   0.901   0.900   8.157  1.7304 -2.0887  0.4599
   31SAPC  C219 4173   0.902   0.931   8.378  0.2789  0.1188  0.0904
   31SAPC  H19R 4174   0.959   0.840   8.406  1.7801  1.4085  1.3623
   31SAPC  H19S 4175   0.826   0.951   8.456 -2.2445  0.6109 -2.3059
   31SAPC  C220 4176   1.006   1.042   8.373 -0.2193 -0.0553 -0.4554
   31SAPC  H20R 4177   1.107   1.003   8.345 -0.0743 -0.0160  0.0102
   31SAPC  H20S 4178   1.004   1.086   8.475  0.3938  1.3879 -1.0234
   31SAPC  H20T 4179   0.978   1.113   8.292 -2.5577 -0.0805  0.2660
   31SAPC   C33 4180   0.814   0.326   6.953  0.4018 -0.3773 -0.5131
   31SAPC   H3X 4181   0.865   0.424   6.940 -0.0591 -0.2145 -1.1483
   31SAPC   H3Y 4182   0.885   0.252   6.911  1.4183  0.3914 -0.1926
   31SAPC   C34 4183   0.783   0.314   7.109 -0.1638  0.6482  0.4609
   31SAPC   H4X 4184   0.697   0.376   7.142 -0.7991 -0.2529  0.5144
   31SAPC   H4Y 4185   0.872   0.350   7.166  0.2167 -0.4321  0.5661
   31SAPC   C35 4186   0.763   0.174   7.157  0.1426  0.0935  0.5496
   31SAPC   H5X 4187   0.862   0.125   7.175  0.0013  0.2857  2.0061
   31SAPC   H5Y 4188   0.717   0.119   7.073  2.3792  1.8835 -2.0130
   31SAPC   C36 4189   0.679   0.171   7.284 -0.5159  0.4578 -0.0182
   31SAPC   H6X 4190   0.675   0.065   7.318  0.9348 -0.0376 -1.2587
   31SAPC   H6Y 4191   0.575   0.195   7.255 -0.7875  0.4743  0.9639
   31SAPC   C37 4192   0.729   0.256   7.395  0.1046 -0.2857  0.1603
   31SAPC   H7X 4193   0.695   0.360   7.378  1.3588  0.0829 -0.2576
   31SAPC   H7Y 4194   0.836   0.228   7.405  0.0712 -0.3626  0.3084
   31SAPC   C38 4195   0.664   0.211   7.525 -0.9721 -0.0796 -0.1927
   31SAPC   H8X 4196   0.725   0.120   7.546  0.0152  0.7243  0.4990
   31SAPC   H8Y 4197   0.555   0.198   7.510 -1.6417  3.0615  1.1973
   31SAPC   C39 4198   0.674   0.312   7.648 -0.1533  0.9180 -0.4034
   31SAPC   H9X 4199   0.625   0.410   7.629  0.3990  1.3862  0.5261
   31SAPC   H9Y 4200   0.784   0.332   7.654 -0.6793  3.6725  3.5799
   31SAPC  C310 4201   0.625   0.248   7.779  0.3605  0.1182  0.5405
   31SAPC  H10X 4202   0.685   0.154   7.779  0.3773  0.1292  0.4821
   31SAPC  H10Y 4203   0.516   0.230   7.779  0.6300 -2.4215 -2.8316
   31SAPC  C311 4204   0.667   0.316   7.913 -0.1557  0.7054 -0.4061
   31SAPC  H11X 4205   0.633   0.422   7.915  0.0420  0.7525  0.8427
   31SAPC  H11Y 4206   0.778   0.314   7.909 -0.1641 -0.9784 -0.3889
   31SAPC  C312 4207   0.613   0.226   8.031 -0.1435 -0.5617 -0.0616
   31SAPC  H12X 4208   0.666   0.128   8.034 -1.5053 -1.3110  0.1040
   31SAPC  H12Y 4209   0.508   0.208   8.000 -0.2661  2.6642 -2.0017
   31SAPC  C313 4210   0.615   0.302   8.168 -0.4206 -0.1474  0.6225
   31SAPC  H13X 4211   0.570   0.222   8.231  1.9927 -1.8902  0.2607
   31SAPC  H13Y 4212   0.549   0.391   8.174 -2.8567 -1.8066 -0.1155
   31SAPC  C314 4213   0.758   0.330   8.211 -0.2849 -0.3901  0.1095
   31SAPC  H14X 4214   0.824   0.383   8.139 -0.4644  1.0236  0.9493
   31SAPC  H14Y 4215   0.817   0.235   8.216  1.0879  0.5068  3.7966
   31SAPC  C315 4216   0.776   0.388   8.348  0.1949 -0.5761 -0.1673
   31SAPC  H15X 4217   0.732   0.324   8.427 -1.7698  0.2163 -0.5725
   31SAPC  H15Y 4218   0.720   0.484   8.348  0.3487 -0.4557 -1.9489
   31SAPC  C316 4219   0.919   0.433   8.379 -0.0958  0.0889  0.0425
   31SAPC  H16X 4220   0.941   0.502   8.295  1.0788  0.0438  0.2947
   31SAPC  H16Y 4221   0.987   0.344   8.372 -0.5375 -0.1355 -3.7463
   31SAPC  C317 4222   0.940   0.514   8.503  0.6443 -0.0269 -0.7769
   31SAPC  H17X 4223   0.845   0.565   8.529 -0.4672 -1.2301 -2.2494
   31SAPC  H17Y 4224   1.026   0.579   8.475  0.7603  0.1112 -0.0997
   31SAPC  C318 4225   0.982   0.418   8.613 -0.3010 -0.1094  0.3193
   31SAPC  H18X 4226   1.059   0.351   8.570 -2.7549 -1.9717 -1.3899
   31SAPC  H18Y 4227   0.889   0.366   8.643 -1.8066  1.8794 -0.6820
   31SAPC  H18Z 4228   1.027   0.476   8.697  2.5562 -0.2223 -1.0359
   32SAPC     N 4229   6.070   1.350   5.845 -0.1786 -0.5915  0.2863
   32SAPC   C12 4230   6.175   1.377   5.960 -0.0166 -0.1667  0.3410
   32SAPC  H12A 4231   6.158   1.477   5.997 -3.9567 -0.9965  1.3202
   32SAPC  H12B 4232   6.271   1.378   5.911 -0.1079 -1.0511  0.1169
   32SAPC   C13 4233   5.933   1.385   5.889 -0.0533 -0.4222 -0.1943
   32SAPC  H13A 4234   5.917   1.331   5.980  1.0921 -0.0376  0.2507
   32SAPC  H13B 4235   5.921   1.492   5.902 -3.4755 -0.5706 -1.1485
   32SAPC  H13C 4236   5.855   1.355   5.820  0.7673  0.1977 -1.4255
   32SAPC   C14 4237   6.100   1.445   5.732  0.3093 -0.0849  0.5658
   32SAPC  H14A 4238   6.089   1.546   5.769  0.8875 -0.2225  1.1255
   32SAPC  H14B 4239   6.205   1.443   5.705 -0.0146  1.9676 -1.1476
   32SAPC  H14C 4240   6.037   1.434   5.645  0.1136 -0.4146  0.7464
   32SAPC   C15 4241   6.079   1.214   5.803  0.1441 -0.1378  0.3061
   32SAPC  H15A 4242   6.044   1.144   5.878  1.8939  1.2748  2.5748
   32SAPC  H15B 4243   6.027   1.190   5.712 -0.1048 -2.0190  0.9008
   32SAPC  H15C 4244   6.180   1.183   5.778  0.5526  2.1419 -1.0572
   32SAPC   C11 4245   6.186   1.277   6.080  0.8166  0.0128 -0.4447
   32SAPC  H11A 4246   6.268   1.310   6.146  0.6453 -0.7949  0.1876
   32SAPC  H11B 4247   6.229   1.183   6.039  2.6591  0.9346 -0.7253
   32SAPC     P 4248   6.025   1.313   6.288 -0.4126  0.4066  0.1542
   32SAPC   O13 4249   5.988   1.450   6.265 -0.0240  0.2459 -0.0933
   32SAPC   O14 4250   5.926   1.230   6.353 -0.0076  0.1843  0.3837
   32SAPC   O12 4251   6.060   1.246   6.148  0.4801 -0.1134  0.0593
   32SAPC   O11 4252   6.164   1.312   6.363  0.0248  0.1514  0.0312
   32SAPC    C1 4253   6.228   1.197   6.413 -0.0799 -0.0073 -0.6849
   32SAPC    HA 4254   6.179   1.108   6.368  1.6678  0.1284 -3.0587
   32SAPC    HB 4255   6.326   1.194   6.360  0.7724  3.7926  0.3765
   32SAPC    C2 4256   6.231   1.179   6.570 -0.4889  0.3811  0.2770
   32SAPC    HS 4257   6.290   1.088   6.593  1.4590  0.9792 -1.9159
   32SAPC   O21 4258   6.095   1.159   6.616 -1.0193  0.0589 -0.1657
   32SAPC   C21 4259   6.087   1.085   6.730  0.1132  0.4073  0.4280
   32SAPC   O22 4260   6.178   1.037   6.791 -0.3781 -0.2000 -0.4314
   32SAPC   C22 4261   5.943   1.089   6.766 -0.2352 -0.3822 -0.6772
   32SAPC   H2R 4262   5.927   1.198   6.784  2.2235  0.1873 -1.4396
   32SAPC   H2S 4263   5.886   1.051   6.678 -1.7037 -0.8448  0.4386
   32SAPC    C3 4264   6.299   1.306   6.628  0.2264 -0.1646  0.5142
   32SAPC    HX 4265   6.219   1.381   6.612  0.5751 -0.0030 -0.5362
   32SAPC    HY 4266   6.382   1.340   6.564  0.0463  0.5013  0.6314
   32SAPC   O31 4267   6.330   1.293   6.774  0.0352 -0.5033  0.0164
   32SAPC   C31 4268   6.455   1.297   6.796 -0.6485 -0.5509 -0.9067
   32SAPC   O32 4269   6.543   1.270   6.714 -0.5112 -0.4217  0.1200
   32SAPC   C32 4270   6.484   1.312   6.949 -0.3033  0.1253  0.2365
   32SAPC   H2X 4271   6.454   1.220   7.003  0.3037 -0.0249  0.3301
   32SAPC   H2Y 4272   6.426   1.391   7.000 -0.8327 -1.0918  1.5589
   32SAPC   C23 4273   5.901   1.000   6.885  0.3269 -0.6568 -0.6255
   32SAPC   H3R 4274   5.948   0.900   6.879 -0.1444 -0.9007 -0.3338
   32SAPC   H3S 4275   5.790   0.992   6.877  0.3204  0.8389 -3.2097
   32SAPC   C24 4276   5.924   1.062   7.023  0.5150 -0.0733  0.3771
   32SAPC   H4R 4277   5.898   0.977   7.090  0.9903 -0.6373 -0.1508
   32SAPC   H4S 4278   5.859   1.152   7.038 -1.0069 -1.0037 -0.3838
   32SAPC   C25 4279   6.065   1.105   7.062 -0.5223 -0.2199 -0.7223
   32SAPC   H5R 4280   6.120   1.170   6.991 -2.0691  1.2185 -0.6722
   32SAPC   C26 4281   6.130   1.060   7.173  0.2360  0.3120 -0.3629
   32SAPC   H6R 4282   6.232   1.097   7.194  0.4373  0.2538 -1.1689
   32SAPC   C27 4283   6.077   0.958   7.270 -0.8745 -0.0054  0.2839
   32SAPC   H7R 4284   6.167   0.900   7.300  0.5054  1.4277 -0.9098
   32SAPC   H7S 4285   6.027   0.882   7.206 -2.5929  0.9749  0.4012
   32SAPC   C28 4286   5.978   1.006   7.377 -0.0319  0.5403 -0.4733
   32SAPC   H8R 4287   5.891   1.061   7.338 -0.5430  1.1290  1.4023
   32SAPC   C29 4288   5.968   0.972   7.506 -0.0996  0.7071 -0.9093
   32SAPC   H9R 4289   5.886   1.021   7.561 -0.9668 -2.0751  0.4194
   32SAPC  C210 4290   6.059   0.886   7.585  0.3119 -0.3723 -0.2481
   32SAPC  H10R 4291   6.135   0.945   7.640  0.4333 -0.5595 -0.2098
   32SAPC  H10S 4292   6.128   0.830   7.517  3.4603  2.3210  0.4736
   32SAPC  C211 4293   5.994   0.801   7.692  0.2263 -0.4554 -0.1166
   32SAPC  H11R 4294   5.945   0.716   7.644  2.0846 -1.4249 -0.3766
   32SAPC  C212 4295   5.986   0.817   7.826 -0.3186 -0.1442 -0.4230
   32SAPC  H12R 4296   5.935   0.743   7.889 -0.1701 -0.0861 -0.2331
   32SAPC  C213 4297   6.053   0.926   7.902  0.0587 -0.0625 -0.1667
   32SAPC  H13R 4298   6.089   1.001   7.828  1.2090 -0.1283  0.2960
   32SAPC  H13S 4299   6.146   0.884   7.946 -0.0498  1.1309  1.2581
   32SAPC  C214 4300   5.978   0.988   8.012 -0.2023 -0.1493 -0.3675
   32SAPC  H14R 4301   5.900   1.062   7.989 -2.0169 -0.9852  2.5239
   32SAPC  C215 4302   5.994   0.958   8.144  0.3674 -0.1073 -0.4829
   32SAPC  H15R 4303   5.932   1.002   8.223  0.7634 -0.7736  0.2203
   32SAPC  C216 4304   6.081   0.860   8.208 -0.5469  0.4197 -0.1280
   32SAPC  H16R 4305   6.128   0.902   8.300  0.9006  1.3054 -1.2243
   32SAPC  H16S 4306   6.171   0.856   8.144 -0.2725 -3.4446  0.2448
   32SAPC  C217 4307   6.009   0.722   8.207  0.1785 -0.4128 -0.4124
   32SAPC  H17R 4308   5.978   0.705   8.102  1.2657  0.5742 -0.9223
   32SAPC  H17S 4309   5.913   0.719   8.263 -1.1251 -3.2904 -2.5910
   32SAPC  C218 4310   6.095   0.602   8.242  0.3896  0.2388  0.2247
   32SAPC  H18R 4311   6.042   0.505   8.238 -1.0254  0.9757  0.3522
   32SAPC  H18S 4312   6.124   0.598   8.349  0.7855 -0.7987  0.0864
   32SAPC  C219 4313   6.225   0.593   8.163 -0.6233  0.2441 -0.2073
   32SAPC  H19R 4314   6.280   0.506   8.205  0.3421 -0.1386 -2.1545
   32SAPC  H19S 4315   6.266   0.695   8.179 -1.2692  0.7291 -1.5336
   32SAPC  C220 4316   6.211   0.567   8.008  0.0889 -0.3486  0.8530
   32SAPC  H20R 4317   6.304   0.568   7.948 -1.2983 -1.3046 -1.4227
   32SAPC  H20S 4318   6.152   0.650   7.962 -0.3858 -1.7869 -1.2641
   32SAPC  H20T 4319   6.160   0.469   7.995 -2.9238  1.3083 -1.1772
   32SAPC   C33 4320   6.633   1.333   6.987 -0.4294 -0.2155 -0.3552
   32SAPC   H3X 4321   6.682   1.410   6.923  0.5436  0.6260  1.3299
   32SAPC   H3Y 4322   6.681   1.233   6.976 -3.1631 -1.8679  1.5158
   32SAPC   C34 4323   6.660   1.362   7.137 -0.1101 -0.2732 -0.0889
   32SAPC   H4X 4324   6.615   1.282   7.200 -0.2070  1.0275  1.5613
   32SAPC   H4Y 4325   6.596   1.447   7.168  0.5259  0.6356 -1.1810
   32SAPC   C35 4326   6.806   1.396   7.176 -0.5287  0.6474  0.3840
   32SAPC   H5X 4327   6.812   1.506   7.163 -1.1161  0.6129 -0.2460
   32SAPC   H5Y 4328   6.869   1.351   7.097 -0.6038  0.2186  0.5645
   32SAPC   C36 4329   6.851   1.343   7.320  0.2753 -0.2692 -0.4330
   32SAPC   H6X 4330   6.845   1.232   7.312 -0.8210 -0.2250 -0.4033
   32SAPC   H6Y 4331   6.786   1.373   7.406  0.9448 -1.9636  0.7331
   32SAPC   C37 4332   6.990   1.389   7.342 -0.1507  0.0730  0.2735
   32SAPC   H7X 4333   6.981   1.497   7.365  1.8758  0.5233 -0.7548
   32SAPC   H7Y 4334   7.033   1.384   7.239 -0.9966  0.6903 -0.1200
   32SAPC   C38 4335   7.073   1.306   7.442  0.3601  0.4932  0.0981
   32SAPC   H8X 4336   7.173   1.352   7.460 -0.1336  0.2533  4.9194
   32SAPC   H8Y 4337   7.086   1.200   7.410 -0.0885  0.2019  0.8640
   32SAPC   C39 4338   7.005   1.292   7.578 -0.2377  0.0054 -0.5322
   32SAPC   H9X 4339   6.911   1.233   7.568  0.8149 -1.4028 -3.2799
   32SAPC   H9Y 4340   6.971   1.390   7.616  0.9433 -0.2025  1.1334
   32SAPC  C310 4341   7.113   1.235   7.674 -0.2953  0.2753 -0.4546
   32SAPC  H10X 4342   7.204   1.298   7.668 -0.8159  1.1881  0.7403
   32SAPC  H10Y 4343   7.147   1.134   7.643  0.1726  0.5362 -0.8000
   32SAPC  C311 4344   7.051   1.235   7.814 -0.9412 -0.1860  0.3023
   32SAPC  H11X 4345   6.958   1.174   7.824 -1.8708  1.0355 -0.6607
   32SAPC  H11Y 4346   7.019   1.337   7.845 -0.7719 -0.1079  0.2180
   32SAPC  C312 4347   7.146   1.172   7.921 -0.0850 -0.7308  0.0871
   32SAPC  H12X 4348   7.244   1.223   7.903 -0.9526  0.9168 -0.2126
   32SAPC  H12Y 4349   7.151   1.062   7.913 -0.0731 -0.8456  1.4953
   32SAPC  C313 4350   7.101   1.210   8.066  0.0666 -0.7875  0.3194
   32SAPC  H13X 4351   7.015   1.145   8.093 -1.5449  0.6944 -1.0252
   32SAPC  H13Y 4352   7.063   1.314   8.069 -1.8853 -1.4413 -0.3224
   32SAPC  C314 4353   7.217   1.188   8.164 -0.2384 -0.3802  0.7755
   32SAPC  H14X 4354   7.265   1.094   8.129  0.2946  0.0757  0.2607
   32SAPC  H14Y 4355   7.173   1.177   8.266 -0.7931  2.2966  0.9001
   32SAPC  C315 4356   7.323   1.299   8.166  0.6337  0.2851  0.3803
   32SAPC  H15X 4357   7.269   1.392   8.195 -0.9798 -0.5764  0.2680
   32SAPC  H15Y 4358   7.368   1.307   8.065 -1.8353 -0.5665 -0.8748
   32SAPC  C316 4359   7.434   1.271   8.266  0.1109 -0.6631 -0.0887
   32SAPC  H16X 4360   7.495   1.188   8.224  1.5607 -0.4196  1.4377
   32SAPC  H16Y 4361   7.402   1.253   8.371  0.1594  1.3654  0.3144
   32SAPC  C317 4362   7.531   1.388   8.275 -0.0579 -0.8117  0.3260
   32SAPC  H17X 4363   7.580   1.389   8.175 -1.3547 -0.8860 -0.3255
   32SAPC  H17Y 4364   7.610   1.354   8.346 -0.0549  1.1067  1.2889
   32SAPC  C318 4365   7.492   1.531   8.308  0.6096  0.2496 -0.3394
   32SAPC  H18X 4366   7.397   1.569   8.266  0.2272 -2.0859 -1.7536
   32SAPC  H18Y 4367   7.566   1.607   8.276  0.0643  0.3907 -1.2990
   32SAPC  H18Z 4368   7.484   1.532   8.419 -1.6821 -0.3052 -0.4575
   33POPC     N 4369   5.772   3.908  10.808 -0.1314  0.3774  0.0096
   33POPC   C12 4370   5.747   3.926  10.658 -0.2606  0.0307 -0.4942
   33POPC  H12A 4371   5.826   3.869  10.610 -0.1327 -0.3051  0.0977
   33POPC  H12B 4372   5.774   4.026  10.629 -0.3951  0.1364 -0.2509
   33POPC   C13 4373   5.916   3.923  10.838  0.1128 -0.5450  0.1674
   33POPC  H13A 4374   5.982   3.850  10.793  1.1264 -0.5461  1.5875
   33POPC  H13B 4375   5.950   4.020  10.804 -1.8313 -0.3117 -1.2516
   33POPC  H13C 4376   5.935   3.914  10.944  0.1930 -2.0973  0.0380
   33POPC   C14 4377   5.693   4.004  10.893  0.0252 -0.9781  0.0020
   33POPC  H14A 4378   5.695   3.981  10.998 -2.4867  0.9536  0.5633
   33POPC  H14B 4379   5.731   4.104  10.877  2.2217 -1.9586 -1.4952
   33POPC  H14C 4380   5.593   4.003  10.853  0.3434 -0.4569 -0.8659
   33POPC   C15 4381   5.724   3.776  10.858 -0.0559  0.1053  0.2838
   33POPC  H15A 4382   5.751   3.767  10.962  1.5798 -1.4123 -0.2288
   33POPC  H15B 4383   5.767   3.693  10.806 -3.2551 -0.8705 -1.0697
   33POPC  H15C 4384   5.618   3.757  10.846 -0.1290  1.0683 -0.7430
   33POPC   C11 4385   5.613   3.902  10.600 -0.2942 -0.2765 -0.7195
   33POPC  H11A 4386   5.595   3.924  10.493 -4.1727 -1.1466 -0.3826
   33POPC  H11B 4387   5.542   3.967  10.655 -0.5522 -0.4295 -0.8703
   33POPC     P 4388   5.575   3.656  10.514  0.3556  0.1725 -0.1829
   33POPC   O13 4389   5.446   3.576  10.526  0.0147 -0.5802  0.2325
   33POPC   O14 4390   5.701   3.589  10.534 -0.5684  1.0748  0.2563
   33POPC   O12 4391   5.560   3.771  10.627 -0.1689  0.5825 -0.5621
   33POPC   O11 4392   5.573   3.736  10.374  0.6052 -0.2042 -0.3820
   33POPC    C1 4393   5.455   3.791  10.316  0.0216  0.5051 -0.7912
   33POPC    HA 4394   5.371   3.809  10.387  0.5865  1.6688 -0.3999
   33POPC    HB 4395   5.473   3.879  10.251 -1.6699  1.1699 -0.4069
   33POPC    C2 4396   5.389   3.680  10.224 -0.5556 -0.6038  0.1221
   33POPC    HS 4397   5.395   3.587  10.285 -0.3138 -0.1267  0.8420
   33POPC   O21 4398   5.464   3.671  10.098 -0.3780  0.6290  0.5739
   33POPC   C21 4399   5.450   3.566  10.030  0.1421  0.2546 -0.6364
   33POPC   O22 4400   5.380   3.470  10.065  0.6394 -0.3229  0.1658
   33POPC   C22 4401   5.529   3.558   9.900  0.1364  0.0945  0.0455
   33POPC   H2R 4402   5.597   3.470   9.901 -0.3534 -0.3073 -1.0223
   33POPC   H2S 4403   5.594   3.648   9.903 -0.0574  0.3129 -1.5612
   33POPC    C3 4404   5.240   3.715  10.195 -0.0563 -0.3842 -0.2895
   33POPC    HX 4405   5.199   3.727  10.298  0.2180 -0.5958 -0.1540
   33POPC    HY 4406   5.180   3.635  10.148  0.2959 -1.5367  1.1605
   33POPC   O31 4407   5.220   3.850  10.142  0.3656 -0.0839 -0.7885
   33POPC   C31 4408   5.219   3.859  10.017  0.2752  0.1959  0.1436
   33POPC   O32 4409   5.218   3.772   9.932 -0.4116  0.1795 -0.2616
   33POPC   C32 4410   5.208   4.006   9.981  0.6010  0.0942  0.5884
   33POPC   H2X 4411   5.284   4.064  10.038 -1.0868  1.5854  1.4212
   33POPC   H2Y 4412   5.108   4.049  10.003  1.0948  0.6420  1.8867
   33POPC   C23 4413   5.457   3.556   9.768  0.3028  0.3087  0.4265
   33POPC   H3R 4414   5.397   3.648   9.750 -0.2836 -0.0290  0.6294
   33POPC   H3S 4415   5.397   3.463   9.764 -1.3222  1.3335 -1.1227
   33POPC   C24 4416   5.554   3.557   9.649 -0.0664 -0.3062 -0.2623
   33POPC   H4R 4417   5.614   3.465   9.645 -0.7313 -0.7142 -2.4972
   33POPC   H4S 4418   5.622   3.645   9.645 -1.7663  1.0396 -1.4422
   33POPC   C25 4419   5.481   3.567   9.509  0.2353 -0.6999 -0.2715
   33POPC   H5R 4420   5.434   3.668   9.500  2.9557  0.4670 -3.3259
   33POPC   H5S 4421   5.400   3.491   9.507  2.0381 -2.7802 -3.7370
   33POPC   C26 4422   5.570   3.560   9.388 -0.3568 -0.0521  0.2379
   33POPC   H6R 4423   5.611   3.458   9.372 -1.4111 -0.8028  2.0217
   33POPC   H6S 4424   5.659   3.624   9.403  1.3568 -1.8245 -1.7580
   33POPC   C27 4425   5.515   3.603   9.250 -0.7098 -0.5294 -0.2686
   33POPC   H7R 4426   5.447   3.689   9.269  1.2598  0.3474  4.3062
   33POPC   H7S 4427   5.452   3.522   9.209 -0.2345 -1.4784  0.8171
   33POPC   C28 4428   5.617   3.639   9.145 -0.6251  0.4292 -0.3914
   33POPC   H8R 4429   5.675   3.729   9.175 -0.1528  0.4806 -1.4200
   33POPC   H8S 4430   5.567   3.659   9.048 -1.1643  0.6247 -0.0801
   33POPC   C29 4431   5.717   3.526   9.131 -0.2004 -0.0535 -0.1294
   33POPC   H91 4432   5.751   3.478   9.224  0.9943  2.6000  0.9298
   33POPC  C210 4433   5.774   3.482   9.014 -0.1179 -0.2890 -0.7312
   33POPC  H101 4434   5.844   3.399   9.033 -0.4323 -0.0125  2.0184
   33POPC  C211 4435   5.755   3.526   8.872  0.1905  0.1756  0.3190
   33POPC  H11R 4436   5.814   3.619   8.857  3.2257 -1.4523  1.4615
   33POPC  H11S 4437   5.653   3.568   8.857 -1.1697 -3.6286 -2.9260
   33POPC  C212 4438   5.799   3.427   8.762 -0.2769 -0.1671 -0.4233
   33POPC  H12R 4439   5.909   3.418   8.777 -0.1271  0.5834 -1.0291
   33POPC  H12S 4440   5.793   3.479   8.665  0.1982 -1.0329 -0.9264
   33POPC  C213 4441   5.734   3.286   8.750 -0.4127 -0.6060 -0.1266
   33POPC  H13R 4442   5.623   3.294   8.753 -0.4374 -1.1045  0.6736
   33POPC  H13S 4443   5.771   3.230   8.838  3.8581 -0.0325 -1.3460
   33POPC  C214 4444   5.784   3.208   8.625  0.3719 -0.5632 -0.1539
   33POPC  H14R 4445   5.730   3.112   8.637 -0.7471  0.3129  2.6965
   33POPC  H14S 4446   5.893   3.186   8.628  0.5663 -0.0026 -2.0061
   33POPC  C215 4447   5.734   3.254   8.491 -0.4192  0.1129 -0.2750
   33POPC  H15R 4448   5.725   3.365   8.496 -0.8083  0.1753 -1.8634
   33POPC  H15S 4449   5.631   3.215   8.478 -0.1755 -0.3333 -0.9003
   33POPC  C216 4450   5.819   3.218   8.364  0.0449 -0.9047  0.0995
   33POPC  H16R 4451   5.763   3.232   8.269 -0.8688  0.4882  0.8141
   33POPC  H16S 4452   5.850   3.111   8.375 -0.3731 -1.1351 -0.8375
   33POPC  C217 4453   5.951   3.298   8.359  0.2789  0.3830  0.0803
   33POPC  H17R 4454   5.987   3.281   8.463  0.8661 -0.5640 -0.2610
   33POPC  H17S 4455   5.933   3.406   8.343  0.0959  0.1087 -1.8407
   33POPC  C218 4456   6.052   3.248   8.257  0.2248 -0.6978  0.2107
   33POPC  H18R 4457   5.999   3.222   8.163  1.5873 -1.9294 -0.2559
   33POPC  H18S 4458   6.097   3.154   8.296 -2.1617 -2.0030  0.0121
   33POPC  H18T 4459   6.132   3.323   8.240 -0.0122 -0.2684  0.9694
   33POPC   C33 4460   5.233   4.030   9.832 -0.2866 -0.1634 -0.6794
   33POPC   H3X 4461   5.320   3.975   9.792  0.3228  0.3871 -0.1364
   33POPC   H3Y 4462   5.263   4.137   9.830  0.1318 -0.2699 -0.2757
   33POPC   C34 4463   5.104   4.014   9.746 -0.4469  0.0664  0.0699
   33POPC   H4X 4464   5.021   4.079   9.780 -0.7364 -1.5193  2.7192
   33POPC   H4Y 4465   5.063   3.911   9.744  2.4095 -1.2094  1.7372
   33POPC   C35 4466   5.142   4.051   9.597  0.3925  0.2075 -0.1648
   33POPC   H5X 4467   5.210   3.975   9.554  0.6336 -0.9953  2.1637
   33POPC   H5Y 4468   5.202   4.144   9.611  0.2174  0.0304  2.2909
   33POPC   C36 4469   5.018   4.063   9.507 -0.2974  0.2966  0.1797
   33POPC   H6X 4470   4.938   4.089   9.579 -1.6489  2.9407 -2.0635
   33POPC   H6Y 4471   4.999   3.961   9.467 -3.1677  0.7446  0.1399
   33POPC   C37 4472   5.034   4.170   9.401 -0.0171 -0.3619 -0.7452
   33POPC   H7X 4473   5.143   4.187   9.392 -0.4429  3.8081 -0.1726
   33POPC   H7Y 4474   4.990   4.263   9.444 -0.6919 -1.9027  2.1590
   33POPC   C38 4475   5.002   4.147   9.255  0.1681  0.7712 -0.6110
   33POPC   H8X 4476   4.897   4.117   9.234  0.6140  0.5572 -2.8024
   33POPC   H8Y 4477   5.058   4.068   9.203 -0.6086  0.4411 -0.9668
   33POPC   C39 4478   5.026   4.268   9.159 -0.0143  0.4472 -1.2637
   33POPC   H9X 4479   5.133   4.281   9.134  0.8140  4.8093  2.9964
   33POPC   H9Y 4480   4.997   4.369   9.195  0.4369  1.2633 -3.0611
   33POPC  C310 4481   4.937   4.260   9.028  0.1545  0.1314  0.0900
   33POPC  H10X 4482   4.831   4.284   9.054  0.0901  1.1418 -0.9674
   33POPC  H10Y 4483   4.930   4.158   8.986  1.2014  0.5814 -1.2565
   33POPC  C311 4484   4.989   4.367   8.928  0.1985  0.0242  0.4995
   33POPC  H11X 4485   5.099   4.351   8.922  0.4731  0.6555  2.8752
   33POPC  H11Y 4486   4.955   4.465   8.967 -1.3505  0.3388 -1.4268
   33POPC  C312 4487   4.915   4.327   8.794  0.2911  1.0118 -0.0292
   33POPC  H12X 4488   4.806   4.339   8.813 -0.3214 -2.6283 -0.4529
   33POPC  H12Y 4489   4.937   4.221   8.769  0.7257  1.4213 -1.4486
   33POPC  C313 4490   4.956   4.424   8.686 -0.3880  0.1803  0.5417
   33POPC  H13X 4491   4.922   4.378   8.591  0.4316 -0.1654  0.4009
   33POPC  H13Y 4492   5.066   4.440   8.684 -0.5890  1.8184  1.0413
   33POPC  C314 4493   4.892   4.558   8.700 -0.5636 -0.2407 -0.3815
   33POPC  H14X 4494   4.938   4.604   8.790  2.0505 -0.6417 -1.4424
   33POPC  H14Y 4495   4.781   4.550   8.705 -0.5410 -0.3872 -0.1096
   33POPC  C315 4496   4.918   4.654   8.584  0.2549  0.2406 -0.0728
   33POPC  H15X 4497   4.878   4.617   8.487 -1.4151 -1.2757  1.1230
   33POPC  H15Y 4498   5.028   4.661   8.574  0.4222 -1.9806 -0.4881
   33POPC  C316 4499   4.866   4.792   8.608  0.1655  0.3522 -0.1017
   33POPC  H16X 4500   4.892   4.827   8.710  0.7398  0.5548 -0.3132
   33POPC  H16Y 4501   4.758   4.799   8.581  0.2591 -0.4950 -0.7245
   33POPC  H16Z 4502   4.911   4.865   8.538 -1.6005  1.5633 -0.0615
   34POPC     N 4503   5.294   3.344  10.802 -0.1760  0.2530 -0.0603
   34POPC   C12 4504   5.262   3.372  10.658  0.5078  0.4829  0.1079
   34POPC  H12A 4505   5.348   3.427  10.622 -0.2687  1.6675 -0.0159
   34POPC  H12B 4506   5.172   3.430  10.669  0.3357  0.0854  0.9256
   34POPC   C13 4507   5.190   3.274  10.881  0.4110  0.1450  0.3356
   34POPC  H13A 4508   5.210   3.270  10.987 -1.1523 -1.3808  0.6358
   34POPC  H13B 4509   5.092   3.314  10.860  0.4012 -0.0230  0.0578
   34POPC  H13C 4510   5.175   3.171  10.850 -0.3752  0.9808 -2.3020
   34POPC   C14 4511   5.416   3.259  10.816  0.0333 -0.6393  0.3609
   34POPC  H14A 4512   5.430   3.219  10.916 -1.9894 -0.7584  0.6347
   34POPC  H14B 4513   5.399   3.163  10.768  1.3688 -0.0135 -1.4695
   34POPC  H14C 4514   5.509   3.303  10.784 -0.0231 -2.0412 -1.9995
   34POPC   C15 4515   5.326   3.467  10.874  0.5735 -0.4688  0.9426
   34POPC  H15A 4516   5.235   3.525  10.874  1.3156  0.8725 -2.0429
   34POPC  H15B 4517   5.396   3.533  10.826  0.3805 -1.4473 -0.7590
   34POPC  H15C 4518   5.367   3.443  10.971  0.3611 -0.2351  1.0933
   34POPC   C11 4519   5.211   3.265  10.567  0.1960 -0.1631  0.0106
   34POPC  H11A 4520   5.289   3.192  10.535 -0.5688 -1.2463  0.5682
   34POPC  H11B 4521   5.183   3.315  10.472  0.8498 -0.5037 -0.3749
   34POPC     P 4522   4.966   3.217  10.592  0.1677  0.0708 -0.3960
   34POPC   O13 4523   4.952   3.357  10.560 -0.2420 -0.6344 -0.9487
   34POPC   O14 4524   4.897   3.168  10.719 -0.5136 -0.0515  0.5773
   34POPC   O12 4525   5.114   3.172  10.608  0.1335  0.2079  0.1256
   34POPC   O11 4526   4.911   3.131  10.476  0.1175  0.4680  0.1639
   34POPC    C1 4527   4.930   2.986  10.466  0.5889 -0.2547 -0.0660
   34POPC    HA 4528   4.836   2.949  10.420  0.8536 -2.0867  0.7989
   34POPC    HB 4529   4.930   2.936  10.565 -1.7437  1.9847  1.2033
   34POPC    C2 4530   5.042   2.952  10.377 -0.3345  0.4532 -0.2083
   34POPC    HS 4531   5.131   3.005  10.416 -0.3855  1.1978 -1.0359
   34POPC   O21 4532   4.997   2.994  10.250 -0.0014 -0.0217 -0.8165
   34POPC   C21 4533   5.090   3.034  10.169 -0.0294 -0.0837  0.8409
   34POPC   O22 4534   5.200   3.065  10.206 -0.3690 -0.1146  0.7153
   34POPC   C22 4535   5.047   3.026  10.025  0.4433 -0.5891  0.0469
   34POPC   H2R 4536   4.949   3.078  10.031  0.0018 -1.3706 -0.2246
   34POPC   H2S 4537   5.029   2.922   9.991 -1.3158 -0.3407  0.1394
   34POPC    C3 4538   5.076   2.800  10.377 -0.6591 -0.5897  0.4670
   34POPC    HX 4539   4.993   2.741  10.334 -1.4376 -0.4796  1.7750
   34POPC    HY 4540   5.099   2.766  10.480  3.1443 -0.6704 -0.2773
   34POPC   O31 4541   5.191   2.794  10.297 -0.3355  0.0836  0.6120
   34POPC   C31 4542   5.225   2.667  10.259 -0.2480  0.2097  0.2936
   34POPC   O32 4543   5.152   2.570  10.268  0.1591  0.3011  0.2993
   34POPC   C32 4544   5.366   2.673  10.200 -0.1483 -1.1827 -0.2776
   34POPC   H2X 4545   5.406   2.573  10.229  0.5259 -1.1231 -0.9434
   34POPC   H2Y 4546   5.436   2.743  10.250 -0.5658 -0.5053 -0.6401
   34POPC   C23 4547   5.150   3.090   9.934 -0.0315  0.3688  0.0885
   34POPC   H3R 4548   5.252   3.046   9.939 -0.2687 -0.1094  1.1009
   34POPC   H3S 4549   5.175   3.197   9.953  0.0004  0.8718 -2.5080
   34POPC   C24 4550   5.124   3.082   9.783  0.1227 -0.1794  0.1513
   34POPC   H4R 4551   5.196   3.148   9.729  0.4483  1.6614  2.6438
   34POPC   H4S 4552   5.023   3.124   9.764  1.0408  1.7040 -0.9723
   34POPC   C25 4553   5.165   2.948   9.719 -0.5579 -0.7002  0.3493
   34POPC   H5R 4554   5.080   2.877   9.722 -1.6609  0.6181  0.9642
   34POPC   H5S 4555   5.238   2.910   9.795  0.7601 -1.1039 -1.0521
   34POPC   C26 4556   5.223   2.942   9.578  0.0988 -0.1857  0.9463
   34POPC   H6R 4557   5.240   2.836   9.548 -0.6803 -0.1055  0.1642
   34POPC   H6S 4558   5.321   2.993   9.578  0.0211 -0.0299  0.4530
   34POPC   C27 4559   5.126   3.004   9.474 -0.7206  0.8693 -0.3485
   34POPC   H7R 4560   5.081   3.096   9.517 -0.9457  0.2832  0.6801
   34POPC   H7S 4561   5.036   2.941   9.462 -0.2263  0.2609 -1.0177
   34POPC   C28 4562   5.196   3.030   9.333 -0.1295 -0.1353  0.2002
   34POPC   H8R 4563   5.218   2.933   9.284  1.3300 -0.7556  1.9562
   34POPC   H8S 4564   5.292   3.082   9.353  0.2403 -0.6287 -0.2512
   34POPC   C29 4565   5.107   3.117   9.245 -0.6308 -0.1496 -0.4377
   34POPC   H91 4566   5.063   3.059   9.163  0.5995 -2.0523  0.1739
   34POPC  C210 4567   5.102   3.250   9.246  0.1445  0.3945 -0.4031
   34POPC  H101 4568   5.040   3.299   9.169  0.8781  1.0819 -0.5682
   34POPC  C211 4569   5.175   3.351   9.328  0.2737 -0.2474  0.3556
   34POPC  H11R 4570   5.216   3.434   9.267 -0.6696  0.0959  0.1691
   34POPC  H11S 4571   5.255   3.315   9.396  1.1139  1.4390  0.2994
   34POPC  C212 4572   5.058   3.410   9.416 -0.8843 -0.2679  0.0389
   34POPC  H12R 4573   5.017   3.325   9.475 -2.8750  0.6566  0.0686
   34POPC  H12S 4574   4.970   3.443   9.356 -0.1730  0.5691 -0.5610
   34POPC  C213 4575   5.109   3.522   9.512 -0.1397  0.6121 -0.3947
   34POPC  H13R 4576   5.176   3.595   9.462 -1.1239  1.8849  0.0770
   34POPC  H13S 4577   5.169   3.470   9.590 -1.0037 -0.0845 -0.1677
   34POPC  C214 4578   5.005   3.615   9.589 -0.8868  0.0128 -0.3509
   34POPC  H14R 4579   4.926   3.652   9.521 -1.0880  0.9610  0.3767
   34POPC  H14S 4580   5.064   3.702   9.626  0.3230 -0.4689 -1.0672
   34POPC  C215 4581   4.931   3.544   9.708  0.2206  0.2048  0.1204
   34POPC  H15R 4582   4.847   3.492   9.658  0.9226  0.2865 -1.1987
   34POPC  H15S 4583   4.904   3.621   9.783 -0.2140  0.8826 -0.7161
   34POPC  C216 4584   5.028   3.453   9.792 -0.1762  0.5901  0.0428
   34POPC  H16R 4585   5.125   3.502   9.817 -0.2700 -0.0087  1.7399
   34POPC  H16S 4586   5.055   3.366   9.728 -1.3743  1.2292 -1.3874
   34POPC  C217 4587   4.958   3.397   9.917 -0.3758  0.2337 -0.5422
   34POPC  H17R 4588   4.952   3.481   9.990  0.4942 -1.8199  2.0686
   34POPC  H17S 4589   5.029   3.324   9.963  0.9063  0.9608 -1.2878
   34POPC  C218 4590   4.825   3.321   9.892  0.0303  0.7440  0.0094
   34POPC  H18R 4591   4.744   3.391   9.859  1.3619  1.8746 -0.9796
   34POPC  H18S 4592   4.790   3.263   9.980 -0.6999  1.9670  0.5505
   34POPC  H18T 4593   4.845   3.240   9.819 -1.6110 -2.1883  2.5642
   34POPC   C33 4594   5.371   2.690  10.050  0.4801  0.1246  0.6361
   34POPC   H3X 4595   5.478   2.717  10.032  0.4729  0.9023  1.6858
   34POPC   H3Y 4596   5.310   2.777  10.015 -0.4315 -0.6066  0.3835
   34POPC   C34 4597   5.323   2.561   9.986  0.6371 -1.0324 -0.4689
   34POPC   H4X 4598   5.216   2.535  10.000  0.5264 -0.9442 -1.1313
   34POPC   H4Y 4599   5.375   2.479  10.041 -1.0681 -0.4440  2.2128
   34POPC   C35 4600   5.363   2.550   9.841  0.1847 -0.3327  0.6100
   34POPC   H5X 4601   5.473   2.554   9.827  0.1272  3.1144  0.2471
   34POPC   H5Y 4602   5.331   2.641   9.787  0.8395 -0.0609  0.6669
   34POPC   C36 4603   5.317   2.413   9.785 -0.3526 -0.4437  0.0766
   34POPC   H6X 4604   5.215   2.391   9.823 -0.7911  1.0730 -0.1609
   34POPC   H6Y 4605   5.379   2.329   9.823 -2.4101 -1.7792  0.6114
   34POPC   C37 4606   5.322   2.400   9.632  0.3250  0.5721  0.2829
   34POPC   H7X 4607   5.426   2.387   9.595 -0.1548  1.2857 -1.4297
   34POPC   H7Y 4608   5.275   2.492   9.590 -2.1578 -0.1417  1.3230
   34POPC   C38 4609   5.247   2.273   9.595 -0.1198  0.1073  0.2218
   34POPC   H8X 4610   5.163   2.262   9.666  0.2528  1.5509  0.9245
   34POPC   H8Y 4611   5.312   2.182   9.597  2.0132  1.3799 -2.9166
   34POPC   C39 4612   5.201   2.279   9.452  0.2656  0.3126 -0.2430
   34POPC   H9X 4613   5.142   2.373   9.449  0.6709  0.8185  3.4120
   34POPC   H9Y 4614   5.143   2.186   9.439 -0.1599  0.2074  1.9722
   34POPC  C310 4615   5.317   2.289   9.349 -0.1966 -0.5831  0.2872
   34POPC  H10X 4616   5.392   2.212   9.378  1.3996  0.6772 -0.3395
   34POPC  H10Y 4617   5.358   2.392   9.353  1.6261 -1.2489  0.1080
   34POPC  C311 4618   5.271   2.260   9.202 -0.3388 -0.3056 -0.2916
   34POPC  H11X 4619   5.199   2.338   9.170  0.2914  0.0376 -0.8988
   34POPC  H11Y 4620   5.216   2.163   9.207 -0.0846 -0.4433 -0.1194
   34POPC  C312 4621   5.389   2.270   9.097  0.1540  0.0511 -0.5664
   34POPC  H12X 4622   5.453   2.179   9.096 -0.4313 -0.4005  0.9707
   34POPC  H12Y 4623   5.457   2.354   9.122 -0.2986  0.4537 -0.6689
   34POPC  C313 4624   5.344   2.295   8.953 -0.1373 -0.1607  0.4531
   34POPC  H13X 4625   5.348   2.406   8.946 -2.8532 -0.0915 -1.3990
   34POPC  H13Y 4626   5.238   2.266   8.940 -0.1114  0.6309 -1.8728
   34POPC  C314 4627   5.432   2.235   8.840 -0.4353  0.2518 -0.6255
   34POPC  H14X 4628   5.461   2.132   8.870  0.5603  0.8824  0.6654
   34POPC  H14Y 4629   5.521   2.300   8.828  0.0361 -0.0112  1.1416
   34POPC  C315 4630   5.359   2.217   8.705 -0.4711 -0.1674  0.2717
   34POPC  H15X 4631   5.267   2.156   8.714 -1.0413  0.8472  1.6886
   34POPC  H15Y 4632   5.426   2.159   8.638 -0.0703  2.6501 -2.0080
   34POPC  C316 4633   5.314   2.345   8.638  0.0619  0.2121 -0.3355
   34POPC  H16X 4634   5.381   2.433   8.631 -2.7806  2.5859  0.2332
   34POPC  H16Y 4635   5.212   2.367   8.675  0.5110 -1.2017  1.9990
   34POPC  H16Z 4636   5.299   2.326   8.530  2.5286  1.1983 -0.9062
   35POPC     N 4637   6.258   6.081  11.144 -0.7585  0.3739  0.2368
   35POPC   C12 4638   6.301   5.941  11.162  0.3815 -0.6523 -0.0468
   35POPC  H12A 4639   6.284   5.922  11.266 -0.1293 -1.1147 -0.2133
   35POPC  H12B 4640   6.406   5.933  11.136  1.0523  3.0082  0.8753
   35POPC   C13 4641   6.305   6.169  11.258  0.0623 -0.1819 -0.2376
   35POPC  H13A 4642   6.280   6.273  11.241  0.2886 -0.3768 -1.9359
   35POPC  H13B 4643   6.249   6.140  11.345 -0.6300 -0.5872 -0.8044
   35POPC  H13C 4644   6.412   6.158  11.267  0.2349  0.6098 -1.0831
   35POPC   C14 4645   6.324   6.127  11.018  0.5523  0.4391 -0.5661
   35POPC  H14A 4646   6.288   6.070  10.934 -1.2815  2.0881 -0.9715
   35POPC  H14B 4647   6.306   6.229  10.987  1.2560  0.9685  0.7239
   35POPC  H14C 4648   6.428   6.097  11.021 -0.3843 -3.5411 -1.6604
   35POPC   C15 4649   6.112   6.106  11.134  1.4727  1.1333  0.1281
   35POPC  H15A 4650   6.069   6.033  11.068 -0.5972  1.4228  1.0917
   35POPC  H15B 4651   6.095   6.202  11.088  2.1725  0.6903 -1.1089
   35POPC  H15C 4652   6.056   6.089  11.225  2.0109 -0.4869  0.1834
   35POPC   C11 4653   6.237   5.830  11.077  0.1309  0.0017 -0.7085
   35POPC  H11A 4654   6.130   5.820  11.103  0.9516 -1.5190  2.5836
   35POPC  H11B 4655   6.288   5.738  11.112  2.1187  1.7540  1.3619
   35POPC     P 4656   6.156   5.831  10.821  0.7134 -0.1080 -0.0849
   35POPC   O13 4657   6.023   5.890  10.859 -0.4341  0.3010  0.0763
   35POPC   O14 4658   6.171   5.696  10.762  0.9848 -0.2403  0.0415
   35POPC   O12 4659   6.251   5.844  10.941 -0.8823  0.0184  0.5375
   35POPC   O11 4660   6.210   5.927  10.711  0.3235 -0.0714 -0.1980
   35POPC    C1 4661   6.178   6.069  10.697  0.1155  0.6320  0.5830
   35POPC    HA 4662   6.254   6.101  10.623  0.6997 -1.0404  0.4211
   35POPC    HB 4663   6.193   6.128  10.790 -0.5593  1.5363  0.1410
   35POPC    C2 4664   6.035   6.105  10.640 -0.0450  0.7187  0.4054
   35POPC    HS 4665   5.967   6.085  10.725 -0.0454  0.1464  0.2775
   35POPC   O21 4666   6.001   6.028  10.525  0.0013 -0.1151 -0.0798
   35POPC   C21 4667   5.872   5.998  10.511  0.0040 -0.7801  0.1967
   35POPC   O22 4668   5.785   6.022  10.593  0.0368  0.7187  1.0547
   35POPC   C22 4669   5.854   5.942  10.370 -0.0886 -0.5872 -1.0134
   35POPC   H2R 4670   5.748   5.914  10.351 -0.6313  0.0368  0.9113
   35POPC   H2S 4671   5.905   5.843  10.364  0.9482 -0.2504  1.1712
   35POPC    C3 4672   6.019   6.262  10.615 -0.8966  0.2001 -0.5195
   35POPC    HX 4673   6.031   6.325  10.705  1.6392 -0.5177 -0.2520
   35POPC    HY 4674   5.917   6.269  10.573 -0.3223  1.6442 -1.7630
   35POPC   O31 4675   6.119   6.301  10.517  0.5681  0.1187  0.1396
   35POPC   C31 4676   6.088   6.411  10.463  0.2764 -0.7194 -0.1038
   35POPC   O32 4677   6.001   6.486  10.506  0.1080 -0.1833 -0.4688
   35POPC   C32 4678   6.185   6.445  10.343 -0.0809 -0.8392  0.1080
   35POPC   H2X 4679   6.216   6.344  10.306 -1.7432 -1.8257  1.2718
   35POPC   H2Y 4680   6.263   6.510  10.388  0.6189 -1.7128  0.1763
   35POPC   C23 4681   5.892   6.038  10.255  0.2188 -0.2945 -0.0800
   35POPC   H3R 4682   5.998   6.069  10.270  0.2782  0.0631 -1.1682
   35POPC   H3S 4683   5.823   6.125  10.244  2.0210  1.2720  0.5442
   35POPC   C24 4684   5.883   5.964  10.118  0.1982  0.2776 -0.6164
   35POPC   H4R 4685   5.780   5.948  10.080  0.2671  2.1983 -1.7497
   35POPC   H4S 4686   5.937   5.868  10.130  2.6467  1.5567 -0.9069
   35POPC   C25 4687   5.953   6.045  10.008 -0.5176 -0.7235  0.3562
   35POPC   H5R 4688   6.058   6.056  10.041 -0.1379  0.4186 -1.1229
   35POPC   H5S 4689   5.913   6.148  10.023  0.5512 -0.4445  1.4337
   35POPC   C26 4690   5.947   5.995   9.866 -0.7789 -0.0622  0.2418
   35POPC   H6R 4691   5.982   5.889   9.861 -1.9345 -0.4150 -1.3494
   35POPC   H6S 4692   6.012   6.064   9.809 -0.2124  0.0348  1.0095
   35POPC   C27 4693   5.814   5.994   9.789 -0.0757 -0.4253 -0.8742
   35POPC   H7R 4694   5.728   5.969   9.855 -0.4403  2.1713 -0.2705
   35POPC   H7S 4695   5.823   5.930   9.698 -0.9002 -1.2921 -0.3717
   35POPC   C28 4696   5.772   6.135   9.738  0.5226 -0.3147  0.6166
   35POPC   H8R 4697   5.779   6.192   9.833  2.3296 -0.0882  0.3853
   35POPC   H8S 4698   5.665   6.126   9.708  0.4369 -1.8600  1.3089
   35POPC   C29 4699   5.865   6.186   9.628  0.4222  0.2129 -0.4794
   35POPC   H91 4700   5.968   6.198   9.664  0.5363 -1.5732 -0.1162
   35POPC  C210 4701   5.844   6.203   9.501 -0.3229  0.3250  0.4322
   35POPC  H101 4702   5.927   6.238   9.438  2.3699 -0.4378  3.2986
   35POPC  C211 4703   5.714   6.183   9.431 -0.0670  0.3040 -0.3902
   35POPC  H11R 4704   5.645   6.266   9.457 -1.8013 -1.1448 -0.1375
   35POPC  H11S 4705   5.659   6.098   9.475 -0.3616 -0.3980 -2.0339
   35POPC  C212 4706   5.695   6.173   9.277 -0.9522 -0.3965  0.2378
   35POPC  H12R 4707   5.591   6.152   9.245 -0.1410 -1.0217 -2.1662
   35POPC  H12S 4708   5.764   6.098   9.232 -2.5490 -1.7991  0.0428
   35POPC  C213 4709   5.734   6.304   9.206 -0.1957  0.5447 -0.3764
   35POPC  H13R 4710   5.842   6.328   9.217 -0.2874  0.1410  2.1093
   35POPC  H13S 4711   5.678   6.392   9.247  0.6734  2.4275 -2.9796
   35POPC  C214 4712   5.688   6.297   9.061  1.0534 -0.5537  0.4280
   35POPC  H14R 4713   5.578   6.282   9.065  0.8343  0.7461 -0.2870
   35POPC  H14S 4714   5.742   6.209   9.021  1.2894  0.1305 -0.7965
   35POPC  C215 4715   5.719   6.426   8.996  0.0021 -0.7207 -0.7017
   35POPC  H15R 4716   5.826   6.457   9.000 -0.1328  0.2587 -3.1320
   35POPC  H15S 4717   5.677   6.503   9.064  1.0376  0.2632 -1.1460
   35POPC  C216 4718   5.692   6.439   8.850 -1.0075  0.5564  0.2512
   35POPC  H16R 4719   5.587   6.415   8.822 -0.2549 -1.6544 -0.9751
   35POPC  H16S 4720   5.750   6.359   8.799  1.4781  2.1677  0.3714
   35POPC  C217 4721   5.740   6.564   8.782  0.4801  0.1615  0.1384
   35POPC  H17R 4722   5.850   6.553   8.775  0.3471 -1.8841  0.8969
   35POPC  H17S 4723   5.706   6.648   8.847  0.7797 -0.2478  0.8203
   35POPC  C218 4724   5.690   6.577   8.640 -0.5366  0.2115 -0.4516
   35POPC  H18R 4725   5.580   6.593   8.642 -0.1913  3.7126 -1.6523
   35POPC  H18S 4726   5.729   6.493   8.579 -2.9223  1.1159 -3.4871
   35POPC  H18T 4727   5.723   6.675   8.598 -3.5470  2.1987  1.4072
   35POPC   C33 4728   6.127   6.533  10.232  0.4038  0.2781 -0.5321
   35POPC   H3X 4729   6.211   6.552  10.163  1.4121  1.8006  1.0456
   35POPC   H3Y 4730   6.089   6.632  10.266 -2.3276  0.1029 -2.7103
   35POPC   C34 4731   6.023   6.460  10.139 -0.1154  0.5278 -0.1385
   35POPC   H4X 4732   5.931   6.455  10.200 -1.1588 -1.2270 -1.7626
   35POPC   H4Y 4733   6.063   6.358  10.122  1.2626  1.3219 -2.0420
   35POPC   C35 4734   6.005   6.524  10.010 -0.3849 -0.4315 -0.2096
   35POPC   H5X 4735   6.104   6.536   9.961 -1.3115 -0.8708 -2.2928
   35POPC   H5Y 4736   5.966   6.628  10.022 -0.1474 -0.3119 -0.4342
   35POPC   C36 4737   5.897   6.454   9.927  0.4250  0.2973  0.2611
   35POPC   H6X 4738   5.809   6.434   9.991 -0.6730  3.5257 -0.0453
   35POPC   H6Y 4739   5.940   6.356   9.898 -1.5009 -0.4936 -0.0165
   35POPC   C37 4740   5.856   6.538   9.814 -0.2678  0.0815 -0.6942
   35POPC   H7X 4741   5.820   6.641   9.832 -1.9746 -0.5655 -0.1844
   35POPC   H7Y 4742   5.770   6.477   9.779 -0.2147 -0.2973 -0.1703
   35POPC   C38 4743   5.966   6.544   9.715  0.2653  0.1228  0.5291
   35POPC   H8X 4744   5.977   6.443   9.670 -1.0072 -0.0381  0.5491
   35POPC   H8Y 4745   6.062   6.581   9.759  0.9663 -1.0076 -0.0056
   35POPC   C39 4746   5.925   6.628   9.594 -0.6161  0.4528  0.6912
   35POPC   H9X 4747   5.932   6.733   9.630  1.9816  2.0273 -3.6191
   35POPC   H9Y 4748   5.818   6.614   9.569 -0.4386  1.4496 -0.7466
   35POPC  C310 4749   6.021   6.622   9.475 -0.6432  0.5311 -0.4254
   35POPC  H10X 4750   6.050   6.517   9.451 -1.4734  0.2265 -0.1365
   35POPC  H10Y 4751   6.117   6.670   9.502 -0.9667 -0.1457  2.1736
   35POPC  C311 4752   5.961   6.681   9.340  0.0708 -0.3723  0.8948
   35POPC  H11X 4753   5.940   6.790   9.350 -1.1909 -0.6669  1.6291
   35POPC  H11Y 4754   5.864   6.631   9.319 -0.4359  0.9298  0.0097
   35POPC  C312 4755   6.059   6.649   9.230 -0.4088  0.0745 -0.2568
   35POPC  H12X 4756   6.079   6.541   9.220 -0.2793  0.1442 -0.7568
   35POPC  H12Y 4757   6.155   6.696   9.259  0.9086 -1.8239 -1.3166
   35POPC  C313 4758   6.004   6.703   9.095  0.3929 -0.0446  0.4107
   35POPC  H13X 4759   5.978   6.809   9.116 -0.8851 -0.5175  1.3493
   35POPC  H13Y 4760   5.916   6.638   9.080 -0.7233  0.8629  2.6252
   35POPC  C314 4761   6.099   6.692   8.973 -0.6878 -0.2487  0.0137
   35POPC  H14X 4762   6.137   6.589   8.959  1.7814  0.5507  0.4237
   35POPC  H14Y 4763   6.189   6.750   9.002 -1.5148  0.7010  0.7766
   35POPC  C315 4764   6.038   6.757   8.844 -0.5995 -0.1490  0.2005
   35POPC  H15X 4765   5.931   6.731   8.832 -0.6755  0.4520 -0.4613
   35POPC  H15Y 4766   6.102   6.727   8.758  0.4204  0.8365  0.5926
   35POPC  C316 4767   6.045   6.909   8.829 -0.4520 -0.1931 -0.4122
   35POPC  H16X 4768   6.150   6.943   8.813  0.4750 -3.8850 -3.3859
   35POPC  H16Y 4769   6.002   6.954   8.921  1.8912  0.0679  0.6340
   35POPC  H16Z 4770   5.989   6.940   8.738 -0.3827 -0.7311 -0.6421
   36POPC     N 4771   6.105   0.302  11.146 -0.6249 -0.9162 -0.7425
   36POPC   C12 4772   6.108   0.405  11.042  0.0019 -0.3266 -0.4737
   36POPC  H12A 4773   6.207   0.445  11.029 -0.1424 -0.6933 -3.2936
   36POPC  H12B 4774   6.035   0.482  11.060 -0.6758 -1.5363  2.7584
   36POPC   C13 4775   6.214   0.200  11.113  0.9254  0.3683  0.2082
   36POPC  H13A 4776   6.202   0.151  11.018 -0.1010  0.1791  0.4177
   36POPC  H13B 4777   6.310   0.248  11.108  0.3687  1.7419  1.6429
   36POPC  H13C 4778   6.200   0.117  11.180 -1.2828 -1.5228 -2.3783
   36POPC   C14 4779   6.147   0.370  11.271  1.1303 -0.5277 -0.1892
   36POPC  H14A 4780   6.246   0.412  11.259  1.5251 -1.7100 -1.3185
   36POPC  H14B 4781   6.086   0.456  11.291  3.3122  1.0839 -0.1898
   36POPC  H14C 4782   6.147   0.310  11.361  0.6624 -0.1471  0.0667
   36POPC   C15 4783   5.977   0.223  11.156 -0.1487 -0.2873  0.1740
   36POPC  H15A 4784   5.901   0.289  11.197  0.6133 -0.8618  2.7111
   36POPC  H15B 4785   5.989   0.141  11.225 -1.9411 -0.4783  0.3126
   36POPC  H15C 4786   5.943   0.194  11.058 -2.7362  0.7138  0.6792
   36POPC   C11 4787   6.073   0.367  10.895  0.0504 -0.6769  0.3668
   36POPC  H11A 4788   6.062   0.456  10.830  1.2300 -1.7774 -1.4123
   36POPC  H11B 4789   5.971   0.323  10.896  0.2251 -1.1157  2.3113
   36POPC     P 4790   6.290   0.315  10.778 -0.0452 -0.1486  0.1061
   36POPC   O13 4791   6.383   0.204  10.773  0.3463 -0.1141 -0.0389
   36POPC   O14 4792   6.346   0.426  10.855 -0.4246  0.0544  0.0679
   36POPC   O12 4793   6.159   0.265  10.845  0.2311  0.1609  0.0044
   36POPC   O11 4794   6.247   0.350  10.625  0.2019 -0.2324  0.5602
   36POPC    C1 4795   6.143   0.277  10.558 -0.0086  0.5137  0.6346
   36POPC    HA 4796   6.043   0.304  10.597 -1.2923  1.8080 -3.1320
   36POPC    HB 4797   6.148   0.167  10.576 -0.6380  0.6662  1.8257
   36POPC    C2 4798   6.125   0.311  10.408  0.0848 -0.1717 -0.1607
   36POPC    HS 4799   6.028   0.267  10.376  0.7386  0.8312 -4.0521
   36POPC   O21 4800   6.228   0.257  10.325  0.1993  0.2352 -0.0582
   36POPC   C21 4801   6.231   0.123  10.317 -0.1070 -0.8998 -0.0170
   36POPC   O22 4802   6.150   0.045  10.367 -0.1837 -0.6852  0.2846
   36POPC   C22 4803   6.351   0.080  10.233  0.4245  0.0829 -0.5222
   36POPC   H2R 4804   6.359  -0.028  10.254 -0.4848 -0.3270 -2.1253
   36POPC   H2S 4805   6.441   0.134  10.272  0.2937  1.8154 -2.4472
   36POPC    C3 4806   6.120   0.462  10.392  0.2015  0.3501 -0.0880
   36POPC    HX 4807   6.218   0.513  10.398 -1.0759  3.0640 -0.6517
   36POPC    HY 4808   6.063   0.509  10.476 -0.1196  0.8778 -0.5917
   36POPC   O31 4809   6.045   0.498  10.273  0.0608  0.4345 -0.5670
   36POPC   C31 4810   6.052   0.627  10.246  0.1113  0.0356  0.4306
   36POPC   O32 4811   6.141   0.707  10.270  0.5487  0.3115  0.0381
   36POPC   C32 4812   5.925   0.672  10.176  0.2394  0.5588 -0.2133
   36POPC   H2X 4813   5.844   0.683  10.251 -0.2500 -0.7860 -0.5103
   36POPC   H2Y 4814   5.902   0.592  10.103  2.1722  0.8335 -1.2151
   36POPC   C23 4815   6.339   0.089  10.079  0.6436 -0.3640 -0.1167
   36POPC   H3R 4816   6.438   0.097  10.029  0.3786 -2.1795 -1.0022
   36POPC   H3S 4817   6.286   0.186  10.064 -0.0328 -0.8814 -1.1266
   36POPC   C24 4818   6.256  -0.023  10.015  0.3280  0.5834  0.6404
   36POPC   H4R 4819   6.152  -0.035  10.054 -0.1548 -0.1145 -0.7631
   36POPC   H4S 4820   6.296  -0.127  10.017  0.5791  0.6926  1.8948
   36POPC   C25 4821   6.214  -0.003   9.868 -0.4399  0.0906  0.2267
   36POPC   H5R 4822   6.170   0.098   9.861  0.6651  0.5764  0.0790
   36POPC   H5S 4823   6.147  -0.084   9.832  1.3776 -1.0560 -0.7369
   36POPC   C26 4824   6.335   0.001   9.761  0.2072 -0.4193 -0.0062
   36POPC   H6R 4825   6.389  -0.096   9.754  3.7956  1.5279 -2.2692
   36POPC   H6S 4826   6.411   0.071   9.799  1.3055 -1.2242 -0.6570
   36POPC   C27 4827   6.301   0.068   9.622  0.0318 -0.1831  0.2782
   36POPC   H7R 4828   6.250   0.163   9.649 -1.5995 -0.6747 -0.9360
   36POPC   H7S 4829   6.224   0.003   9.575  2.4800 -1.4272 -2.2889
   36POPC   C28 4830   6.420   0.072   9.526 -0.0966  0.7525  0.1217
   36POPC   H8R 4831   6.431  -0.033   9.494 -1.7232  1.1321 -1.8929
   36POPC   H8S 4832   6.509   0.101   9.585  0.4251  1.5653 -1.0319
   36POPC   C29 4833   6.401   0.180   9.424  0.2303 -0.1280 -0.0942
   36POPC   H91 4834   6.392   0.275   9.478  0.7658 -1.0769  1.7573
   36POPC  C210 4835   6.408   0.177   9.292  0.5553 -0.0899  0.8826
   36POPC  H101 4836   6.394   0.269   9.233 -2.4175 -0.8264  0.2669
   36POPC  C211 4837   6.434   0.044   9.228 -0.2269  0.6865 -0.1429
   36POPC  H11R 4838   6.335  -0.003   9.209 -0.4951  1.3218 -0.3626
   36POPC  H11S 4839   6.484  -0.034   9.288  0.4907 -0.1172 -1.7388
   36POPC  C212 4840   6.500   0.044   9.090  0.4993 -0.1627 -0.7031
   36POPC  H12R 4841   6.500  -0.058   9.046 -0.8834 -0.6382  0.3249
   36POPC  H12S 4842   6.606   0.077   9.096  0.7769 -0.8766 -1.4953
   36POPC  C213 4843   6.429   0.131   8.979  0.6613  0.0495 -0.5659
   36POPC  H13R 4844   6.395   0.229   9.018  2.0813  0.6749 -0.8320
   36POPC  H13S 4845   6.340   0.076   8.942  1.3215 -0.6929 -1.0945
   36POPC  C214 4846   6.514   0.151   8.845 -0.1797  0.1632  0.7770
   36POPC  H14R 4847   6.531   0.056   8.789 -0.7088  1.0819 -1.0105
   36POPC  H14S 4848   6.608   0.200   8.876 -1.3704  3.0502  0.1606
   36POPC  C215 4849   6.458   0.257   8.742 -0.1156  0.2375 -0.0329
   36POPC  H15R 4850   6.461   0.361   8.782 -0.7257  0.1626  0.2076
   36POPC  H15S 4851   6.357   0.225   8.708  0.5070 -0.5804 -1.1689
   36POPC  C216 4852   6.544   0.270   8.612 -0.3398 -0.3629  0.3514
   36POPC  H16R 4853   6.551   0.170   8.565  0.4759 -0.5327  0.8190
   36POPC  H16S 4854   6.649   0.295   8.637 -0.0717 -1.3380  0.2351
   36POPC  C217 4855   6.489   0.367   8.513 -0.9606  0.3029 -0.6269
   36POPC  H17R 4856   6.467   0.467   8.556 -3.7928 -0.0758 -1.0275
   36POPC  H17S 4857   6.392   0.323   8.482 -2.7946  3.0689  0.7400
   36POPC  C218 4858   6.582   0.388   8.392  0.2123  1.1287 -0.3506
   36POPC  H18R 4859   6.667   0.454   8.418  0.6717  0.3159  0.2641
   36POPC  H18S 4860   6.532   0.434   8.305  0.2383 -1.7254 -2.0052
   36POPC  H18T 4861   6.629   0.289   8.372 -0.7582  0.6661 -0.4030
   36POPC   C33 4862   5.930   0.806  10.097  0.5611  0.3814  0.0370
   36POPC   H3X 4863   5.997   0.879  10.147 -0.0553  1.0670 -0.1346
   36POPC   H3Y 4864   5.828   0.850  10.087  0.2806 -0.3212 -0.3059
   36POPC   C34 4865   5.975   0.777   9.953  0.5123 -0.4367  0.0108
   36POPC   H4X 4866   5.909   0.696   9.915 -1.7266 -0.0019  2.6389
   36POPC   H4Y 4867   6.070   0.719   9.947  0.4563 -0.6595  1.0286
   36POPC   C35 4868   5.968   0.884   9.852 -0.2290  0.0858 -0.0476
   36POPC   H5X 4869   6.040   0.967   9.865 -1.4592  1.2479 -0.3931
   36POPC   H5Y 4870   5.874   0.941   9.865  0.0684  0.4990  0.3308
   36POPC   C36 4871   5.983   0.833   9.707  0.3558  0.0889 -0.2232
   36POPC   H6X 4872   5.904   0.755   9.694  0.7150 -0.2934 -0.1587
   36POPC   H6Y 4873   6.084   0.788   9.696  0.0104 -0.7221 -0.1788
   36POPC   C37 4874   5.967   0.942   9.600  0.3266 -0.4131  0.3873
   36POPC   H7X 4875   6.039   1.023   9.623 -0.1293  0.3736 -0.8347
   36POPC   H7Y 4876   5.867   0.987   9.617  0.1089 -0.2843 -1.0559
   36POPC   C38 4877   5.971   0.874   9.460  0.0665 -0.3319  0.0104
   36POPC   H8X 4878   5.898   0.790   9.464  1.0994 -1.3640 -1.8656
   36POPC   H8Y 4879   6.071   0.848   9.420 -0.7059  0.5880 -2.6951
   36POPC   C39 4880   5.927   0.965   9.344  0.2555  0.2299 -0.2247
   36POPC   H9X 4881   5.998   1.049   9.363  1.1933 -0.7406  0.6677
   36POPC   H9Y 4882   5.826   1.011   9.350 -0.4796 -1.2199 -0.8678
   36POPC  C310 4883   5.969   0.906   9.210 -0.2999  0.8544  0.1601
   36POPC  H10X 4884   5.929   0.803   9.203  0.9993  0.1712  2.0634
   36POPC  H10Y 4885   6.080   0.899   9.215 -0.3888 -2.3333 -0.0059
   36POPC  C311 4886   5.935   0.983   9.088 -0.0546 -0.4834  0.1750
   36POPC  H11X 4887   6.009   1.062   9.063 -0.7878 -0.0819 -0.8216
   36POPC  H11Y 4888   5.827   1.008   9.092 -0.4041 -1.6521 -1.1706
   36POPC  C312 4889   5.956   0.888   8.966  0.8457 -0.3594 -0.7631
   36POPC  H12X 4890   5.905   0.790   8.980 -0.1111  0.0907 -1.0564
   36POPC  H12Y 4891   6.065   0.881   8.946  0.5343  0.0876 -2.8477
   36POPC  C313 4892   5.901   0.944   8.835  0.2718  0.1451  0.0973
   36POPC  H13X 4893   5.791   0.941   8.849  0.3531 -2.4362  0.6400
   36POPC  H13Y 4894   5.918   0.866   8.757  0.5656  0.8382 -0.5469
   36POPC  C314 4895   5.963   1.081   8.801  0.3067  0.2729  0.2216
   36POPC  H14X 4896   6.074   1.095   8.803  0.3573 -0.0652  0.0392
   36POPC  H14Y 4897   5.918   1.155   8.870 -1.5658  1.0373 -1.7066
   36POPC  C315 4898   5.928   1.117   8.652  0.1010  0.2764 -0.0266
   36POPC  H15X 4899   5.819   1.116   8.630  0.4046  0.0265 -1.6650
   36POPC  H15Y 4900   5.976   1.045   8.582 -0.3296 -1.2830  1.2218
   36POPC  C316 4901   5.965   1.261   8.615  0.0662 -0.4348  0.5299
   36POPC  H16X 4902   6.069   1.288   8.646  0.2896  2.2356 -2.0737
   36POPC  H16Y 4903   5.900   1.335   8.666 -0.9169 -0.0794 -1.1544
   36POPC  H16Z 4904   5.948   1.274   8.506  0.6074  0.6719  0.5636
   37POPC     N 4905   2.177   1.295   6.330 -0.0678  0.4161  0.1111
   37POPC   C12 4906   2.242   1.277   6.460 -0.2077 -0.0196  1.2058
   37POPC  H12A 4907   2.347   1.299   6.446 -0.3849 -0.1324 -0.4452
   37POPC  H12B 4908   2.231   1.172   6.483 -2.7223 -0.9206 -3.0922
   37POPC   C13 4909   2.040   1.243   6.333  0.7375 -0.0873  0.2569
   37POPC  H13A 4910   1.988   1.244   6.239 -0.6601  0.2889  0.9957
   37POPC  H13B 4911   2.045   1.138   6.354 -1.4551 -0.1219  0.8849
   37POPC  H13C 4912   1.979   1.303   6.400  0.8707  0.3115  0.0261
   37POPC   C14 4913   2.171   1.432   6.269 -0.1515  0.3088  0.0317
   37POPC  H14A 4914   2.131   1.421   6.170 -1.0200 -1.1940  0.5184
   37POPC  H14B 4915   2.107   1.495   6.329  0.1048  0.2244  0.4022
   37POPC  H14C 4916   2.270   1.475   6.263 -0.6409  1.3515 -0.7234
   37POPC   C15 4917   2.261   1.202   6.230  0.1374  0.1148  0.1146
   37POPC  H15A 4918   2.267   1.101   6.268  0.1519 -0.1528 -0.5891
   37POPC  H15B 4919   2.362   1.242   6.224  0.4873 -0.5195  1.4055
   37POPC  H15C 4920   2.225   1.193   6.129  0.7170 -1.1906  0.0014
   37POPC   C11 4921   2.187   1.350   6.585 -0.8525 -0.1552 -1.4132
   37POPC  H11A 4922   2.240   1.322   6.679 -0.2679  1.1070 -1.3435
   37POPC  H11B 4923   2.085   1.307   6.591 -0.3817 -1.0916  0.9111
   37POPC     P 4924   2.289   1.598   6.602 -0.2293  0.2612  0.2154
   37POPC   O13 4925   2.303   1.685   6.479  0.4635 -0.1799 -0.3999
   37POPC   O14 4926   2.412   1.523   6.643  0.4165  0.2499  0.6642
   37POPC   O12 4927   2.176   1.492   6.571 -0.2022 -0.1650  0.2593
   37POPC   O11 4928   2.221   1.695   6.709 -0.1080 -0.6005 -0.2538
   37POPC    C1 4929   2.309   1.750   6.808 -0.3153  0.0932 -0.7619
   37POPC    HA 4930   2.388   1.808   6.755 -0.8086  1.4194 -0.0940
   37POPC    HB 4931   2.363   1.666   6.855 -2.7077 -1.6524 -0.9194
   37POPC    C2 4932   2.233   1.833   6.914  0.1401 -0.8624  0.1117
   37POPC    HS 4933   2.298   1.880   6.991 -2.0603  1.1544  0.8444
   37POPC   O21 4934   2.131   1.753   6.978 -0.5888  0.0112 -0.0663
   37POPC   C21 4935   2.174   1.659   7.058  0.0585 -0.5835  0.1145
   37POPC   O22 4936   2.288   1.642   7.086  0.2611 -0.2574 -0.7417
   37POPC   C22 4937   2.052   1.606   7.119  0.1533  0.7770 -0.0693
   37POPC   H2R 4938   2.025   1.513   7.063  0.7986  0.6145 -0.1153
   37POPC   H2S 4939   1.965   1.671   7.097 -0.3129  0.3182  0.3983
   37POPC    C3 4940   2.177   1.957   6.841 -0.9799  0.0794 -0.6767
   37POPC    HX 4941   2.097   1.920   6.773 -0.8996 -0.0533 -0.6990
   37POPC    HY 4942   2.257   1.998   6.775 -1.0213 -0.2728 -0.9511
   37POPC   O31 4943   2.137   2.052   6.939 -0.2623  0.1652  0.4570
   37POPC   C31 4944   2.007   2.087   6.933 -0.6447  0.0587  0.4539
   37POPC   O32 4945   1.930   2.046   6.848 -0.0310  0.5693  0.7152
   37POPC   C32 4946   1.985   2.198   7.037 -0.5651  0.3186  0.0650
   37POPC   H2X 4947   1.888   2.191   7.091 -1.8448 -0.3647 -2.1577
   37POPC   H2Y 4948   1.983   2.291   6.977 -0.3010  1.5266  1.8716
   37POPC   C23 4949   2.077   1.562   7.263 -0.0989  0.4784 -1.2923
   37POPC   H3R 4950   2.166   1.496   7.272 -2.2813 -2.3822  1.1516
   37POPC   H3S 4951   1.991   1.502   7.300  1.0939 -0.3252  0.3006
   37POPC   C24 4952   2.094   1.683   7.364 -0.7780  0.3528 -0.2508
   37POPC   H4R 4953   1.995   1.732   7.379 -1.1490 -0.2988 -0.5457
   37POPC   H4S 4954   2.162   1.766   7.335  1.8359 -0.8410  2.1145
   37POPC   C25 4955   2.142   1.619   7.503 -0.0808 -0.1432 -0.0838
   37POPC   H5R 4956   2.242   1.576   7.481 -0.8995 -1.3774 -1.6056
   37POPC   H5S 4957   2.084   1.531   7.537  2.5833 -2.6385 -1.5014
   37POPC   C26 4958   2.151   1.726   7.616  0.3378  0.4754  0.3999
   37POPC   H6R 4959   2.057   1.786   7.614 -0.2612 -0.4597  0.2304
   37POPC   H6S 4960   2.231   1.798   7.586  1.3403 -1.0567 -0.7155
   37POPC   C27 4961   2.173   1.672   7.757  0.1409  0.5100 -0.2453
   37POPC   H7R 4962   2.073   1.629   7.779  0.4200  0.6294  1.4367
   37POPC   H7S 4963   2.189   1.750   7.835  0.7578  0.3305 -0.1831
   37POPC   C28 4964   2.282   1.566   7.776 -0.3566 -0.0882  0.6875
   37POPC   H8R 4965   2.269   1.481   7.707 -0.1583 -0.2492  0.8466
   37POPC   H8S 4966   2.266   1.532   7.881 -0.9553 -1.6803  0.1082
   37POPC   C29 4967   2.416   1.635   7.753 -0.5793 -0.2025  0.0092
   37POPC   H91 4968   2.430   1.699   7.664  1.0715  0.1639  0.4925
   37POPC  C210 4969   2.520   1.597   7.831 -0.1004 -0.9095  0.3902
   37POPC  H101 4970   2.618   1.647   7.823 -0.9898  1.0094  0.9763
   37POPC  C211 4971   2.528   1.503   7.954  0.6157  0.0247  0.8113
   37POPC  H11R 4972   2.435   1.494   8.013 -0.6871 -0.4415 -1.1906
   37POPC  H11S 4973   2.609   1.534   8.023  1.5363 -1.4498  0.4602
   37POPC  C212 4974   2.557   1.350   7.916 -0.8825  0.3023  0.1328
   37POPC  H12R 4975   2.667   1.350   7.906 -0.9516  1.4697 -0.9922
   37POPC  H12S 4976   2.522   1.325   7.813 -0.2820  2.3983 -0.6575
   37POPC  C213 4977   2.516   1.248   8.015 -0.2061 -1.1504 -0.9965
   37POPC  H13R 4978   2.410   1.254   8.048 -0.4454 -1.8368 -1.6072
   37POPC  H13S 4979   2.580   1.255   8.105 -1.3943 -1.8674 -0.0671
   37POPC  C214 4980   2.542   1.105   7.962  0.0203  0.4017  0.3908
   37POPC  H14R 4981   2.651   1.109   7.941 -0.3199 -2.2723 -2.7816
   37POPC  H14S 4982   2.492   1.084   7.865  2.6538  0.8006 -1.1505
   37POPC  C215 4983   2.532   0.999   8.074  0.5151  0.0776  0.1964
   37POPC  H15R 4984   2.426   0.997   8.110 -0.7930  0.9080 -3.2556
   37POPC  H15S 4985   2.593   1.033   8.161  1.3629  0.1046 -0.4016
   37POPC  C216 4986   2.596   0.868   8.033  1.1348 -0.2656 -0.0607
   37POPC  H16R 4987   2.702   0.890   8.007  1.7067  0.4942  2.5650
   37POPC  H16S 4988   2.539   0.831   7.945 -1.1257  2.2264  0.2214
   37POPC  C217 4989   2.609   0.769   8.139 -0.3635 -0.3368  0.0672
   37POPC  H17R 4990   2.515   0.734   8.187 -1.0401  1.0532 -0.1974
   37POPC  H17S 4991   2.659   0.825   8.221  1.0612 -1.2085 -0.1623
   37POPC  C218 4992   2.694   0.644   8.099 -0.2514 -0.2713 -0.1593
   37POPC  H18R 4993   2.788   0.689   8.062  1.5303 -0.5477  3.5563
   37POPC  H18S 4994   2.634   0.586   8.026 -1.9885  0.8120  0.3225
   37POPC  H18T 4995   2.712   0.583   8.190  2.5651  1.8714  0.8837
   37POPC   C33 4996   2.100   2.221   7.129  0.2214  0.1379 -1.1180
   37POPC   H3X 4997   2.181   2.267   7.068 -0.6899  1.2114 -1.5607
   37POPC   H3Y 4998   2.138   2.124   7.167 -2.4400 -1.2023 -1.5733
   37POPC   C34 4999   2.069   2.304   7.258  0.1376 -0.5345 -0.1844
   37POPC   H4X 5000   2.002   2.390   7.234 -0.8137 -1.4979 -1.0515
   37POPC   H4Y 5001   2.173   2.334   7.287 -0.6735  1.4982  0.8651
   37POPC   C35 5002   2.011   2.214   7.364 -0.3397 -0.0715 -0.5025
   37POPC   H5X 5003   2.025   2.107   7.339  1.5837  0.0868 -0.2211
   37POPC   H5Y 5004   1.902   2.236   7.360 -0.9358 -2.2280  1.5551
   37POPC   C36 5005   2.062   2.238   7.506  0.1247  0.0253 -0.7208
   37POPC   H6X 5006   2.018   2.331   7.548  1.1704  1.5364 -2.7583
   37POPC   H6Y 5007   2.169   2.268   7.505  0.1414  0.0445 -2.4907
   37POPC   C37 5008   2.035   2.113   7.601 -0.4881 -0.8386 -0.8380
   37POPC   H7X 5009   2.094   2.025   7.565 -0.0630 -1.2923  0.8667
   37POPC   H7Y 5010   1.927   2.090   7.587 -0.6848 -1.8189  1.7562
   37POPC   C38 5011   2.050   2.140   7.750 -1.1111 -0.9300 -0.0801
   37POPC   H8X 5012   1.980   2.220   7.784  0.9704  2.2022 -2.5238
   37POPC   H8Y 5013   2.152   2.182   7.762 -0.8257 -1.3320 -1.0610
   37POPC   C39 5014   2.005   2.024   7.832  0.3551 -0.0585  0.4103
   37POPC   H9X 5015   2.011   1.927   7.778  0.7829 -0.5887  1.3843
   37POPC   H9Y 5016   1.897   2.041   7.855 -0.0307  0.5023 -1.6367
   37POPC  C310 5017   2.085   2.012   7.964  0.8070 -0.0725  0.5074
   37POPC  H10X 5018   2.090   2.113   8.009  0.0779  0.0621  0.2970
   37POPC  H10Y 5019   2.190   1.989   7.936  1.3393  1.9991  0.6615
   37POPC  C311 5020   2.030   1.905   8.055  0.2201 -0.2237 -0.2676
   37POPC  H11X 5021   2.007   1.813   7.997 -1.9543 -0.2782  0.5969
   37POPC  H11Y 5022   1.930   1.944   8.086 -0.7243 -2.6550 -0.0426
   37POPC  C312 5023   2.099   1.872   8.184 -0.1848 -0.2822 -0.5790
   37POPC  H12X 5024   2.175   1.799   8.149  0.3429  0.3117 -0.6937
   37POPC  H12Y 5025   2.017   1.825   8.243 -0.7358  1.5681  0.1980
   37POPC  C313 5026   2.167   1.991   8.250 -0.3319 -0.0714 -0.2635
   37POPC  H13X 5027   2.097   2.078   8.256 -2.5917 -1.8162  0.1200
   37POPC  H13Y 5028   2.247   2.036   8.187 -0.6586  2.6720  1.1211
   37POPC  C314 5029   2.212   1.961   8.387  1.2164 -0.1305  0.1469
   37POPC  H14X 5030   2.121   1.932   8.445  0.9233 -1.1138 -0.7754
   37POPC  H14Y 5031   2.243   2.059   8.430  1.2580  1.6258 -3.5120
   37POPC  C315 5032   2.317   1.853   8.387  0.5441  0.1047 -0.7254
   37POPC  H15X 5033   2.403   1.882   8.323  0.9612  0.0035 -0.2177
   37POPC  H15Y 5034   2.288   1.764   8.327 -1.0610  0.4368 -0.4778
   37POPC  C316 5035   2.365   1.791   8.517  0.1051  0.9359  0.1718
   37POPC  H16X 5036   2.282   1.757   8.584  1.0808 -0.6551  0.6357
   37POPC  H16Y 5037   2.431   1.854   8.580 -0.6710 -0.0702  2.0699
   37POPC  H16Z 5038   2.424   1.701   8.488 -1.5800  0.2999 -1.5491
   38POPC     N 5039   3.282   3.442   6.018 -0.4414 -0.5578  0.4933
   38POPC   C12 5040   3.283   3.407   6.164 -0.5058 -0.1156 -0.1259
   38POPC  H12A 5041   3.269   3.494   6.226 -0.9557 -0.6733  0.5766
   38POPC  H12B 5042   3.379   3.367   6.194 -0.6588 -0.3541  0.0511
   38POPC   C13 5043   3.318   3.319   5.940 -0.1076 -0.2012  1.0178
   38POPC  H13A 5044   3.425   3.305   5.940  0.0980  1.2007  0.8090
   38POPC  H13B 5045   3.270   3.228   5.971  0.5625 -1.0294 -0.2857
   38POPC  H13C 5046   3.299   3.333   5.835  0.8783 -0.3028  0.8142
   38POPC   C14 5047   3.141   3.492   5.982 -0.6351  0.7148  0.8515
   38POPC  H14A 5048   3.126   3.573   6.052 -4.2185  0.0248  1.0682
   38POPC  H14B 5049   3.135   3.536   5.884  2.0843 -0.0944  0.2489
   38POPC  H14C 5050   3.059   3.422   5.997 -0.3834  0.5277  1.4120
   38POPC   C15 5051   3.384   3.545   5.989 -0.1761  0.3593 -0.0973
   38POPC  H15A 5052   3.365   3.639   6.039  1.6583 -0.5172  2.4869
   38POPC  H15B 5053   3.379   3.566   5.883 -1.3453 -0.3197 -0.1928
   38POPC  H15C 5054   3.480   3.505   6.017  0.1994 -0.6996 -2.6523
   38POPC   C11 5055   3.188   3.298   6.216  0.1284 -0.1144  0.3400
   38POPC  H11A 5056   3.083   3.315   6.185 -0.3452 -0.5190  1.6619
   38POPC  H11B 5057   3.189   3.297   6.327 -0.6692 -0.6127  0.3529
   38POPC     P 5058   3.355   3.094   6.218  0.0421 -0.0544 -0.0212
   38POPC   O13 5059   3.467   3.164   6.153  0.3026  0.9931  0.1084
   38POPC   O14 5060   3.348   2.951   6.205 -0.3481  0.4005  0.1174
   38POPC   O12 5061   3.219   3.161   6.167  0.0203 -0.6000 -0.1011
   38POPC   O11 5062   3.361   3.119   6.375 -0.1766  0.4414 -0.1493
   38POPC    C1 5063   3.486   3.137   6.442 -0.1882  0.2720  0.4909
   38POPC    HA 5064   3.529   3.233   6.406  0.2907 -0.1337 -0.0417
   38POPC    HB 5065   3.559   3.055   6.425 -1.1784 -0.9539  1.8328
   38POPC    C2 5066   3.463   3.149   6.607 -0.8928  0.2756 -0.0500
   38POPC    HS 5067   3.564   3.179   6.642 -1.5779  1.8174  0.7093
   38POPC   O21 5068   3.418   3.022   6.660  0.1097 -0.2589  0.3004
   38POPC   C21 5069   3.512   2.927   6.673 -0.2310 -0.0398  0.6124
   38POPC   O22 5070   3.630   2.953   6.655  0.2406  0.4054  0.4481
   38POPC   C22 5071   3.456   2.786   6.710 -0.5714  0.4422  0.2089
   38POPC   H2R 5072   3.489   2.717   6.629 -1.9074  0.6636 -0.5459
   38POPC   H2S 5073   3.346   2.794   6.725 -0.3063 -0.0488  2.9546
   38POPC    C3 5074   3.364   3.262   6.642 -0.1460 -0.0256 -0.8581
   38POPC    HX 5075   3.276   3.247   6.576 -1.4496  0.8434  0.5824
   38POPC    HY 5076   3.415   3.356   6.613  1.3918 -0.1120  1.2860
   38POPC   O31 5077   3.328   3.257   6.789  0.0975 -0.0390 -0.0548
   38POPC   C31 5078   3.423   3.291   6.868 -0.5133 -0.4041  0.2649
   38POPC   O32 5079   3.528   3.344   6.837 -0.0951 -0.4413 -0.0935
   38POPC   C32 5080   3.389   3.258   7.015  0.0455 -0.0124  0.2486
   38POPC   H2X 5081   3.404   3.148   7.017  0.5396  0.0536  0.3883
   38POPC   H2Y 5082   3.283   3.289   7.024 -0.0115  0.1968 -1.0770
   38POPC   C23 5083   3.515   2.751   6.842 -0.3484  0.6549 -0.2101
   38POPC   H3R 5084   3.625   2.766   6.846  0.0652 -2.1568  0.6814
   38POPC   H3S 5085   3.513   2.641   6.854 -1.4189  0.5093 -1.5346
   38POPC   C24 5086   3.457   2.832   6.954 -0.0168 -0.1041  0.2734
   38POPC   H4R 5087   3.350   2.803   6.965 -0.4321  0.8781 -0.9065
   38POPC   H4S 5088   3.450   2.942   6.941 -1.4184 -0.1716  0.3096
   38POPC   C25 5089   3.527   2.808   7.087  0.5162  0.5164 -0.1376
   38POPC   H5R 5090   3.636   2.829   7.081  0.1337  3.2225  0.7743
   38POPC   H5S 5091   3.507   2.700   7.101  1.7637  0.2845  0.0147
   38POPC   C26 5092   3.460   2.882   7.205  0.4207  0.7547  0.7878
   38POPC   H6R 5093   3.353   2.851   7.200  0.6305  0.2479 -1.5189
   38POPC   H6S 5094   3.465   2.991   7.185 -2.7488  0.4901 -2.2386
   38POPC   C27 5095   3.530   2.847   7.337  1.3238  0.3001  0.0796
   38POPC   H7R 5096   3.639   2.863   7.328  1.9973 -1.4950  3.4627
   38POPC   H7S 5097   3.521   2.737   7.345 -1.4402  0.4075 -0.3433
   38POPC   C28 5098   3.460   2.922   7.453 -0.0416  1.3925  0.4422
   38POPC   H8R 5099   3.462   3.025   7.412  2.9744  1.1555 -0.2128
   38POPC   H8S 5100   3.532   2.923   7.538  1.5180 -1.9459 -0.6671
   38POPC   C29 5101   3.323   2.882   7.490  0.1149 -0.1556  0.0980
   38POPC   H91 5102   3.242   2.912   7.421 -1.2684 -0.3589  1.5653
   38POPC  C210 5103   3.283   2.853   7.615 -0.1293  0.0576 -0.6256
   38POPC  H101 5104   3.178   2.822   7.628 -0.6710  1.4075 -1.5263
   38POPC  C211 5105   3.366   2.832   7.738 -0.3673  0.2610 -0.0612
   38POPC  H11R 5106   3.327   2.892   7.823  0.7815  1.3340 -0.2671
   38POPC  H11S 5107   3.465   2.879   7.723  0.6978 -1.3237  1.6271
   38POPC  C212 5108   3.389   2.680   7.758 -0.0110 -0.6280 -0.0287
   38POPC  H12R 5109   3.455   2.653   7.673 -1.5732 -1.3421 -1.0427
   38POPC  H12S 5110   3.300   2.615   7.746 -1.4133  1.2776 -0.4588
   38POPC  C213 5111   3.454   2.639   7.893 -0.2792 -0.2078 -0.0397
   38POPC  H13R 5112   3.523   2.725   7.905 -1.3326  0.4825  1.3413
   38POPC  H13S 5113   3.512   2.545   7.887 -1.0574 -0.9429  2.6079
   38POPC  C214 5114   3.356   2.635   8.006 -0.1451 -0.6670  0.0995
   38POPC  H14R 5115   3.295   2.542   8.004  1.5915 -1.8461  0.0057
   38POPC  H14S 5116   3.298   2.730   8.001  2.7378  1.1667 -0.9185
   38POPC  C215 5117   3.428   2.646   8.144  0.1458 -0.3241  0.5973
   38POPC  H15R 5118   3.484   2.742   8.135 -1.9403  0.9248  0.3364
   38POPC  H15S 5119   3.501   2.562   8.146  0.4175 -0.1743 -1.2540
   38POPC  C216 5120   3.334   2.642   8.268 -0.2524 -0.2184 -0.4145
   38POPC  H16R 5121   3.284   2.543   8.266 -2.0057  0.6211  0.1207
   38POPC  H16S 5122   3.255   2.719   8.257 -0.7835 -0.7745 -0.5724
   38POPC  C217 5123   3.405   2.673   8.403 -0.7047  0.3760  0.6034
   38POPC  H17R 5124   3.327   2.683   8.482 -0.0516  1.4023  1.1384
   38POPC  H17S 5125   3.452   2.773   8.395 -1.0577  0.6292  1.6037
   38POPC  C218 5126   3.516   2.575   8.442  0.4847  0.5038 -0.2705
   38POPC  H18R 5127   3.580   2.585   8.532 -0.9501 -2.2593  1.1803
   38POPC  H18S 5128   3.583   2.565   8.354  0.6359  1.3263 -0.2611
   38POPC  H18T 5129   3.463   2.478   8.449 -0.9156  1.0621 -2.2624
   38POPC   C33 5130   3.481   3.318   7.125  0.4485  0.3047  0.0100
   38POPC   H3X 5131   3.472   3.428   7.113  0.2279  0.3220  0.3411
   38POPC   H3Y 5132   3.588   3.289   7.137  0.2304  0.0505  1.6095
   38POPC   C34 5133   3.428   3.293   7.264  0.3519  0.3356  0.1001
   38POPC   H4X 5134   3.421   3.183   7.278  2.5690  0.2475  1.0303
   38POPC   H4Y 5135   3.335   3.354   7.268  1.7000  2.9424 -3.2216
   38POPC   C35 5136   3.526   3.352   7.369  0.8157 -0.8772 -0.0364
   38POPC   H5X 5137   3.551   3.457   7.343  0.7888 -0.5297  1.2476
   38POPC   H5Y 5138   3.622   3.297   7.373  0.5982 -1.2746 -0.3087
   38POPC   C36 5139   3.456   3.358   7.503  0.8100 -0.0997 -0.7700
   38POPC   H6X 5140   3.404   3.260   7.511  0.7335 -0.0163 -0.1333
   38POPC   H6Y 5141   3.390   3.448   7.511  2.5997  1.2363 -0.5488
   38POPC   C37 5142   3.554   3.367   7.621 -0.3962 -0.5067  0.3625
   38POPC   H7X 5143   3.611   3.457   7.590 -0.7357 -0.7483 -1.0196
   38POPC   H7Y 5144   3.620   3.279   7.610  0.5374  0.0568  1.2347
   38POPC   C38 5145   3.478   3.368   7.752 -0.2503  0.5246 -0.4817
   38POPC   H8X 5146   3.431   3.269   7.770  0.1490  0.0433 -1.9578
   38POPC   H8Y 5147   3.392   3.439   7.751 -1.2397 -0.6248  0.0458
   38POPC   C39 5148   3.560   3.414   7.881 -0.3011  0.3054 -0.1132
   38POPC   H9X 5149   3.492   3.414   7.969  0.0624 -1.7853  0.2118
   38POPC   H9Y 5150   3.593   3.520   7.877 -0.3778  0.4865  2.4503
   38POPC  C310 5151   3.669   3.311   7.911 -0.4475 -0.4965  0.7916
   38POPC  H10X 5152   3.728   3.283   7.822  0.1419  0.0291  1.0099
   38POPC  H10Y 5153   3.632   3.214   7.949  1.8899 -1.1266  1.6303
   38POPC  C311 5154   3.764   3.360   8.021 -0.2296 -0.3438 -0.5865
   38POPC  H11X 5155   3.793   3.467   8.011 -0.3878 -0.3529 -1.1629
   38POPC  H11Y 5156   3.853   3.292   8.014 -1.5860 -2.2410 -0.2719
   38POPC  C312 5157   3.688   3.346   8.155 -0.0214  0.4208 -0.1539
   38POPC  H12X 5158   3.660   3.242   8.182  0.9926  0.3167  0.5175
   38POPC  H12Y 5159   3.593   3.403   8.144  0.8623  1.4878 -3.4631
   38POPC  C313 5160   3.756   3.404   8.274  0.6494 -0.1798  0.1092
   38POPC  H13X 5161   3.694   3.381   8.363 -0.9924  0.7196 -0.7430
   38POPC  H13Y 5162   3.737   3.513   8.271  0.7828 -0.1769 -1.6573
   38POPC  C314 5163   3.905   3.370   8.295 -0.1607  0.0972 -0.7328
   38POPC  H14X 5164   3.963   3.398   8.204 -0.4843 -0.4913 -1.1282
   38POPC  H14Y 5165   3.907   3.259   8.293 -2.0120 -0.0985  2.1011
   38POPC  C315 5166   3.972   3.429   8.419 -0.0309  0.3642  0.8784
   38POPC  H15X 5167   3.922   3.391   8.510 -2.0595  0.2001 -0.2579
   38POPC  H15Y 5168   3.950   3.537   8.412 -1.6872 -0.0483 -1.5382
   38POPC  C316 5169   4.125   3.401   8.411 -0.1492 -0.0626  0.2578
   38POPC  H16X 5170   4.158   3.461   8.324 -0.3698  0.6757  0.6686
   38POPC  H16Y 5171   4.152   3.295   8.397  0.5416  0.2706 -1.0523
   38POPC  H16Z 5172   4.177   3.452   8.495  0.0944  0.5077 -0.2323
   39POPC     N 5173   1.313   0.796   5.877  0.2509 -0.4632 -0.1959
   39POPC   C12 5174   1.458   0.843   5.881 -0.2960 -0.0123 -0.3586
   39POPC  H12A 5175   1.462   0.950   5.895 -0.0401 -0.4154  4.1429
   39POPC  H12B 5176   1.508   0.826   5.787 -0.8475  1.5333 -0.9532
   39POPC   C13 5177   1.245   0.884   5.773  0.2189 -1.0254  0.3416
   39POPC  H13A 5178   1.318   0.895   5.694 -1.0180  1.4037 -0.5885
   39POPC  H13B 5179   1.154   0.837   5.738  0.1952 -0.5617 -0.2403
   39POPC  H13C 5180   1.241   0.984   5.815  1.4638 -1.6897  2.1832
   39POPC   C14 5181   1.301   0.659   5.826 -0.5485 -0.3435 -0.0481
   39POPC  H14A 5182   1.328   0.590   5.905  1.8554  0.8674  0.2855
   39POPC  H14B 5183   1.197   0.640   5.802 -1.1953  1.0768  1.4423
   39POPC  H14C 5184   1.360   0.643   5.737 -1.6172  1.7496 -1.2221
   39POPC   C15 5185   1.235   0.815   6.005 -0.0026 -0.4953  0.1330
   39POPC  H15A 5186   1.206   0.919   6.009  1.8548  0.0883 -0.7570
   39POPC  H15B 5187   1.298   0.790   6.089  0.5465 -0.1177 -0.1610
   39POPC  H15C 5188   1.147   0.752   6.010 -0.3601  0.0054  0.1710
   39POPC   C11 5189   1.553   0.782   5.991 -0.2787 -0.5359  0.1164
   39POPC  H11A 5190   1.649   0.838   5.990 -1.4252  1.8416  3.3833
   39POPC  H11B 5191   1.563   0.676   5.962 -1.8998 -0.8142  0.4941
   39POPC     P 5192   1.511   0.921   6.209  0.1659 -0.4328  0.0110
   39POPC   O13 5193   1.370   0.961   6.232  0.3558  0.1977  0.5517
   39POPC   O14 5194   1.598   1.020   6.138 -0.1101  0.0172  0.0764
   39POPC   O12 5195   1.498   0.788   6.125 -0.7386 -0.0898  0.6620
   39POPC   O11 5196   1.576   0.887   6.345  0.3478  0.3430 -0.5423
   39POPC    C1 5197   1.559   0.760   6.413 -0.6349  0.5954  0.6556
   39POPC    HA 5198   1.611   0.768   6.511  2.5289 -0.8582 -0.7630
   39POPC    HB 5199   1.605   0.678   6.353 -2.2976  0.5333 -0.5880
   39POPC    C2 5200   1.416   0.712   6.457 -0.8574  0.1968 -0.2031
   39POPC    HS 5201   1.351   0.711   6.366 -1.0909 -0.7937 -0.0455
   39POPC   O21 5202   1.365   0.806   6.547  0.5402  0.1457  0.2612
   39POPC   C21 5203   1.229   0.804   6.564 -1.1601  0.0870 -0.1716
   39POPC   O22 5204   1.148   0.735   6.502 -0.0630 -0.7446 -0.3748
   39POPC   C22 5205   1.193   0.904   6.676 -0.4117  0.2059 -0.0254
   39POPC   H2R 5206   1.161   0.991   6.614  1.6660 -0.1347 -1.6708
   39POPC   H2S 5207   1.280   0.939   6.736  0.3581 -0.1675 -0.9015
   39POPC    C3 5208   1.423   0.573   6.526 -0.9795  0.2215 -0.1237
   39POPC    HX 5209   1.462   0.502   6.450 -1.1585  0.3393 -0.3283
   39POPC    HY 5210   1.321   0.533   6.540 -1.8467  1.5290 -2.2324
   39POPC   O31 5211   1.516   0.575   6.636 -0.3970 -0.1934  0.1979
   39POPC   C31 5212   1.469   0.556   6.755 -0.6176 -0.1953 -0.5737
   39POPC   O32 5213   1.356   0.518   6.784  0.2127  0.5554 -0.4573
   39POPC   C32 5214   1.574   0.598   6.861  0.1279  0.3035 -0.4951
   39POPC   H2X 5215   1.622   0.500   6.881  1.2389  0.7619 -0.8524
   39POPC   H2Y 5216   1.649   0.669   6.821  0.4978 -0.0716 -0.4820
   39POPC   C23 5217   1.094   0.849   6.774 -0.3609 -0.0465  0.2373
   39POPC   H3R 5218   0.999   0.816   6.726  0.4912 -0.6466 -1.1061
   39POPC   H3S 5219   1.072   0.931   6.845 -2.2979 -0.6350  0.3852
   39POPC   C24 5220   1.139   0.728   6.845 -0.0884  0.4931  0.2431
   39POPC   H4R 5221   1.233   0.742   6.902  0.7515 -1.1928 -0.6460
   39POPC   H4S 5222   1.156   0.642   6.777  0.7140  0.6195  0.2769
   39POPC   C25 5223   1.034   0.691   6.951  0.9510  0.3670  0.5552
   39POPC   H5R 5224   0.949   0.640   6.902  1.4170  0.1375 -0.0308
   39POPC   H5S 5225   0.989   0.787   6.985 -1.4343  0.1212 -1.6175
   39POPC   C26 5226   1.099   0.605   7.053  0.1886 -0.2308 -0.0925
   39POPC   H6R 5227   1.168   0.523   7.024  0.2635  0.1079 -0.9015
   39POPC   H6S 5228   1.015   0.545   7.095  0.1039 -1.3227 -1.7073
   39POPC   C27 5229   1.155   0.693   7.163 -1.5229  0.4851 -0.3707
   39POPC   H7R 5230   1.085   0.774   7.193 -1.7778  0.9969 -2.2011
   39POPC   H7S 5231   1.262   0.724   7.150 -0.6192 -1.1883  2.3294
   39POPC   C28 5232   1.162   0.617   7.298  0.0304  0.2792 -0.3137
   39POPC   H8R 5233   1.211   0.682   7.374  0.6575  0.0428 -0.5083
   39POPC   H8S 5234   1.240   0.538   7.296  0.7269  0.8624  1.3985
   39POPC   C29 5235   1.030   0.576   7.360  0.4454 -0.0662 -0.6904
   39POPC   H91 5236   0.961   0.526   7.291  1.5298  0.2954 -2.0941
   39POPC  C210 5237   0.985   0.613   7.485 -0.4315 -0.3389  0.1041
   39POPC  H101 5238   0.890   0.574   7.524 -1.0663  2.6551  1.9174
   39POPC  C211 5239   1.061   0.695   7.587 -1.2037  0.8436  0.7950
   39POPC  H11R 5240   1.017   0.797   7.598 -2.7984  0.1490  1.2218
   39POPC  H11S 5241   1.170   0.697   7.566 -0.9566 -0.0309  1.9448
   39POPC  C212 5242   1.051   0.634   7.729  0.2363 -0.5738 -0.4699
   39POPC  H12R 5243   1.104   0.536   7.732  0.2150 -0.7182 -2.9922
   39POPC  H12S 5244   0.945   0.618   7.758 -0.0515  2.3194  0.3842
   39POPC  C213 5245   1.118   0.730   7.830  0.4287  0.2258  0.5952
   39POPC  H13R 5246   1.070   0.827   7.808  0.1560 -0.0807 -0.2169
   39POPC  H13S 5247   1.228   0.738   7.817  0.1968  1.5626 -0.7405
   39POPC  C214 5248   1.099   0.713   7.978 -0.8269  0.3099  0.2312
   39POPC  H14R 5249   0.994   0.726   8.011 -1.4413 -0.9740 -1.1230
   39POPC  H14S 5250   1.165   0.778   8.040 -1.6800  0.8812  0.5693
   39POPC  C215 5251   1.145   0.578   8.024  0.0326  0.2992  0.0146
   39POPC  H15R 5252   1.231   0.551   7.959 -0.0998 -1.0182  0.3674
   39POPC  H15S 5253   1.069   0.499   8.005 -1.7254  2.1460 -1.0902
   39POPC  C216 5254   1.204   0.578   8.167  0.3231  0.0416 -0.2865
   39POPC  H16R 5255   1.123   0.612   8.236 -0.8048 -0.5481 -1.2837
   39POPC  H16S 5256   1.283   0.652   8.190 -0.9787  1.2452  0.5327
   39POPC  C217 5257   1.264   0.445   8.205 -0.3943  0.5905 -0.1915
   39POPC  H17R 5258   1.200   0.358   8.181  2.6262 -2.0734  0.8361
   39POPC  H17S 5259   1.277   0.434   8.315  1.2548 -0.0881 -0.4297
   39POPC  C218 5260   1.396   0.428   8.134 -0.8594  0.0579 -1.0922
   39POPC  H18R 5261   1.461   0.506   8.178 -1.0238 -0.7743  0.7357
   39POPC  H18S 5262   1.382   0.449   8.026 -1.4588  3.2908 -0.4908
   39POPC  H18T 5263   1.445   0.329   8.144 -0.0398  0.4524 -1.1179
   39POPC   C33 5264   1.514   0.653   6.990 -0.4686 -0.0750  0.1605
   39POPC   H3X 5265   1.426   0.595   7.023 -0.4174  0.9281  2.2521
   39POPC   H3Y 5266   1.466   0.752   6.977 -1.6731 -0.5944  0.5515
   39POPC   C34 5267   1.620   0.643   7.114  0.5767 -0.2584  0.5180
   39POPC   H4X 5268   1.716   0.693   7.090  0.6224 -0.9309 -0.8248
   39POPC   H4Y 5269   1.645   0.536   7.132 -0.1558 -0.4870  0.2090
   39POPC   C35 5270   1.559   0.690   7.249  0.2966  0.3069  0.3785
   39POPC   H5X 5271   1.451   0.666   7.254 -0.0105  0.7478 -2.2186
   39POPC   H5Y 5272   1.561   0.799   7.226 -0.8799  0.0468 -1.1340
   39POPC   C36 5273   1.636   0.646   7.378  0.1211  0.2317  0.3767
   39POPC   H6X 5274   1.732   0.702   7.384 -0.9866  2.2152  0.6271
   39POPC   H6Y 5275   1.650   0.536   7.379  0.0428  0.2107 -0.3811
   39POPC   C37 5276   1.554   0.684   7.497 -0.0071  0.6698  0.2028
   39POPC   H7X 5277   1.467   0.615   7.503  1.1492 -0.7256  1.7177
   39POPC   H7Y 5278   1.520   0.790   7.501  0.6771  0.8985 -0.0234
   39POPC   C38 5279   1.631   0.676   7.633 -0.8740  0.2753  0.5326
   39POPC   H8X 5280   1.712   0.752   7.634  1.4770 -2.0386 -0.0049
   39POPC   H8Y 5281   1.669   0.572   7.637 -1.3525  0.0968  0.5268
   39POPC   C39 5282   1.543   0.688   7.761  0.3063  0.3140 -0.3396
   39POPC   H9X 5283   1.481   0.597   7.774  1.7458 -0.4428  1.7209
   39POPC   H9Y 5284   1.475   0.776   7.757 -0.0487  0.0152 -1.0005
   39POPC  C310 5285   1.626   0.713   7.895  0.1547  0.4025 -0.7747
   39POPC  H10X 5286   1.656   0.617   7.942 -1.0813  0.5933  0.4690
   39POPC  H10Y 5287   1.553   0.748   7.971 -0.9159 -1.9117 -0.6376
   39POPC  C311 5288   1.732   0.819   7.884 -0.7874 -0.3187 -0.4215
   39POPC  H11X 5289   1.676   0.907   7.844 -1.2517 -1.6573 -2.9508
   39POPC  H11Y 5290   1.803   0.792   7.803 -0.9911  0.5356 -0.9013
   39POPC  C312 5291   1.807   0.849   8.014 -0.3722  0.0451 -0.1636
   39POPC  H12X 5292   1.726   0.844   8.090 -0.0120  2.2844  0.4307
   39POPC  H12Y 5293   1.846   0.953   8.008 -2.4426  0.7826 -3.0156
   39POPC  C313 5294   1.918   0.751   8.044  0.3332  0.4998 -0.9435
   39POPC  H13X 5295   1.994   0.755   7.962  2.7362  1.1275  1.1751
   39POPC  H13Y 5296   1.883   0.647   8.052 -0.4656  0.3550 -4.4701
   39POPC  C314 5297   1.996   0.779   8.179  0.1736 -0.3081 -0.0278
   39POPC  H14X 5298   1.933   0.731   8.257  0.3538  0.1091  0.3752
   39POPC  H14Y 5299   2.008   0.887   8.198 -2.7214  0.0168  0.4756
   39POPC  C315 5300   2.131   0.703   8.183 -0.7383 -0.9155 -0.4677
   39POPC  H15X 5301   2.211   0.759   8.131  0.0136 -0.1931  1.3804
   39POPC  H15Y 5302   2.109   0.607   8.130 -1.3467 -0.8305 -0.3822
   39POPC  C316 5303   2.187   0.671   8.318  0.2316 -0.2334 -0.0636
   39POPC  H16X 5304   2.190   0.765   8.378  0.6212 -0.2735 -0.0225
   39POPC  H16Y 5305   2.289   0.629   8.309  0.4509 -0.2240  1.9390
   39POPC  H16Z 5306   2.122   0.601   8.375 -0.2232 -0.0794 -0.3875
   40POPC     N 5307   5.495   0.158   6.174 -0.6838 -0.7922  0.1351
   40POPC   C12 5308   5.558   0.296   6.121 -0.0919 -0.2031 -0.5519
   40POPC  H12A 5309   5.490   0.364   6.073  0.4412  0.4939 -0.3377
   40POPC  H12B 5310   5.634   0.269   6.049 -0.8088  2.5075 -2.4637
   40POPC   C13 5311   5.381   0.183   6.267  0.4957  0.0666 -0.3795
   40POPC  H13A 5312   5.289   0.188   6.211 -1.4024 -0.6720  2.4686
   40POPC  H13B 5313   5.366   0.100   6.333  1.3885  1.4815  1.7286
   40POPC  H13C 5314   5.393   0.276   6.322 -0.3048 -0.2555  0.3614
   40POPC   C14 5315   5.450   0.074   6.058  0.8954  0.3588  0.3139
   40POPC  H14A 5316   5.533   0.011   6.030  0.1813 -0.0609 -0.8989
   40POPC  H14B 5317   5.375   0.004   6.093  0.8005 -0.4423 -1.4126
   40POPC  H14C 5318   5.402   0.121   5.974  1.7930  3.2658  1.3174
   40POPC   C15 5319   5.599   0.081   6.249 -0.3402  0.9015  0.1944
   40POPC  H15A 5320   5.668   0.032   6.182 -1.6051 -0.4317 -0.1781
   40POPC  H15B 5321   5.565  -0.003   6.307  0.1658  0.0087 -0.7720
   40POPC  H15C 5322   5.656   0.150   6.309 -0.3400  0.0802  1.1544
   40POPC   C11 5323   5.622   0.391   6.233 -0.6323 -0.0695 -0.2917
   40POPC  H11A 5324   5.551   0.413   6.315  1.4594 -1.4334  2.0006
   40POPC  H11B 5325   5.653   0.481   6.175  0.6871 -0.3623 -0.0563
   40POPC     P 5326   5.892   0.360   6.268  0.1662 -0.4873 -0.1136
   40POPC   O13 5327   5.913   0.350   6.121 -0.3458  0.1239 -0.2090
   40POPC   O14 5328   5.983   0.281   6.351 -0.7451  0.2795  0.1276
   40POPC   O12 5329   5.736   0.334   6.297 -0.3944  0.7855  0.4150
   40POPC   O11 5330   5.928   0.508   6.305  0.4149  0.6552 -0.0944
   40POPC    C1 5331   5.865   0.566   6.422 -0.2025  0.0040  0.0518
   40POPC    HA 5332   5.755   0.551   6.426 -0.1893  0.0635  1.0798
   40POPC    HB 5333   5.871   0.677   6.412  0.0957  0.2397  2.2718
   40POPC    C2 5334   5.933   0.546   6.563  0.3538  0.8188 -0.5071
   40POPC    HS 5335   6.034   0.509   6.537 -0.3854 -0.9263 -1.0246
   40POPC   O21 5336   5.868   0.441   6.632 -0.3037 -0.0606 -0.0599
   40POPC   C21 5337   5.946   0.352   6.697  0.1421 -0.1898  0.1810
   40POPC   O22 5338   6.069   0.345   6.700  0.3252 -0.3580  0.4272
   40POPC   C22 5339   5.849   0.247   6.749 -1.0337 -0.2125  0.3774
   40POPC   H2R 5340   5.811   0.202   6.655 -0.0135 -0.8841  0.2737
   40POPC   H2S 5341   5.761   0.290   6.802 -0.5448 -0.8094  1.7186
   40POPC    C3 5342   5.935   0.678   6.639 -0.0864 -1.1096  0.6579
   40POPC    HX 5343   5.831   0.716   6.646 -0.5129 -1.6613 -1.6663
   40POPC    HY 5344   5.984   0.757   6.579 -0.2304 -0.7256  1.0458
   40POPC   O31 5345   5.995   0.664   6.762 -0.1029  0.1341 -0.2060
   40POPC   C31 5346   6.129   0.684   6.771 -0.0084 -0.4389  0.1163
   40POPC   O32 5347   6.204   0.691   6.677  0.0869  0.0820  0.2065
   40POPC   C32 5348   6.167   0.671   6.918 -0.2496 -0.3348  0.6149
   40POPC   H2X 5349   6.091   0.723   6.981 -0.5989  0.3668 -0.3588
   40POPC   H2Y 5350   6.255   0.735   6.943 -0.4846 -1.3043  4.6815
   40POPC   C23 5351   5.917   0.149   6.849  0.4600  0.9016 -0.5750
   40POPC   H3R 5352   6.011   0.112   6.803  0.2545 -1.1311  0.5237
   40POPC   H3S 5353   5.858   0.055   6.853  1.9911 -0.0593  2.0665
   40POPC   C24 5354   5.941   0.217   6.981 -0.0622  0.4577 -0.0498
   40POPC   H4R 5355   5.848   0.270   7.009  0.0780 -0.2415  1.9002
   40POPC   H4S 5356   6.021   0.295   6.979  1.1439 -0.7332  0.2991
   40POPC   C25 5357   5.972   0.114   7.085  0.1221  0.1228 -0.4524
   40POPC   H5R 5358   5.916   0.019   7.073 -0.6452  0.3336  1.1919
   40POPC   H5S 5359   5.941   0.159   7.181  1.8816  1.9860 -0.6868
   40POPC   C26 5360   6.119   0.083   7.096 -0.1763 -0.2136  0.4354
   40POPC   H6R 5361   6.131   0.046   7.200 -1.6929  0.8783  1.0329
   40POPC   H6S 5362   6.185   0.172   7.080 -1.0874  0.1812 -1.3655
   40POPC   C27 5363   6.159  -0.030   6.997 -0.1832  0.1065  0.1232
   40POPC   H7R 5364   6.196   0.029   6.910 -1.9217 -0.5101 -1.0680
   40POPC   H7S 5365   6.077  -0.097   6.965 -0.2694 -0.8485  2.1733
   40POPC   C28 5366   6.277  -0.116   7.033  0.0428 -0.1063  0.2938
   40POPC   H8R 5367   6.250  -0.179   7.120 -4.5045  1.6160  0.3955
   40POPC   H8S 5368   6.356  -0.054   7.080 -0.7889 -0.0918  1.7104
   40POPC   C29 5369   6.335  -0.199   6.914  0.0468 -0.6084 -0.3517
   40POPC   H91 5370   6.353  -0.150   6.817  0.1988  1.8507  0.8702
   40POPC  C210 5371   6.378  -0.330   6.919  0.3841  0.7772 -0.4109
   40POPC  H101 5372   6.419  -0.371   6.826  0.7497  0.9695 -0.3317
   40POPC  C211 5373   6.362  -0.431   7.024 -0.1928 -0.0568  0.3353
   40POPC  H11R 5374   6.289  -0.504   6.983  0.8822  0.1636 -2.1647
   40POPC  H11S 5375   6.319  -0.393   7.119 -1.1592 -0.8166  0.2167
   40POPC  C212 5376   6.504  -0.488   7.050  0.2407 -0.2859  0.3532
   40POPC  H12R 5377   6.572  -0.411   7.093  0.3278 -0.2882  0.2194
   40POPC  H12S 5378   6.539  -0.516   6.949 -0.9576  2.4843 -0.9360
   40POPC  C213 5379   6.490  -0.604   7.140 -0.6898 -0.5541  0.2661
   40POPC  H13R 5380   6.439  -0.693   7.097 -1.9088  0.4223 -0.3680
   40POPC  H13S 5381   6.427  -0.578   7.227 -2.2515 -0.6482 -0.8027
   40POPC  C214 5382   6.631  -0.642   7.189  0.1970 -0.5697  0.1305
   40POPC  H14R 5383   6.701  -0.558   7.209 -1.2779  0.2584  2.0976
   40POPC  H14S 5384   6.669  -0.704   7.104  0.7094 -1.7843  1.2079
   40POPC  C215 5385   6.626  -0.725   7.321  0.0116  0.4941 -0.2732
   40POPC  H15R 5386   6.715  -0.789   7.301 -2.0126 -2.0071 -1.9698
   40POPC  H15S 5387   6.534  -0.787   7.312 -0.4461  1.1692 -0.3295
   40POPC  C216 5388   6.613  -0.632   7.443 -0.4293  0.4528 -0.1075
   40POPC  H16R 5389   6.561  -0.536   7.421  1.3088  1.9175  1.8080
   40POPC  H16S 5390   6.718  -0.606   7.467 -0.4671  1.2050 -0.7045
   40POPC  C217 5391   6.539  -0.694   7.559  0.1407 -0.1073  0.4239
   40POPC  H17R 5392   6.435  -0.700   7.519 -0.6697 -1.8151  2.5457
   40POPC  H17S 5393   6.539  -0.627   7.648  0.7609 -1.1375  1.2175
   40POPC  C218 5394   6.584  -0.830   7.602  0.3501 -0.3289  0.2732
   40POPC  H18R 5395   6.672  -0.819   7.669 -0.1169  0.5983  0.7492
   40POPC  H18S 5396   6.594  -0.907   7.523  1.1031  0.3188 -0.2795
   40POPC  H18T 5397   6.507  -0.880   7.665  0.8126  0.1051  1.2043
   40POPC   C33 5398   6.196   0.529   6.947  0.3101 -0.3697  0.0332
   40POPC   H3X 5399   6.262   0.486   6.868  0.2166 -1.4916  0.5446
   40POPC   H3Y 5400   6.107   0.463   6.951 -1.1286  1.5263  0.6569
   40POPC   C34 5401   6.287   0.499   7.070  0.4435  0.4394 -0.6468
   40POPC   H4X 5402   6.355   0.583   7.094 -0.9971  1.5180 -0.2174
   40POPC   H4Y 5403   6.347   0.407   7.054  1.2969  0.4596  2.0164
   40POPC   C35 5404   6.196   0.477   7.197  0.3882  1.0759 -0.4946
   40POPC   H5X 5405   6.140   0.382   7.183  1.2808  0.4585  0.0226
   40POPC   H5Y 5406   6.116   0.554   7.191  0.3000  0.8590 -2.7513
   40POPC   C36 5407   6.269   0.499   7.331  0.6923  0.6445  0.1576
   40POPC   H6X 5408   6.326   0.594   7.323 -0.9664  1.9223  2.4502
   40POPC   H6Y 5409   6.351   0.426   7.351  0.6441 -0.7234 -3.8325
   40POPC   C37 5410   6.172   0.505   7.447  0.9271 -0.6586  1.0470
   40POPC   H7X 5411   6.083   0.569   7.434  0.2456 -1.2947  2.3649
   40POPC   H7Y 5412   6.217   0.534   7.544 -1.0734 -0.7713  2.0515
   40POPC   C38 5413   6.118   0.362   7.472  0.1288 -0.4168 -0.0326
   40POPC   H8X 5414   6.205   0.296   7.453 -0.8559 -1.4998 -0.9578
   40POPC   H8Y 5415   6.039   0.331   7.400 -0.7933 -0.8829  1.1338
   40POPC   C39 5416   6.072   0.326   7.614  0.5340  0.8957  0.0364
   40POPC   H9X 5417   6.003   0.406   7.649  0.9557  1.0120  0.6278
   40POPC   H9Y 5418   6.165   0.339   7.675  0.8117  0.1823 -0.2318
   40POPC  C310 5419   6.015   0.187   7.615 -0.3808  0.5661 -0.0105
   40POPC  H10X 5420   5.925   0.181   7.550  0.1135 -1.3293 -0.5781
   40POPC  H10Y 5421   5.975   0.163   7.716  1.9429  2.1631  1.4001
   40POPC  C311 5422   6.113   0.072   7.560  0.0632  0.0527  0.3045
   40POPC  H11X 5423   6.191   0.065   7.638 -0.7782 -0.7241  1.0989
   40POPC  H11Y 5424   6.167   0.106   7.470  0.2749  0.1495  0.4675
   40POPC  C312 5425   6.040  -0.060   7.525 -0.1334 -0.1090 -0.1857
   40POPC  H12X 5426   5.957  -0.049   7.452 -0.3409  1.0236  0.1927
   40POPC  H12Y 5427   6.001  -0.096   7.623 -1.8189 -0.2121 -0.8677
   40POPC  C313 5428   6.138  -0.164   7.465  0.5438 -0.1460  0.3465
   40POPC  H13X 5429   6.231  -0.161   7.526 -0.1145 -1.2367  1.4419
   40POPC  H13Y 5430   6.151  -0.138   7.358  0.9729 -0.8647  0.2122
   40POPC  C314 5431   6.085  -0.309   7.473  0.9406  0.9064  0.1860
   40POPC  H14X 5432   5.983  -0.295   7.431  1.0903  0.1622 -0.4361
   40POPC  H14Y 5433   6.078  -0.344   7.578 -0.8290 -0.0391 -0.2069
   40POPC  C315 5434   6.163  -0.408   7.386 -0.3307 -0.9008 -0.4602
   40POPC  H15X 5435   6.270  -0.417   7.415 -0.0447 -0.9558 -1.4767
   40POPC  H15Y 5436   6.160  -0.368   7.283 -2.1720  0.7573  0.1766
   40POPC  C316 5437   6.097  -0.552   7.395  0.2339  0.0170 -0.6507
   40POPC  H16X 5438   6.087  -0.584   7.501  0.7427 -2.7430 -1.3753
   40POPC  H16Y 5439   6.164  -0.624   7.343 -0.8228  0.6147 -2.9703
   40POPC  H16Z 5440   5.997  -0.556   7.347 -0.2611  0.6830  0.2805
   41CHL1    C3 5441   0.117   6.070  10.279 -0.3902 -0.7064  0.6565
   41CHL1    H3 5442   0.017   6.023  10.291 -1.2959  1.3800  1.8673
   41CHL1    O3 5443   0.163   6.095  10.410  0.1725 -0.3004 -0.4413
   41CHL1   H3' 5444   0.236   6.158  10.409 -2.2826  2.7880 -1.3984
   41CHL1    C4 5445   0.215   5.976  10.205 -0.2209  0.0888 -0.2230
   41CHL1   H4A 5446   0.319   6.010  10.224 -0.6322  0.5027  1.4278
   41CHL1   H4B 5447   0.219   5.884  10.267 -0.1979  0.9753  1.1284
   41CHL1    C5 5448   0.188   5.955  10.056 -0.5366 -1.1330  0.4139
   41CHL1    C6 5449   0.161   5.834  10.002  0.3175  0.3866  0.1463
   41CHL1    H6 5450   0.147   5.745  10.066  1.0271  0.3660  0.2821
   41CHL1    C7 5451   0.132   5.815   9.860 -0.0472 -0.6131 -0.0172
   41CHL1   H7A 5452   0.177   5.719   9.824 -0.3530 -0.9477  0.4752
   41CHL1   H7B 5453   0.021   5.811   9.854 -0.2257  2.4994 -0.1946
   41CHL1    C8 5454   0.185   5.936   9.772 -0.2575 -0.3088 -0.3890
   41CHL1    H8 5455   0.295   5.932   9.756 -0.1890 -1.0947  0.2337
   41CHL1   C14 5456   0.129   5.929   9.633 -0.7451  0.5570  0.4024
   41CHL1   H14 5457   0.019   5.944   9.633 -0.7687  0.4215  1.0002
   41CHL1   C15 5458   0.153   5.796   9.551 -0.1345  0.4368  0.0942
   41CHL1  H15A 5459   0.253   5.750   9.571  0.0981  0.0925 -1.7452
   41CHL1  H15B 5460   0.074   5.721   9.572  0.5799 -1.0093 -2.0552
   41CHL1   C16 5461   0.131   5.846   9.407  0.2630 -0.2527 -0.5394
   41CHL1  H16A 5462   0.230   5.823   9.363  0.9355 -0.9899  1.2501
   41CHL1  H16B 5463   0.040   5.800   9.362 -1.3533 -1.4095  3.4348
   41CHL1   C17 5464   0.118   5.999   9.408 -0.1337  0.3116 -0.3800
   41CHL1   H17 5465   0.007   6.005   9.417 -0.1314 -0.6582  0.5053
   41CHL1   C13 5466   0.181   6.040   9.545 -0.3764 -0.0624 -0.0812
   41CHL1   C18 5467   0.338   6.038   9.534  0.0062 -0.0005  0.2586
   41CHL1  H18A 5468   0.388   6.063   9.629  0.6096  1.6826 -0.4577
   41CHL1  H18B 5469   0.378   5.936   9.514  0.2599  0.0284  0.6229
   41CHL1  H18C 5470   0.373   6.111   9.458 -1.2512  0.3869  0.0210
   41CHL1   C12 5471   0.133   6.168   9.606  0.2661 -0.3340 -0.1440
   41CHL1  H12A 5472   0.181   6.249   9.548  2.3738 -1.2159  0.2732
   41CHL1  H12B 5473   0.023   6.181   9.602  0.5089  1.7918 -1.8675
   41CHL1   C11 5474   0.179   6.193   9.746  0.0709 -0.2678 -0.2731
   41CHL1  H11A 5475   0.287   6.216   9.760 -0.5451  1.9368  1.5593
   41CHL1  H11B 5476   0.129   6.282   9.791 -2.5608 -1.1739 -1.2392
   41CHL1    C9 5477   0.146   6.073   9.840 -0.0442 -0.0827  0.9582
   41CHL1    H9 5478   0.035   6.072   9.837 -0.0469 -1.1324 -1.2491
   41CHL1   C10 5479   0.194   6.089   9.979 -0.3605  0.5137 -0.6275
   41CHL1   C19 5480   0.348   6.129   9.984 -0.1690  0.0973  0.7445
   41CHL1  H19A 5481   0.392   6.144  10.085  2.6670  0.1029 -0.4159
   41CHL1  H19B 5482   0.409   6.055   9.928 -0.3813  1.3505 -1.2273
   41CHL1  H19C 5483   0.366   6.232   9.945 -0.1172  0.3101  1.3229
   41CHL1    C1 5484   0.098   6.197  10.055  0.2808 -0.6170 -0.0883
   41CHL1   H1A 5485   0.107   6.300  10.014  0.8889 -0.0055  1.4893
   41CHL1   H1B 5486  -0.007   6.161  10.063  0.6890 -1.6881  0.6553
   41CHL1    C2 5487   0.114   6.211  10.212 -0.0362  0.0617 -0.5545
   41CHL1   H2A 5488   0.031   6.270  10.256  0.0018  0.4413 -0.9824
   41CHL1   H2B 5489   0.206   6.270  10.232 -0.4713  0.1831  1.2398
   41CHL1   C20 5490   0.141   6.086   9.279 -0.5897  0.1060 -0.2267
   41CHL1   H20 5491   0.150   6.194   9.302  0.0643 -0.3980  2.1633
   41CHL1   C21 5492   0.014   6.076   9.184 -0.5329  0.1172  0.5817
   41CHL1  H21A 5493   0.025   6.113   9.080 -0.4430  0.4210  0.6946
   41CHL1  H21B 5494  -0.062   6.147   9.222 -0.6020  2.3240 -3.2012
   41CHL1  H21C 5495  -0.025   5.973   9.191 -0.7811  0.2655  1.5381
   41CHL1   C22 5496   0.266   6.034   9.208 -0.2971  0.2272  0.6817
   41CHL1  H22A 5497   0.348   6.013   9.280  0.2120 -1.5192 -0.3404
   41CHL1  H22B 5498   0.242   5.939   9.155  1.3832 -1.0257  2.0472
   41CHL1   C23 5499   0.316   6.128   9.103  1.1676  0.9466 -0.3181
   41CHL1  H23A 5500   0.241   6.129   9.021 -0.5269  0.3525  1.1581
   41CHL1  H23B 5501   0.325   6.230   9.146  0.5444  1.3914 -1.2045
   41CHL1   C24 5502   0.453   6.078   9.053 -0.3566 -0.5935 -0.2464
   41CHL1  H24A 5503   0.529   6.105   9.129 -1.0446 -0.5219  0.4300
   41CHL1  H24B 5504   0.458   5.968   9.035  1.4533 -0.4807 -0.5497
   41CHL1   C25 5505   0.506   6.147   8.926  0.2139  0.3722 -0.3375
   41CHL1   H25 5506   0.440   6.120   8.841  2.7197 -0.3276 -2.1761
   41CHL1   C26 5507   0.500   6.299   8.943  0.0173 -0.1492  0.6000
   41CHL1  H26A 5508   0.398   6.334   8.969 -0.6394 -0.2821 -1.6746
   41CHL1  H26B 5509   0.564   6.324   9.031 -0.0235  1.2316  0.2619
   41CHL1  H26C 5510   0.522   6.357   8.851 -1.6208 -0.9099 -0.2925
   41CHL1   C27 5511   0.649   6.102   8.892  0.7744  0.7182  0.3059
   41CHL1  H27A 5512   0.691   6.158   8.806  0.0909 -0.8556 -1.1164
   41CHL1  H27B 5513   0.718   6.103   8.979  0.9629  1.9618  0.1677
   41CHL1  H27C 5514   0.638   5.995   8.864  1.8550  1.2755 -2.5680
   42CHL1    C3 5515   0.083   4.076   9.827 -0.2637 -0.1319  0.0915
   42CHL1    H3 5516   0.192   4.069   9.844  0.0281 -1.3734 -1.9070
   42CHL1    O3 5517   0.014   4.118   9.941  0.0696 -0.0399 -0.4293
   42CHL1   H3' 5518  -0.039   4.197   9.930  0.6231  0.4745  0.4838
   42CHL1    C4 5519   0.053   4.189   9.732 -0.8583 -1.0122 -0.5254
   42CHL1   H4A 5520  -0.055   4.192   9.711 -0.4297 -1.4407 -3.0610
   42CHL1   H4B 5521   0.084   4.293   9.758  0.1054 -0.6658 -2.7990
   42CHL1    C5 5522   0.107   4.164   9.596  0.3653 -0.2049 -0.4197
   42CHL1    C6 5523   0.183   4.258   9.532  0.1426 -0.2932 -0.1232
   42CHL1    H6 5524   0.216   4.351   9.581  1.2535 -2.2077  3.0310
   42CHL1    C7 5525   0.249   4.239   9.400  0.1962  0.2750  0.0869
   42CHL1   H7A 5526   0.238   4.334   9.342  0.1639 -0.0713 -0.4834
   42CHL1   H7B 5527   0.359   4.232   9.416  0.5342 -0.0749 -2.0978
   42CHL1    C8 5528   0.179   4.125   9.323  0.3958  0.8753  0.2208
   42CHL1    H8 5529   0.081   4.167   9.291  0.2435  0.8513  0.6431
   42CHL1   C14 5530   0.272   4.084   9.202  0.1806  0.0555  0.0763
   42CHL1   H14 5531   0.370   4.054   9.245  0.8394 -0.2027 -1.5177
   42CHL1   C15 5532   0.306   4.194   9.100  0.4023 -0.1126  0.4817
   42CHL1  H15A 5533   0.216   4.250   9.068  0.0808 -0.4914  0.7196
   42CHL1  H15B 5534   0.377   4.271   9.138  0.7022  1.9150 -3.5812
   42CHL1   C16 5535   0.347   4.116   8.977 -0.1767 -0.0785 -0.0922
   42CHL1  H16A 5536   0.290   4.154   8.890 -0.6452 -0.8361 -0.1317
   42CHL1  H16B 5537   0.455   4.129   8.954 -0.1125  1.4221  0.8942
   42CHL1   C17 5538   0.312   3.966   9.004 -0.3435 -0.5169 -0.0057
   42CHL1   H17 5539   0.396   3.924   9.063 -1.2342  0.9696  2.4858
   42CHL1   C13 5540   0.217   3.970   9.122 -0.8784  1.2570  0.7294
   42CHL1   C18 5541   0.071   3.999   9.083  0.6951  0.5752 -0.6232
   42CHL1  H18A 5542   0.021   3.908   9.042 -2.2460  2.7138 -2.2036
   42CHL1  H18B 5543   0.007   4.022   9.171 -1.5629  0.9520 -2.2521
   42CHL1  H18C 5544   0.066   4.082   9.009 -1.7211  0.7974 -0.3188
   42CHL1   C12 5545   0.219   3.844   9.206  0.6608  0.3139 -0.3670
   42CHL1  H12A 5546   0.170   3.758   9.156 -3.5878  2.9708 -1.3472
   42CHL1  H12B 5547   0.324   3.820   9.231  1.0652  0.8616 -1.4901
   42CHL1   C11 5548   0.133   3.869   9.335 -0.3117  0.4431  0.1163
   42CHL1  H11A 5549   0.030   3.880   9.294 -0.2441 -1.7036 -0.7722
   42CHL1  H11B 5550   0.125   3.776   9.395 -0.9323  1.1754  1.2075
   42CHL1    C9 5551   0.169   4.002   9.418 -0.2316  0.0795  0.4170
   42CHL1    H9 5552   0.272   3.987   9.457  0.1231 -0.6012 -0.7385
   42CHL1   C10 5553   0.076   4.027   9.538  0.1475  0.3558  0.9288
   42CHL1   C19 5554  -0.075   4.029   9.498 -0.5706 -0.0958  0.2655
   42CHL1  H19A 5555  -0.151   4.048   9.577 -0.7749  0.2617 -0.0116
   42CHL1  H19B 5556  -0.091   4.094   9.409 -3.0507 -2.1629 -0.9473
   42CHL1  H19C 5557  -0.100   3.929   9.455  0.8022 -1.0007  1.4583
   42CHL1    C1 5558   0.101   3.914   9.644 -0.4336  0.8810  0.4089
   42CHL1   H1A 5559   0.070   3.819   9.596  0.6069 -0.4769  2.2820
   42CHL1   H1B 5560   0.212   3.915   9.658  0.2990 -0.5337 -3.9256
   42CHL1    C2 5561   0.030   3.937   9.777 -0.1752 -0.4005 -0.0339
   42CHL1   H2A 5562   0.042   3.862   9.859  2.5778  0.9460  0.9438
   42CHL1   H2B 5563  -0.078   3.944   9.754  0.1987  1.1207 -1.5245
   42CHL1   C20 5564   0.298   3.873   8.885  0.2634  0.2946 -0.6288
   42CHL1   H20 5565   0.281   3.772   8.929 -1.1869 -0.2980 -2.4192
   42CHL1   C21 5566   0.436   3.868   8.819 -0.4376  0.5971  0.1456
   42CHL1  H21A 5567   0.520   3.860   8.893  0.1758  0.0013 -0.6021
   42CHL1  H21B 5568   0.452   3.963   8.764  0.8252 -0.6823 -1.8442
   42CHL1  H21C 5569   0.455   3.783   8.750  0.2520 -1.5307  2.7510
   42CHL1   C22 5570   0.186   3.899   8.783  0.0655 -0.5239 -0.2953
   42CHL1  H22A 5571   0.100   3.949   8.833 -0.1018  1.0622 -2.0942
   42CHL1  H22B 5572   0.238   3.967   8.713  1.7477  0.9577  2.2216
   42CHL1   C23 5573   0.138   3.770   8.709 -0.4776 -0.4909  0.1020
   42CHL1  H23A 5574   0.222   3.711   8.669 -0.7118 -0.7700  0.0169
   42CHL1  H23B 5575   0.087   3.701   8.780 -1.8908  0.1425 -0.2531
   42CHL1   C24 5576   0.026   3.796   8.601  0.0801  0.3013 -0.2968
   42CHL1  H24A 5577  -0.016   3.696   8.577  0.2227  0.0538  0.4686
   42CHL1  H24B 5578  -0.058   3.862   8.629 -1.9143 -0.9910 -2.8402
   42CHL1   C25 5579   0.093   3.844   8.468  0.4099 -0.6100  0.8335
   42CHL1   H25 5580   0.147   3.940   8.479  1.8438 -1.4352  1.2733
   42CHL1   C26 5581   0.186   3.742   8.399  0.2297  0.9153 -0.2186
   42CHL1  H26A 5582   0.274   3.729   8.466 -0.5198  1.4599  0.9137
   42CHL1  H26B 5583   0.127   3.649   8.387 -0.7084  1.3716  0.7052
   42CHL1  H26C 5584   0.216   3.786   8.301 -0.6516  1.6246 -0.1848
   42CHL1   C27 5585  -0.022   3.855   8.369  0.1571  0.0449  0.7706
   42CHL1  H27A 5586  -0.083   3.762   8.371  1.3227 -0.7801 -0.4829
   42CHL1  H27B 5587  -0.096   3.933   8.395 -0.3908  0.0603 -0.7002
   42CHL1  H27C 5588   0.011   3.874   8.264  1.2922  0.6542  1.2206
   43CHL1    C3 5589   6.344   5.017  10.044  0.0172  0.1847 -0.3660
   43CHL1    H3 5590   6.452   5.044  10.038 -0.0645  0.1527 -2.7977
   43CHL1    O3 5591   6.280   5.027  10.166  0.5881 -0.2609 -0.5859
   43CHL1   H3' 5592   6.185   5.029  10.157  0.1142  0.0236  3.0248
   43CHL1    C4 5593   6.277   5.110   9.945 -0.3012  0.5057 -0.6664
   43CHL1   H4A 5594   6.168   5.093   9.948 -0.2589  0.3236 -0.0502
   43CHL1   H4B 5595   6.299   5.216   9.971  0.0652 -0.0040  1.2780
   43CHL1    C5 5596   6.311   5.096   9.796 -0.7795 -0.2449  0.0503
   43CHL1    C6 5597   6.350   5.203   9.716 -0.4651 -0.5523 -0.5839
   43CHL1    H6 5598   6.359   5.302   9.763 -2.8466 -0.5939  0.1088
   43CHL1    C7 5599   6.373   5.198   9.569  0.0794  0.0161 -0.0011
   43CHL1   H7A 5600   6.294   5.259   9.520  0.2002  1.2936  1.3278
   43CHL1   H7B 5601   6.474   5.233   9.538  0.4599  0.9984  2.1723
   43CHL1    C8 5602   6.348   5.056   9.511  0.4923  0.1777 -0.0050
   43CHL1    H8 5603   6.237   5.043   9.508  0.3901  0.1746  2.0842
   43CHL1   C14 5604   6.404   5.036   9.372  0.1087 -0.0047  0.3577
   43CHL1   H14 5605   6.515   5.049   9.378  0.2297 -1.0348  0.4797
   43CHL1   C15 5606   6.368   5.137   9.262 -0.2492  0.3974 -0.0377
   43CHL1  H15A 5607   6.261   5.164   9.254 -0.1430  2.6740  3.7694
   43CHL1  H15B 5608   6.430   5.229   9.278  0.4019  0.0104 -0.2776
   43CHL1   C16 5609   6.412   5.067   9.128  0.7460  0.9013 -0.2607
   43CHL1  H16A 5610   6.330   5.082   9.054 -1.1693 -1.7085  1.1463
   43CHL1  H16B 5611   6.504   5.121   9.100  1.9589 -1.0111 -0.1037
   43CHL1   C17 5612   6.445   4.925   9.170  0.6037  0.6386  1.1820
   43CHL1   H17 5613   6.555   4.921   9.184  0.9496  0.1632 -1.1526
   43CHL1   C13 5614   6.382   4.897   9.308  0.6549  0.0489 -0.2575
   43CHL1   C18 5615   6.228   4.859   9.294 -0.6979 -0.7800 -0.2934
   43CHL1  H18A 5616   6.227   4.753   9.261  0.0476 -1.2526  1.1312
   43CHL1  H18B 5617   6.174   4.877   9.389  0.5041 -1.2674  0.5073
   43CHL1  H18C 5618   6.171   4.915   9.217 -0.6496 -3.1862 -2.2091
   43CHL1   C12 5619   6.456   4.804   9.393 -0.1960  0.3464  0.1734
   43CHL1  H12A 5620   6.458   4.702   9.350 -0.1762  1.3064 -2.2196
   43CHL1  H12B 5621   6.560   4.841   9.402  0.2051 -0.9482  1.2671
   43CHL1   C11 5622   6.403   4.817   9.543  0.1314  0.0954  0.4460
   43CHL1  H11A 5623   6.301   4.773   9.549  0.8148 -1.7434 -0.3546
   43CHL1  H11B 5624   6.452   4.745   9.611 -0.7833  0.1644  1.1916
   43CHL1    C9 5625   6.396   4.953   9.611  0.4704 -0.6545 -0.7980
   43CHL1    H9 5626   6.502   4.971   9.638  0.5372 -3.4127  1.2099
   43CHL1   C10 5627   6.309   4.951   9.742  0.2277 -0.2444  0.1333
   43CHL1   C19 5628   6.160   4.912   9.712 -0.3580 -0.1164 -0.3467
   43CHL1  H19A 5629   6.093   4.977   9.651 -0.0825 -0.8956 -1.5138
   43CHL1  H19B 5630   6.152   4.810   9.668  0.2614 -0.7013  0.8484
   43CHL1  H19C 5631   6.114   4.898   9.812 -1.2174  1.4572 -0.4853
   43CHL1    C1 5632   6.387   4.861   9.847  0.0358  0.5188 -0.3724
   43CHL1   H1A 5633   6.398   4.755   9.815 -0.3125  0.5755 -0.6790
   43CHL1   H1B 5634   6.490   4.903   9.855  0.5161 -0.9526  3.8799
   43CHL1    C2 5635   6.348   4.876   9.991  0.6583  0.0217  0.1517
   43CHL1   H2A 5636   6.401   4.807  10.061 -1.2333 -1.7925 -0.1133
   43CHL1   H2B 5637   6.250   4.827  10.006  1.6620 -2.5833 -1.1737
   43CHL1   C20 5638   6.407   4.822   9.052 -0.4920 -0.2366 -0.6026
   43CHL1   H20 5639   6.298   4.829   9.033 -1.1088  1.6333  2.8345
   43CHL1   C21 5640   6.450   4.674   9.090 -0.7114 -0.1604 -0.0807
   43CHL1  H21A 5641   6.433   4.610   9.000 -2.4052 -0.5181  0.4726
   43CHL1  H21B 5642   6.393   4.628   9.173  1.6772 -2.3115  0.5094
   43CHL1  H21C 5643   6.558   4.675   9.116 -0.5551  1.2619 -0.7057
   43CHL1   C22 5644   6.481   4.872   8.924 -0.1902  0.1639 -0.5529
   43CHL1  H22A 5645   6.462   4.981   8.911 -1.1267 -0.0660 -1.2513
   43CHL1  H22B 5646   6.591   4.862   8.933 -0.4028 -1.0010  1.0214
   43CHL1   C23 5647   6.450   4.802   8.798  0.6259 -0.3904  0.0616
   43CHL1  H23A 5648   6.473   4.693   8.802 -2.1662 -1.0154  2.1066
   43CHL1  H23B 5649   6.341   4.798   8.777  1.1068  0.5303 -3.2058
   43CHL1   C24 5650   6.521   4.850   8.671  0.0099  0.4014 -0.2271
   43CHL1  H24A 5651   6.499   4.958   8.684  1.8546  0.4292  3.9415
   43CHL1  H24B 5652   6.630   4.836   8.687 -0.1844 -0.1692  0.6523
   43CHL1   C25 5653   6.460   4.785   8.547 -0.2945 -0.0209  0.0677
   43CHL1   H25 5654   6.351   4.804   8.555 -0.1768  0.7883 -0.1051
   43CHL1   C26 5655   6.511   4.849   8.415  0.0620  0.4936 -0.0538
   43CHL1  H26A 5656   6.446   4.818   8.330  2.4548  0.8900 -2.1675
   43CHL1  H26B 5657   6.499   4.959   8.427  2.2164  0.5911  1.8492
   43CHL1  H26C 5658   6.618   4.834   8.391  0.6040 -0.5600  2.6745
   43CHL1   C27 5659   6.477   4.631   8.537 -0.0002  0.3602  0.0105
   43CHL1  H27A 5660   6.451   4.591   8.437  2.2018 -0.7320 -0.1841
   43CHL1  H27B 5661   6.582   4.595   8.545  0.6849  0.8513 -4.2506
   43CHL1  H27C 5662   6.413   4.588   8.617 -0.3839  1.0590  0.0851
   44CHL1    C3 5663   1.715   0.864  10.197  0.1665  0.8973  0.6375
   44CHL1    H3 5664   1.627   0.896  10.137  0.9850 -1.7613 -2.2727
   44CHL1    O3 5665   1.703   0.884  10.334  0.4919  0.1516 -0.5123
   44CHL1   H3' 5666   1.783   0.842  10.366  0.9644  0.8918 -0.6831
   44CHL1    C4 5667   1.744   0.707  10.179 -0.8112 -0.0198  1.0418
   44CHL1   H4A 5668   1.819   0.682  10.256  2.5433 -1.6316 -2.4226
   44CHL1   H4B 5669   1.644   0.662  10.198 -0.7676 -0.6337 -0.0677
   44CHL1    C5 5670   1.784   0.670  10.038 -0.1825  0.1641  0.4517
   44CHL1    C6 5671   1.711   0.574   9.975  0.1010 -0.1512  0.6291
   44CHL1    H6 5672   1.632   0.520  10.030  1.5796 -1.1139  1.8854
   44CHL1    C7 5673   1.728   0.534   9.835 -0.1789 -0.7810  0.8461
   44CHL1   H7A 5674   1.721   0.423   9.835  2.5020 -1.0201  0.9321
   44CHL1   H7B 5675   1.638   0.581   9.789 -1.2724 -3.0736  0.5052
   44CHL1    C8 5676   1.862   0.581   9.772 -0.3783  0.1466 -1.0953
   44CHL1    H8 5677   1.945   0.523   9.817 -1.6202 -1.5295 -0.8924
   44CHL1   C14 5678   1.863   0.575   9.620  0.0976  0.2202 -0.6229
   44CHL1   H14 5679   1.769   0.625   9.587 -0.6385 -2.3536 -2.7676
   44CHL1   C15 5680   1.842   0.433   9.554  0.2239 -0.1645 -0.2675
   44CHL1  H15A 5681   1.908   0.358   9.603 -1.8154 -0.4610  2.2889
   44CHL1  H15B 5682   1.735   0.402   9.553 -0.0645  0.7081  0.9504
   44CHL1   C16 5683   1.881   0.455   9.404  0.2392 -0.2742 -0.2112
   44CHL1  H16A 5684   1.960   0.383   9.375  0.8327  0.6226 -0.8593
   44CHL1  H16B 5685   1.789   0.451   9.341 -1.0805  4.3782  0.9774
   44CHL1   C17 5686   1.941   0.595   9.398 -0.0811 -0.2034 -0.0383
   44CHL1   H17 5687   1.861   0.664   9.363 -0.2968 -0.1789  0.4845
   44CHL1   C13 5688   1.973   0.638   9.540 -0.4269 -0.0766 -0.5457
   44CHL1   C18 5689   2.111   0.572   9.584  0.3078 -0.5596  0.0654
   44CHL1  H18A 5690   2.135   0.472   9.541  1.7625  0.1390 -0.8501
   44CHL1  H18B 5691   2.196   0.636   9.553 -0.1780  0.5870  1.0137
   44CHL1  H18C 5692   2.119   0.560   9.694 -1.5527  2.5603  0.6708
   44CHL1   C12 5693   1.982   0.788   9.577  0.2889  0.6408  0.2620
   44CHL1  H12A 5694   2.074   0.823   9.525  0.9095 -3.1851 -1.5664
   44CHL1  H12B 5695   1.888   0.830   9.533 -0.8645  0.1653  2.1304
   44CHL1   C11 5696   1.991   0.813   9.732 -0.6896  0.0250  0.2355
   44CHL1  H11A 5697   2.092   0.780   9.766 -0.5799 -0.9553 -0.9541
   44CHL1  H11B 5698   1.983   0.922   9.750  1.2527  0.2306  0.0817
   44CHL1    C9 5699   1.882   0.732   9.820  0.2009  0.1338 -0.0393
   44CHL1    H9 5700   1.784   0.779   9.792 -1.0342 -1.7170  1.0214
   44CHL1   C10 5701   1.884   0.758   9.971 -0.0410 -0.1833 -0.5919
   44CHL1   C19 5702   2.013   0.708  10.028 -0.2384  0.0319  0.2865
   44CHL1  H19A 5703   2.024   0.725  10.138 -1.5253 -0.0094  0.4397
   44CHL1  H19B 5704   2.043   0.606   9.997  1.7126  0.3845  0.8700
   44CHL1  H19C 5705   2.101   0.767   9.994 -0.7523 -0.2367 -1.5709
   44CHL1    C1 5706   1.858   0.912   9.993 -0.8303  0.4723 -0.0301
   44CHL1   H1A 5707   1.951   0.967   9.966  0.7234 -2.0028 -0.0970
   44CHL1   H1B 5708   1.766   0.934   9.935 -0.2687  0.4417 -0.9673
   44CHL1    C2 5709   1.821   0.960  10.142 -1.1845  0.9082 -0.4739
   44CHL1   H2A 5710   1.796   1.067  10.154 -0.4783  0.9500  0.7026
   44CHL1   H2B 5711   1.907   0.935  10.208 -3.6158 -1.6912  2.0326
   44CHL1   C20 5712   2.049   0.603   9.291 -0.5539 -0.4236 -0.3382
   44CHL1   H20 5713   2.140   0.549   9.325  1.2671  2.6018 -0.0442
   44CHL1   C21 5714   2.086   0.753   9.257  0.0593  0.0298  0.9304
   44CHL1  H21A 5715   2.136   0.802   9.344 -1.3268  2.9419  0.2005
   44CHL1  H21B 5716   2.006   0.830   9.257  0.8617  0.8864  0.7323
   44CHL1  H21C 5717   2.161   0.772   9.177 -2.0088  0.8351 -0.9273
   44CHL1   C22 5718   2.003   0.539   9.157 -0.4049  0.4089 -0.8454
   44CHL1  H22A 5719   1.973   0.435   9.177 -1.9837  1.0348  0.2280
   44CHL1  H22B 5720   1.906   0.574   9.117 -1.1518 -1.6336 -0.9302
   44CHL1   C23 5721   2.111   0.556   9.048  0.5624 -0.2258  0.0528
   44CHL1  H23A 5722   2.132   0.661   9.019  4.2352 -0.3551  1.6534
   44CHL1  H23B 5723   2.209   0.526   9.092  2.1270  1.6313 -1.9537
   44CHL1   C24 5724   2.078   0.472   8.927  0.2938  0.3265 -0.5211
   44CHL1  H24A 5725   2.077   0.363   8.948  1.8420  0.2027 -0.9953
   44CHL1  H24B 5726   1.977   0.500   8.890 -0.8148 -1.7825  0.6904
   44CHL1   C25 5727   2.185   0.498   8.817  0.0260 -0.3178 -0.1167
   44CHL1   H25 5728   2.277   0.499   8.880 -2.8616  2.2741  4.6734
   44CHL1   C26 5729   2.175   0.396   8.703  0.1935  0.3990 -0.7753
   44CHL1  H26A 5730   2.165   0.292   8.740 -1.2677  0.4981 -0.8037
   44CHL1  H26B 5731   2.086   0.420   8.640 -0.3795 -0.5937 -0.3686
   44CHL1  H26C 5732   2.265   0.392   8.638  0.7034 -1.2230 -0.0058
   44CHL1   C27 5733   2.180   0.638   8.750  0.1744  0.2986 -0.8597
   44CHL1  H27A 5734   2.274   0.647   8.691 -0.3928 -2.3357 -2.3476
   44CHL1  H27B 5735   2.096   0.642   8.678 -1.3476 -1.4631  0.7019
   44CHL1  H27C 5736   2.173   0.720   8.824  0.7799 -0.3363 -0.0669
   45CHL1    C3 5737   4.611   0.939  10.310  0.1326 -0.1723 -0.6902
   45CHL1    H3 5738   4.546   0.849  10.320  2.5830 -2.1043 -1.0287
   45CHL1    O3 5739   4.675   0.970  10.432 -0.1644  0.2397 -0.0804
   45CHL1   H3' 5740   4.741   1.036  10.412  0.4441  0.0279  1.1356
   45CHL1    C4 5741   4.724   0.898  10.208  0.4463 -0.2455  0.5233
   45CHL1   H4A 5742   4.800   0.979  10.201  0.8668 -0.3802  2.9159
   45CHL1   H4B 5743   4.783   0.813  10.248  0.5578 -0.4972 -0.1513
   45CHL1    C5 5744   4.670   0.879  10.069 -0.1515 -0.6090  0.5488
   45CHL1    C6 5745   4.684   0.764  10.005 -0.4263 -0.5597 -0.5810
   45CHL1    H6 5746   4.737   0.684  10.059 -0.9290  1.0796  2.5653
   45CHL1    C7 5747   4.637   0.733   9.865 -0.2688  0.4391  0.4096
   45CHL1   H7A 5748   4.722   0.684   9.814  1.3713  1.2192  2.2750
   45CHL1   H7B 5749   4.559   0.653   9.862  0.2253 -0.0289 -0.4994
   45CHL1    C8 5750   4.583   0.856   9.783  0.2323 -0.1531 -0.4969
   45CHL1    H8 5751   4.504   0.808   9.721  1.4131 -1.3472 -1.1327
   45CHL1   C14 5752   4.680   0.913   9.678  0.3291 -1.2312 -0.2373
   45CHL1   H14 5753   4.773   0.942   9.732 -1.5566  3.0810  1.1214
   45CHL1   C15 5754   4.706   0.812   9.567  0.3256  0.6047  0.1643
   45CHL1  H15A 5755   4.814   0.805   9.542 -0.3223 -2.1528 -2.4203
   45CHL1  H15B 5756   4.663   0.714   9.597 -3.3651  1.1159 -2.5856
   45CHL1   C16 5757   4.632   0.859   9.436 -0.3260 -0.3275  0.1351
   45CHL1  H16A 5758   4.709   0.905   9.370 -2.0224  0.8904 -1.1079
   45CHL1  H16B 5759   4.568   0.786   9.381 -0.5593  1.1637 -1.6817
   45CHL1   C17 5760   4.540   0.972   9.489  0.5681 -0.0638  0.3716
   45CHL1   H17 5761   4.456   0.921   9.540 -0.5169 -0.4602 -1.7146
   45CHL1   C13 5762   4.623   1.040   9.607 -0.4271  0.0939  0.0133
   45CHL1   C18 5763   4.746   1.105   9.547  0.3270 -0.0881 -0.5965
   45CHL1  H18A 5764   4.813   1.025   9.508 -0.2060 -1.2342  0.7708
   45CHL1  H18B 5765   4.741   1.185   9.470  2.6178  0.8842  0.1474
   45CHL1  H18C 5766   4.797   1.157   9.631 -2.6856  2.7559 -0.3433
   45CHL1   C12 5767   4.537   1.140   9.688  0.3006 -0.3373  0.8406
   45CHL1  H12A 5768   4.607   1.210   9.739  1.1835 -1.2480  0.9124
   45CHL1  H12B 5769   4.469   1.196   9.620 -1.3307 -2.6490  0.4530
   45CHL1   C11 5770   4.447   1.072   9.793 -0.1875  0.0675  0.5755
   45CHL1  H11A 5771   4.393   1.146   9.856 -0.1807  2.5867 -2.1177
   45CHL1  H11B 5772   4.371   1.020   9.732 -1.1826 -0.0230  1.8458
   45CHL1    C9 5773   4.512   0.960   9.878  0.0202  0.3256 -0.2336
   45CHL1    H9 5774   4.424   0.904   9.915 -0.6203  3.3217  3.3207
   45CHL1   C10 5775   4.582   0.998  10.011  0.1244 -0.1622 -0.4230
   45CHL1   C19 5776   4.670   1.117   9.985  0.3351 -0.1822  0.0745
   45CHL1  H19A 5777   4.709   1.169  10.075  0.9942 -0.5004 -0.0247
   45CHL1  H19B 5778   4.761   1.094   9.926  1.2008  1.2886  0.7824
   45CHL1  H19C 5779   4.609   1.194   9.933  0.3031 -1.6519 -2.2140
   45CHL1    C1 5780   4.477   1.040  10.115  0.5226 -0.4764  0.3258
   45CHL1   H1A 5781   4.427   1.133  10.083 -0.1326 -1.5085 -1.9234
   45CHL1   H1B 5782   4.386   0.976  10.118  0.6597 -1.2005 -4.1062
   45CHL1    C2 5783   4.529   1.063  10.259  0.3388  0.2555 -0.1390
   45CHL1   H2A 5784   4.443   1.072  10.328  0.3649 -1.7146  0.2255
   45CHL1   H2B 5785   4.590   1.156  10.265  2.3008 -1.0058  0.6856
   45CHL1   C20 5786   4.485   1.067   9.380 -0.1896  0.1427  0.4126
   45CHL1   H20 5787   4.509   1.170   9.416  0.0907  0.1674  0.1673
   45CHL1   C21 5788   4.336   1.039   9.370 -0.7469  0.0649  0.8170
   45CHL1  H21A 5789   4.271   1.051   9.459 -1.2892 -1.8372  0.7277
   45CHL1  H21B 5790   4.319   0.931   9.352  0.0727 -0.4688  2.8985
   45CHL1  H21C 5791   4.298   1.089   9.278  2.4866  0.0575 -0.6950
   45CHL1   C22 5792   4.553   1.068   9.242  0.1436  0.1264  1.1015
   45CHL1  H22A 5793   4.659   1.097   9.254  0.6019 -2.1800  3.6467
   45CHL1  H22B 5794   4.561   0.966   9.198 -0.3793  0.4746  0.1641
   45CHL1   C23 5795   4.500   1.166   9.131 -0.0406 -0.5312 -0.2345
   45CHL1  H23A 5796   4.393   1.143   9.113 -0.4821 -1.0927  2.5316
   45CHL1  H23B 5797   4.516   1.269   9.168  0.5545 -0.1882 -1.4038
   45CHL1   C24 5798   4.586   1.151   9.004 -0.4118  0.0574 -0.4637
   45CHL1  H24A 5799   4.695   1.155   9.028 -0.2912  1.6350 -1.1283
   45CHL1  H24B 5800   4.573   1.048   8.966  0.7276  0.4336 -1.9770
   45CHL1   C25 5801   4.554   1.260   8.903  0.5137 -0.2437 -1.1579
   45CHL1   H25 5802   4.621   1.251   8.815  2.0997 -0.8299  0.0612
   45CHL1   C26 5803   4.404   1.261   8.863 -0.8450  0.0645  0.2658
   45CHL1  H26A 5804   4.368   1.171   8.810 -0.8092  0.4253 -0.3732
   45CHL1  H26B 5805   4.339   1.288   8.949  0.6155 -1.1736  1.8338
   45CHL1  H26C 5806   4.393   1.343   8.788 -2.5780 -0.7031 -0.3676
   45CHL1   C27 5807   4.601   1.395   8.969 -0.0379 -0.0352 -0.5678
   45CHL1  H27A 5808   4.689   1.377   9.034  0.4914 -0.1069 -1.2975
   45CHL1  H27B 5809   4.629   1.464   8.888  1.1433 -0.8941 -0.9263
   45CHL1  H27C 5810   4.516   1.439   9.026  0.0627 -2.0166  1.2391
   46CHL1    C3 5811   3.977   1.132  10.513  0.1662  0.2585  0.0338
   46CHL1    H3 5812   3.879   1.080  10.499  0.7217 -0.5057 -1.1452
   46CHL1    O3 5813   4.013   1.138  10.647  0.3165 -0.2699  0.1388
   46CHL1   H3' 5814   4.109   1.137  10.646  0.3503 -1.0708  1.3319
   46CHL1    C4 5815   4.075   1.043  10.433  0.1809 -0.1443 -0.3065
   46CHL1   H4A 5816   4.176   1.085  10.455 -0.3754  0.9853  0.1561
   46CHL1   H4B 5817   4.076   0.943  10.481  2.7313 -0.3750 -0.6754
   46CHL1    C5 5818   4.047   1.042  10.283 -0.8912 -0.2503 -0.6162
   46CHL1    C6 5819   4.036   0.932  10.210 -0.1169 -1.1620 -0.2634
   46CHL1    H6 5820   4.056   0.833  10.256 -0.5273  0.3538  3.5318
   46CHL1    C7 5821   4.010   0.932  10.064 -0.1094 -0.1446  1.2815
   46CHL1   H7A 5822   4.075   0.863  10.007  0.6817  0.8424  0.9613
   46CHL1   H7B 5823   3.904   0.900  10.055  0.0209 -0.5997  1.3342
   46CHL1    C8 5824   4.026   1.075   9.993 -0.0655 -0.3484 -0.4123
   46CHL1    H8 5825   4.131   1.106   9.978 -0.2001  0.8415  0.8778
   46CHL1   C14 5826   3.968   1.064   9.857  0.4656  0.1826  0.3825
   46CHL1   H14 5827   3.861   1.041   9.873  0.3306  0.1067 -0.5888
   46CHL1   C15 5828   4.031   0.964   9.762 -1.4482  0.2165 -0.2151
   46CHL1  H15A 5829   4.139   0.976   9.786 -1.7827  1.6454  0.6364
   46CHL1  H15B 5830   3.992   0.863   9.789 -0.9431 -0.1776 -0.9103
   46CHL1   C16 5831   3.985   1.005   9.624 -0.1186 -1.0988  0.3327
   46CHL1  H16A 5832   4.065   1.025   9.549 -0.6765 -0.3060 -0.0583
   46CHL1  H16B 5833   3.920   0.923   9.588  2.5373 -2.5567 -1.5274
   46CHL1   C17 5834   3.911   1.139   9.644 -0.0755 -0.3211  0.0046
   46CHL1   H17 5835   3.803   1.122   9.659 -0.2342  0.8278  0.2383
   46CHL1   C13 5836   3.965   1.188   9.782  1.0590 -0.4811  0.9408
   46CHL1   C18 5837   4.104   1.244   9.755  0.7339 -0.1005 -0.3494
   46CHL1  H18A 5838   4.095   1.329   9.684  0.4914  1.6443  1.6896
   46CHL1  H18B 5839   4.148   1.286   9.847  0.9156 -0.0908 -0.4409
   46CHL1  H18C 5840   4.183   1.175   9.718  0.2543 -2.0221  1.9380
   46CHL1   C12 5841   3.879   1.286   9.860  0.9028 -0.7424 -0.0455
   46CHL1  H12A 5842   3.885   1.388   9.819  1.1331  0.5229  2.8942
   46CHL1  H12B 5843   3.774   1.250   9.868  0.5416  0.6597  2.3726
   46CHL1   C11 5844   3.925   1.311  10.008  0.3639 -0.0861  0.4415
   46CHL1  H11A 5845   4.002   1.391  10.003 -0.3630  0.5707 -0.4217
   46CHL1  H11B 5846   3.834   1.351  10.056 -1.0958 -0.3336 -1.9527
   46CHL1    C9 5847   3.952   1.181  10.083 -0.3407  0.2116  0.4381
   46CHL1    H9 5848   3.851   1.136  10.092  0.8163 -2.6740  0.3682
   46CHL1   C10 5849   4.019   1.188  10.228 -0.1158  0.2450 -0.2569
   46CHL1   C19 5850   4.153   1.271  10.212  0.0471  0.7183 -0.1732
   46CHL1  H19A 5851   4.221   1.225  10.137  1.0429  1.6901  0.1085
   46CHL1  H19B 5852   4.135   1.378  10.191 -1.1150  0.5049 -0.3810
   46CHL1  H19C 5853   4.203   1.268  10.311 -0.6730 -0.0942  0.1917
   46CHL1    C1 5854   3.930   1.275  10.323  0.0179  0.1719  0.5612
   46CHL1   H1A 5855   3.932   1.378  10.280 -0.2109 -0.5649 -1.3309
   46CHL1   H1B 5856   3.823   1.245  10.312 -0.5801  1.9379  1.2884
   46CHL1    C2 5857   3.972   1.277  10.464 -0.3247  0.2444 -0.5140
   46CHL1   H2A 5858   3.895   1.331  10.523  0.5720  0.9736  0.0187
   46CHL1   H2B 5859   4.071   1.326  10.473 -0.1562 -0.0076 -0.9549
   46CHL1   C20 5860   3.916   1.222   9.509 -0.1395 -0.1270 -0.4683
   46CHL1   H20 5861   4.023   1.244   9.488  0.2875  0.5606  2.1069
   46CHL1   C21 5862   3.839   1.353   9.521  0.7205  0.3434 -0.0542
   46CHL1  H21A 5863   3.850   1.415   9.430  2.4523  1.6383  0.9681
   46CHL1  H21B 5864   3.878   1.417   9.603 -0.8956  1.4875 -0.1460
   46CHL1  H21C 5865   3.731   1.329   9.533  1.0007 -0.6142  0.6641
   46CHL1   C22 5866   3.863   1.137   9.384 -0.1192 -0.6828  0.3212
   46CHL1  H22A 5867   3.922   1.043   9.381 -0.6384 -1.0812  1.6990
   46CHL1  H22B 5868   3.757   1.112   9.403 -0.2232 -0.2649  0.3045
   46CHL1   C23 5869   3.883   1.214   9.244  0.7365 -0.4524  0.4871
   46CHL1  H23A 5870   3.805   1.293   9.247 -1.3725 -2.3640 -0.6459
   46CHL1  H23B 5871   3.985   1.257   9.246  1.5800 -2.2808 -0.5695
   46CHL1   C24 5872   3.849   1.136   9.115  0.0768  0.2917 -0.3276
   46CHL1  H24A 5873   3.894   1.035   9.128  0.9510  0.1789 -3.3369
   46CHL1  H24B 5874   3.740   1.119   9.112 -0.0615  0.7749  1.3485
   46CHL1   C25 5875   3.900   1.203   8.993  0.4919 -0.1144 -0.2082
   46CHL1   H25 5876   3.998   1.254   9.005 -0.1817  1.2576 -0.2893
   46CHL1   C26 5877   3.899   1.097   8.882  0.3619  0.7250  0.4256
   46CHL1  H26A 5878   3.801   1.044   8.877  1.5317 -1.5940  0.8475
   46CHL1  H26B 5879   3.926   1.136   8.781  1.1870 -2.0956 -0.5414
   46CHL1  H26C 5880   3.976   1.024   8.914  0.0897  0.5184  0.6039
   46CHL1   C27 5881   3.808   1.323   8.953  0.1493  0.8650  0.3869
   46CHL1  H27A 5882   3.816   1.405   9.028 -0.4420 -0.2416  1.7051
   46CHL1  H27B 5883   3.831   1.361   8.851 -1.0050 -0.5399 -0.4341
   46CHL1  H27C 5884   3.700   1.297   8.949  0.2146  0.4776  0.9943
   47CHL1    C3 5885   6.345   3.987  10.276  0.3657 -0.2577  0.0169
   47CHL1    H3 5886   6.425   3.915  10.250  0.4038  0.3231 -1.5378
   47CHL1    O3 5887   6.355   4.031  10.410  0.1728 -0.1556  0.1353
   47CHL1   H3' 5888   6.431   4.090  10.418  0.6533 -1.0402  3.8224
   47CHL1    C4 5889   6.340   4.108  10.182  0.0127 -0.2519  0.7354
   47CHL1   H4A 5890   6.250   4.166  10.211 -0.5364 -0.8830  0.3347
   47CHL1   H4B 5891   6.431   4.169  10.198 -0.5821  0.3794  1.8480
   47CHL1    C5 5892   6.324   4.059  10.042 -0.2431  0.3802  0.4671
   47CHL1    C6 5893   6.417   4.099   9.952  0.3527  0.2696  0.0797
   47CHL1    H6 5894   6.502   4.157   9.990  1.0938 -1.3707  1.0373
   47CHL1    C7 5895   6.416   4.063   9.808 -0.1763  0.4637 -0.5651
   47CHL1   H7A 5896   6.436   4.145   9.736  0.4888 -0.1489 -1.0958
   47CHL1   H7B 5897   6.495   3.987   9.792  1.4784  1.9213  0.3458
   47CHL1    C8 5898   6.277   4.014   9.767 -0.3383  0.0318  0.3429
   47CHL1    H8 5899   6.212   4.105   9.775 -0.0871  0.1339  1.4583
   47CHL1   C14 5900   6.273   3.961   9.626 -0.3567 -0.3825 -0.1266
   47CHL1   H14 5901   6.343   3.875   9.621 -2.1342 -1.8835 -0.7140
   47CHL1   C15 5902   6.320   4.065   9.515 -0.0200  0.7119 -0.3049
   47CHL1  H15A 5903   6.271   4.161   9.541  0.7418  0.5861  1.8694
   47CHL1  H15B 5904   6.430   4.072   9.506  0.4754 -2.1290  1.7621
   47CHL1   C16 5905   6.260   3.993   9.388 -0.4654 -0.0418 -0.9565
   47CHL1  H16A 5906   6.211   4.071   9.326  0.1830  1.9033  0.9015
   47CHL1  H16B 5907   6.349   3.950   9.337 -1.3724 -2.3331 -0.7590
   47CHL1   C17 5908   6.157   3.889   9.426 -0.1227 -0.1173 -0.1111
   47CHL1   H17 5909   6.205   3.789   9.418  0.4109 -0.0948  2.1705
   47CHL1   C13 5910   6.137   3.913   9.574  0.5471  0.7294  0.0165
   47CHL1   C18 5911   6.020   4.014   9.606  0.2113 -0.0607  0.7948
   47CHL1  H18A 5912   6.038   4.110   9.554  1.8344 -0.0406  1.3360
   47CHL1  H18B 5913   5.921   3.977   9.571  0.4667 -0.2607  0.2796
   47CHL1  H18C 5914   6.002   4.048   9.711  0.8192 -0.0694  0.9009
   47CHL1   C12 5915   6.107   3.790   9.657 -0.0645 -0.0040  0.0346
   47CHL1  H12A 5916   6.002   3.762   9.632 -0.7596  1.5867  1.0299
   47CHL1  H12B 5917   6.175   3.709   9.623 -0.6283 -1.3639  2.0080
   47CHL1   C11 5918   6.108   3.815   9.809  0.3187  0.0085  0.2701
   47CHL1  H11A 5919   6.018   3.875   9.831  0.7157 -0.2707  2.9985
   47CHL1  H11B 5920   6.098   3.721   9.868  0.7400  0.8771  1.7567
   47CHL1    C9 5921   6.227   3.906   9.865 -0.0566 -0.4557  0.2712
   47CHL1    H9 5922   6.311   3.833   9.870  0.0867 -0.2605  0.8467
   47CHL1   C10 5923   6.204   3.967  10.005  0.2597 -0.6537  0.3572
   47CHL1   C19 5924   6.076   4.059  10.013  0.2040 -0.0408  0.8025
   47CHL1  H19A 5925   6.089   4.155   9.959  2.0921  0.1540  1.5288
   47CHL1  H19B 5926   5.991   3.999   9.973  1.2540 -0.0228 -1.6237
   47CHL1  H19C 5927   6.060   4.079  10.121  1.4401 -0.6797  1.1298
   47CHL1    C1 5928   6.181   3.860  10.122  0.0261  0.8144  0.5441
   47CHL1   H1A 5929   6.077   3.823  10.111  1.1417 -2.1301 -1.3200
   47CHL1   H1B 5930   6.249   3.774  10.107 -1.1137  0.2307 -1.6671
   47CHL1    C2 5931   6.207   3.916  10.260 -0.1852 -1.1027 -0.2800
   47CHL1   H2A 5932   6.220   3.826  10.324  1.9221 -1.6023 -1.2945
   47CHL1   H2B 5933   6.122   3.976  10.298 -0.9500 -2.4405  0.1624
   47CHL1   C20 5934   6.043   3.894   9.325  0.3021 -0.3881 -0.1279
   47CHL1   H20 5935   5.988   3.990   9.319 -1.0837 -1.2212 -1.7319
   47CHL1   C21 5936   5.933   3.783   9.360 -0.5179 -0.6106  0.2448
   47CHL1  H21A 5937   5.891   3.814   9.459  0.9410  0.8103  0.4589
   47CHL1  H21B 5938   5.970   3.680   9.380 -0.6161 -1.2645 -2.5533
   47CHL1  H21C 5939   5.852   3.763   9.287  0.8539 -0.8669 -1.2618
   47CHL1   C22 5940   6.091   3.873   9.182 -0.3331  0.3191 -0.6317
   47CHL1  H22A 5941   6.190   3.921   9.164 -0.5211  1.9042  1.9736
   47CHL1  H22B 5942   6.087   3.767   9.151 -0.6874 -0.1914  1.0701
   47CHL1   C23 5943   5.987   3.936   9.093 -0.3695 -0.0560  0.3143
   47CHL1  H23A 5944   5.887   3.890   9.111  0.2555 -0.7831  2.0810
   47CHL1  H23B 5945   5.977   4.046   9.109 -0.0021 -0.0461  0.4814
   47CHL1   C24 5946   6.022   3.912   8.941 -0.1010  0.0702  0.6042
   47CHL1  H24A 5947   6.124   3.951   8.920  0.2330 -2.3185 -3.0049
   47CHL1  H24B 5948   6.027   3.802   8.926  0.0838  0.4555 -3.0229
   47CHL1   C25 5949   5.916   3.957   8.839  0.4040 -0.1711 -0.2557
   47CHL1   H25 5950   5.934   4.066   8.832  0.8891 -0.2978 -1.1044
   47CHL1   C26 5951   5.951   3.896   8.697 -0.1206  0.1724 -0.5188
   47CHL1  H26A 5952   6.058   3.918   8.677 -0.2209 -1.2979 -3.0225
   47CHL1  H26B 5953   5.892   3.963   8.632 -1.6223  2.3837  2.8044
   47CHL1  H26C 5954   5.913   3.792   8.693 -3.2961  1.2194 -0.4653
   47CHL1   C27 5955   5.774   3.919   8.882  0.4195 -0.4376 -0.4093
   47CHL1  H27A 5956   5.760   3.812   8.907 -1.5396 -0.3453 -0.9599
   47CHL1  H27B 5957   5.735   3.975   8.969 -0.0646 -0.1851 -0.7835
   47CHL1  H27C 5958   5.701   3.941   8.801 -2.3938 -0.6691  1.9259
   48CHL1    C3 5959   5.567   4.184  10.171 -0.6625 -0.0333  0.2810
   48CHL1    H3 5960   5.463   4.149  10.152  0.0594 -2.0187 -0.2552
   48CHL1    O3 5961   5.587   4.188  10.309  0.5366 -0.7941  0.1241
   48CHL1   H3' 5962   5.505   4.154  10.346  0.6813  0.2425  1.4735
   48CHL1    C4 5963   5.666   4.087  10.101 -0.7329  0.8179 -0.2993
   48CHL1   H4A 5964   5.768   4.119  10.132  0.0473 -1.8583  0.1830
   48CHL1   H4B 5965   5.654   3.983  10.140 -1.5889  1.0430  0.0663
   48CHL1    C5 5966   5.655   4.077   9.953  1.0070  0.3714  0.3995
   48CHL1    C6 5967   5.641   3.960   9.894  0.6047 -0.0772  0.2027
   48CHL1    H6 5968   5.624   3.872   9.957 -0.7272  1.7013  2.4660
   48CHL1    C7 5969   5.633   3.944   9.744  0.0696 -0.0069  0.4716
   48CHL1   H7A 5970   5.714   3.875   9.711 -0.2500  0.0632 -0.5004
   48CHL1   H7B 5971   5.535   3.900   9.714 -0.4505  1.0396  0.5876
   48CHL1    C8 5972   5.646   4.077   9.665 -0.2165 -0.5947 -0.3360
   48CHL1    H8 5973   5.753   4.089   9.638 -1.1909  0.3828 -4.4516
   48CHL1   C14 5974   5.576   4.057   9.531 -0.4137  0.0636 -0.7432
   48CHL1   H14 5975   5.471   4.032   9.557  0.1635  0.4568  2.3325
   48CHL1   C15 5976   5.613   3.940   9.441  0.6983 -0.0174  0.3946
   48CHL1  H15A 5977   5.721   3.943   9.416  0.4431 -0.8407 -0.9608
   48CHL1  H15B 5978   5.596   3.842   9.491  0.2605  0.1856  0.6441
   48CHL1   C16 5979   5.522   3.962   9.321 -0.0952 -0.4590 -0.2668
   48CHL1  H16A 5980   5.576   3.937   9.227  0.4068  0.7117 -0.3121
   48CHL1  H16B 5981   5.426   3.907   9.328 -0.4062  0.0812 -0.2369
   48CHL1   C17 5982   5.489   4.114   9.326  0.5909 -0.1136  0.2143
   48CHL1   H17 5983   5.386   4.133   9.362 -0.2328  0.7048 -2.4175
   48CHL1   C13 5984   5.576   4.175   9.446 -1.0253 -0.5313 -0.0581
   48CHL1   C18 5985   5.715   4.206   9.382  0.2162  0.8690  0.5912
   48CHL1  H18A 5986   5.736   4.128   9.305 -2.2573  1.3877 -0.7126
   48CHL1  H18B 5987   5.705   4.302   9.327 -0.4865  1.8743  2.3781
   48CHL1  H18C 5988   5.803   4.234   9.444 -0.9159  0.0368  2.7222
   48CHL1   C12 5989   5.517   4.304   9.512  0.4563  0.4751  0.0570
   48CHL1  H12A 5990   5.557   4.387   9.450 -0.9488  1.4003  0.3388
   48CHL1  H12B 5991   5.406   4.311   9.521  0.5684  0.2879  1.9390
   48CHL1   C11 5992   5.582   4.326   9.652  0.7663  0.2590  0.5040
   48CHL1  H11A 5993   5.689   4.344   9.629  1.1255 -1.8400  0.3615
   48CHL1  H11B 5994   5.541   4.419   9.696 -2.6622 -0.7471 -0.2611
   48CHL1    C9 5995   5.579   4.196   9.740  0.3358  0.6186  0.6721
   48CHL1    H9 5996   5.472   4.170   9.751  0.0937  0.2642 -1.8307
   48CHL1   C10 5997   5.640   4.216   9.879 -0.7873 -0.1651 -0.3414
   48CHL1   C19 5998   5.784   4.274   9.863  0.3442 -0.1020  0.4168
   48CHL1  H19A 5999   5.839   4.218   9.785  1.0099 -0.6066  1.2272
   48CHL1  H19B 6000   5.775   4.380   9.830 -0.7706  0.0210  1.0635
   48CHL1  H19C 6001   5.844   4.274   9.957  3.9412  2.1419 -1.6480
   48CHL1    C1 6002   5.560   4.327   9.959  0.0252 -0.7921  0.0665
   48CHL1   H1A 6003   5.580   4.428   9.916 -1.8844 -0.6386 -0.5640
   48CHL1   H1B 6004   5.454   4.302   9.941  0.0161 -0.8917  0.2598
   48CHL1    C2 6005   5.579   4.323  10.109  0.0720  0.1966 -0.1553
   48CHL1   H2A 6006   5.518   4.386  10.177  0.2693 -2.8939  3.1557
   48CHL1   H2B 6007   5.684   4.359  10.121 -0.0853  1.3606 -1.8061
   48CHL1   C20 6008   5.483   4.169   9.182  0.4933  0.7944 -0.4011
   48CHL1   H20 6009   5.585   4.161   9.140  0.0940 -1.2522 -1.0944
   48CHL1   C21 6010   5.444   4.319   9.191  0.0235  0.6080  0.4677
   48CHL1  H21A 6011   5.357   4.330   9.259 -0.0015  3.7356  0.0847
   48CHL1  H21B 6012   5.422   4.349   9.087 -0.1714  1.6647  0.8099
   48CHL1  H21C 6013   5.522   4.378   9.244  0.0735  1.2040 -0.2571
   48CHL1   C22 6014   5.397   4.092   9.079 -0.3176 -0.0244 -0.0350
   48CHL1  H22A 6015   5.395   3.981   9.091 -0.3983 -0.2683 -2.0611
   48CHL1  H22B 6016   5.293   4.115   9.111 -0.0843  0.9416  0.0483
   48CHL1   C23 6017   5.428   4.112   8.930 -0.0721 -0.0381  0.2459
   48CHL1  H23A 6018   5.439   4.222   8.918 -0.8708  0.0396  0.1872
   48CHL1  H23B 6019   5.526   4.063   8.909 -0.1984  0.4030 -1.5519
   48CHL1   C24 6020   5.324   4.050   8.840 -0.1373  0.2588 -0.3708
   48CHL1  H24A 6021   5.331   3.939   8.845  0.1043  0.2172 -1.3574
   48CHL1  H24B 6022   5.219   4.063   8.872 -0.0336 -1.0460  0.5950
   48CHL1   C25 6023   5.350   4.073   8.697 -0.2774 -0.1419  0.0033
   48CHL1   H25 6024   5.357   4.183   8.682  1.2008  0.3174  3.1705
   48CHL1   C26 6025   5.486   4.031   8.643  0.8913 -0.1398  0.8830
   48CHL1  H26A 6026   5.495   4.052   8.534 -1.4356 -1.7543  0.3005
   48CHL1  H26B 6027   5.563   4.083   8.704 -0.8735  1.9424  1.4790
   48CHL1  H26C 6028   5.489   3.921   8.651 -2.9463 -0.4885 -0.3458
   48CHL1   C27 6029   5.237   4.013   8.619 -0.7039  0.3536 -0.1342
   48CHL1  H27A 6030   5.143   4.069   8.635 -1.9558 -2.0699  1.6574
   48CHL1  H27B 6031   5.267   3.986   8.515  1.6275 -1.5159  0.9101
   48CHL1  H27C 6032   5.213   3.908   8.646 -3.2904  0.8626 -0.2201
   49CHL1    C3 6033   6.409   0.482  10.056 -0.2575  0.0722  0.1628
   49CHL1    H3 6034   6.355   0.391  10.022  0.6634 -0.4521  0.0848
   49CHL1    O3 6035   6.406   0.484  10.200 -0.5254 -0.4335  0.2308
   49CHL1   H3' 6036   6.433   0.569  10.233 -2.2895 -0.2767  1.3914
   49CHL1    C4 6037   6.555   0.490  10.011 -0.5491  0.7172 -0.3143
   49CHL1   H4A 6038   6.607   0.578  10.055  1.0716 -0.3426 -0.0479
   49CHL1   H4B 6039   6.618   0.407  10.048  1.6682  1.8892 -1.2464
   49CHL1    C5 6040   6.584   0.515   9.860  0.2543 -0.4178 -0.9965
   49CHL1    C6 6041   6.659   0.436   9.780  0.5696  0.7024 -0.9432
   49CHL1    H6 6042   6.705   0.346   9.825 -1.9021 -0.5894 -0.7939
   49CHL1    C7 6043   6.682   0.444   9.634  1.0627 -0.7229  0.2917
   49CHL1   H7A 6044   6.787   0.430   9.599  1.8087 -1.3319  2.5903
   49CHL1   H7B 6045   6.620   0.366   9.585  0.6784 -0.2312 -0.0138
   49CHL1    C8 6046   6.621   0.579   9.571 -0.3355  0.8550 -0.4078
   49CHL1    H8 6047   6.697   0.657   9.591  0.4601  0.4849 -1.8308
   49CHL1   C14 6048   6.582   0.564   9.425  0.2788 -0.7966  0.1085
   49CHL1   H14 6049   6.504   0.485   9.417 -0.4505 -0.1732  0.8769
   49CHL1   C15 6050   6.698   0.511   9.337  0.0988  0.2347 -0.3627
   49CHL1  H15A 6051   6.797   0.555   9.363  0.0395 -1.0525  2.4109
   49CHL1  H15B 6052   6.712   0.401   9.335 -0.8985  0.0373  1.2963
   49CHL1   C16 6053   6.651   0.544   9.192 -0.4518  0.1956  0.1773
   49CHL1  H16A 6054   6.729   0.601   9.138  1.8096 -0.4896  2.5105
   49CHL1  H16B 6055   6.637   0.448   9.138  0.3197 -0.9302  1.9012
   49CHL1   C17 6056   6.522   0.634   9.208  0.0810  0.7349  0.0982
   49CHL1   H17 6057   6.435   0.565   9.204  1.8727 -1.8088  1.8112
   49CHL1   C13 6058   6.527   0.685   9.352 -0.0302  0.2819  0.2309
   49CHL1   C18 6059   6.628   0.807   9.359  0.8106  0.0333  0.2139
   49CHL1  H18A 6060   6.700   0.798   9.274  0.4785 -1.8143  0.0795
   49CHL1  H18B 6061   6.562   0.895   9.349 -0.2818 -0.6197  1.3888
   49CHL1  H18C 6062   6.686   0.817   9.453  0.1286 -0.6030  0.7181
   49CHL1   C12 6063   6.390   0.722   9.426  0.1210  0.1884  0.2913
   49CHL1  H12A 6064   6.347   0.814   9.382  1.3472 -0.1514 -1.7677
   49CHL1  H12B 6065   6.316   0.645   9.397 -1.4329  2.6061 -2.7059
   49CHL1   C11 6066   6.410   0.733   9.573 -0.6244  0.4183 -0.4289
   49CHL1  H11A 6067   6.463   0.830   9.586 -0.4728  0.4396 -1.2089
   49CHL1  H11B 6068   6.308   0.739   9.617  0.1212 -1.1896  1.7436
   49CHL1    C9 6069   6.489   0.622   9.648  0.1366  0.2331 -0.7412
   49CHL1    H9 6070   6.423   0.534   9.633  3.4171 -3.2919  2.8535
   49CHL1   C10 6071   6.499   0.628   9.801  0.1991  0.7089  0.2340
   49CHL1   C19 6072   6.562   0.762   9.847 -0.0220 -0.0770 -0.0083
   49CHL1  H19A 6073   6.511   0.850   9.804 -1.1424 -0.3653  0.6982
   49CHL1  H19B 6074   6.571   0.758   9.957 -1.2263  1.8503  0.2057
   49CHL1  H19C 6075   6.668   0.761   9.811  0.2744  0.0947  0.8419
   49CHL1    C1 6076   6.355   0.628   9.852 -0.3788 -0.4232  0.1065
   49CHL1   H1A 6077   6.315   0.727   9.820  1.3766  0.2848  0.0158
   49CHL1   H1B 6078   6.303   0.547   9.797  0.5624 -1.6315  0.9590
   49CHL1    C2 6079   6.336   0.608  10.004 -0.3208 -0.5043 -0.4485
   49CHL1   H2A 6080   6.230   0.603  10.037  0.3996  1.2432  2.5398
   49CHL1   H2B 6081   6.383   0.696  10.053  0.9490 -3.1068  3.5008
   49CHL1   C20 6082   6.512   0.729   9.088  0.4777  0.1500  0.1050
   49CHL1   H20 6083   6.606   0.789   9.093  0.3280  0.3761  0.1943
   49CHL1   C21 6084   6.388   0.819   9.098 -0.2566 -0.6848 -0.1920
   49CHL1  H21A 6085   6.371   0.869   9.000 -2.8704 -0.0983  0.4993
   49CHL1  H21B 6086   6.402   0.902   9.171 -1.4780  1.9348 -2.7078
   49CHL1  H21C 6087   6.298   0.755   9.109 -2.0291  1.5499 -0.8404
   49CHL1   C22 6088   6.514   0.668   8.946  0.3583 -0.3195  0.2221
   49CHL1  H22A 6089   6.559   0.567   8.957  1.8607  0.3108  0.1226
   49CHL1  H22B 6090   6.411   0.651   8.905  0.0275  2.1427 -0.1056
   49CHL1   C23 6091   6.592   0.755   8.843 -0.0324  0.3129 -0.6368
   49CHL1  H23A 6092   6.560   0.727   8.741  0.3249  2.5934 -1.4409
   49CHL1  H23B 6093   6.550   0.854   8.871  0.4515  0.0603  1.1347
   49CHL1   C24 6094   6.749   0.770   8.854  0.1272  0.0362 -0.0104
   49CHL1  H24A 6095   6.771   0.874   8.821  0.6312  0.4107  1.4474
   49CHL1  H24B 6096   6.784   0.762   8.959 -2.7282 -2.6243  0.9119
   49CHL1   C25 6097   6.810   0.644   8.775  0.0793 -0.1556 -0.0484
   49CHL1   H25 6098   6.770   0.550   8.819  1.6015  0.0189  1.8411
   49CHL1   C26 6099   6.794   0.642   8.619  0.0508  0.1127 -1.1436
   49CHL1  H26A 6100   6.691   0.632   8.579 -0.7614 -0.1834  0.9107
   49CHL1  H26B 6101   6.853   0.725   8.575  0.8520  0.5727  0.6890
   49CHL1  H26C 6102   6.841   0.548   8.581  1.1172 -0.4983  1.4237
   49CHL1   C27 6103   6.958   0.642   8.812 -0.2325 -0.2463  0.7384
   49CHL1  H27A 6104   6.973   0.610   8.917 -1.2088  0.3295  1.0737
   49CHL1  H27B 6105   7.010   0.571   8.744  2.4052  2.1403  0.0829
   49CHL1  H27C 6106   7.002   0.744   8.810  0.8432 -0.6792  1.5015
   50CHL1    C3 6107   1.197   1.839  10.069 -0.1398 -0.2144 -0.6362
   50CHL1    H3 6108   1.115   1.914  10.068  0.3694  0.4842  1.8326
   50CHL1    O3 6109   1.248   1.808  10.197 -0.5932  0.2981 -0.0981
   50CHL1   H3' 6110   1.297   1.882  10.233 -1.0206  0.2237  0.6610
   50CHL1    C4 6111   1.140   1.707  10.008  0.3745  0.2270  0.3898
   50CHL1   H4A 6112   1.213   1.624  10.025 -0.2127 -0.2158  0.8152
   50CHL1   H4B 6113   1.054   1.690  10.075 -0.1755  2.3262  0.2790
   50CHL1    C5 6114   1.096   1.710   9.863  0.5103 -0.2727  0.6756
   50CHL1    C6 6115   0.974   1.673   9.818  1.1518 -0.3669 -0.6331
   50CHL1    H6 6116   0.903   1.616   9.880  1.5013 -0.2558 -0.1304
   50CHL1    C7 6117   0.934   1.664   9.673  0.2418 -1.2682  0.3096
   50CHL1   H7A 6118   0.879   1.568   9.662 -1.8177 -0.1191  0.2132
   50CHL1   H7B 6119   0.873   1.751   9.639  1.0318 -0.7787  0.0981
   50CHL1    C8 6120   1.052   1.673   9.572  0.2476 -0.0144 -0.0602
   50CHL1    H8 6121   1.096   1.571   9.569 -0.1977 -0.1826 -1.5878
   50CHL1   C14 6122   1.007   1.709   9.433  0.5186  0.3318  0.4207
   50CHL1   H14 6123   0.962   1.809   9.451  0.0358 -0.1724  2.2143
   50CHL1   C15 6124   0.910   1.611   9.363  0.3278  0.4027  0.0634
   50CHL1  H15A 6125   0.940   1.505   9.368 -0.6474  0.1723  1.8971
   50CHL1  H15B 6126   0.808   1.628   9.404 -0.4311 -3.2634 -0.0085
   50CHL1   C16 6127   0.918   1.656   9.219 -0.2493  0.0781 -0.5197
   50CHL1  H16A 6128   0.950   1.563   9.167  3.1598 -0.1710  1.7254
   50CHL1  H16B 6129   0.817   1.677   9.178 -1.0462 -0.2119  1.2008
   50CHL1   C17 6130   1.023   1.769   9.216  1.2037  0.3622  0.6981
   50CHL1   H17 6131   0.959   1.858   9.238 -0.7220 -0.8599  0.2537
   50CHL1   C13 6132   1.119   1.739   9.332  0.5373  0.2986 -0.1752
   50CHL1   C18 6133   1.217   1.624   9.305  0.2945  0.4421 -0.3267
   50CHL1  H18A 6134   1.177   1.545   9.239  1.2315 -1.7933  1.6345
   50CHL1  H18B 6135   1.301   1.682   9.261  0.3512  1.2397  0.7858
   50CHL1  H18C 6136   1.248   1.589   9.406 -0.3459 -1.7392 -0.8381
   50CHL1   C12 6137   1.196   1.864   9.379 -0.0743  0.2141 -0.1554
   50CHL1  H12A 6138   1.286   1.875   9.315  0.0748 -3.6148 -0.8748
   50CHL1  H12B 6139   1.138   1.958   9.384 -1.5202 -0.6480 -0.0479
   50CHL1   C11 6140   1.256   1.834   9.518 -0.1455 -0.3754  0.1646
   50CHL1  H11A 6141   1.338   1.760   9.505 -0.1134 -0.6441  1.7712
   50CHL1  H11B 6142   1.311   1.925   9.549  0.1834  0.6181 -2.9789
   50CHL1    C9 6143   1.151   1.782   9.623  0.3122 -0.0295 -0.7437
   50CHL1    H9 6144   1.089   1.873   9.633 -0.9683 -1.0495  1.0568
   50CHL1   C10 6145   1.203   1.761   9.767 -0.0455 -0.5501 -0.4585
   50CHL1   C19 6146   1.313   1.657   9.750  0.0628  0.9000  0.3958
   50CHL1  H19A 6147   1.266   1.564   9.710 -0.9696  2.0199 -1.0980
   50CHL1  H19B 6148   1.400   1.690   9.690  1.9068  0.1281  2.5072
   50CHL1  H19C 6149   1.362   1.625   9.845 -0.9568  0.1634  0.6960
   50CHL1    C1 6150   1.262   1.891   9.825 -0.5837 -0.3341 -0.5258
   50CHL1   H1A 6151   1.349   1.924   9.764 -0.1186 -0.6585 -0.0486
   50CHL1   H1B 6152   1.175   1.959   9.815 -0.7818 -0.5986 -0.6431
   50CHL1    C2 6153   1.311   1.888   9.975  0.7220 -0.0046  0.3656
   50CHL1   H2A 6154   1.350   1.987  10.008  2.8929 -0.0249 -1.8384
   50CHL1   H2B 6155   1.406   1.833   9.985  1.0667  0.7782  1.8120
   50CHL1   C20 6156   1.084   1.788   9.080 -0.0290 -0.0595 -0.3915
   50CHL1   H20 6157   1.168   1.716   9.069  0.4046  0.6280 -1.6747
   50CHL1   C21 6158   1.131   1.934   9.073  0.2522 -1.1646  0.5915
   50CHL1  H21A 6159   1.071   2.016   9.118  0.2591  0.4443 -2.1291
   50CHL1  H21B 6160   1.145   1.969   8.969  0.3237 -0.1831  0.9225
   50CHL1  H21C 6161   1.232   1.941   9.117 -0.7007 -1.2203  2.9443
   50CHL1   C22 6162   0.986   1.770   8.967 -0.0770 -0.4833  0.8351
   50CHL1  H22A 6163   0.932   1.673   8.967 -0.4774 -0.2906 -0.5406
   50CHL1  H22B 6164   0.919   1.858   8.955  1.4545  0.3785 -3.0111
   50CHL1   C23 6165   1.049   1.763   8.821 -0.5971  0.6421  0.6011
   50CHL1  H23A 6166   1.109   1.856   8.809  0.4352  0.0746  1.2139
   50CHL1  H23B 6167   1.130   1.687   8.821  0.0543  1.3276  0.7579
   50CHL1   C24 6168   0.952   1.742   8.704 -0.3518 -0.2686 -0.1637
   50CHL1  H24A 6169   0.897   1.646   8.715 -2.1435  0.7821  0.4657
   50CHL1  H24B 6170   0.879   1.826   8.712  1.3039  1.1969  0.0247
   50CHL1   C25 6171   1.022   1.739   8.561  0.6237  0.2902 -0.9837
   50CHL1   H25 6172   1.084   1.830   8.554  0.1584  0.6671 -0.3191
   50CHL1   C26 6173   1.111   1.614   8.553  0.3731  0.3933  0.2823
   50CHL1  H26A 6174   1.046   1.523   8.549  2.1996 -0.9900  0.7156
   50CHL1  H26B 6175   1.169   1.613   8.458 -1.4199 -3.1102 -0.9872
   50CHL1  H26C 6176   1.174   1.609   8.644  1.7899 -2.0959 -0.7187
   50CHL1   C27 6177   0.921   1.741   8.455 -0.7924  0.4645 -0.2256
   50CHL1  H27A 6178   0.976   1.762   8.361  2.1746 -0.3253  1.2107
   50CHL1  H27B 6179   0.851   1.655   8.464  0.2768 -0.2926  1.3296
   50CHL1  H27C 6180   0.857   1.831   8.467  0.6359  1.5900 -0.7440
   51CHL1    C3 6181   6.217   2.891  10.079  0.9509 -0.5645  0.2863
   51CHL1    H3 6182   6.169   2.793  10.098 -0.4922  0.5394  2.8197
   51CHL1    O3 6183   6.253   2.940  10.210  0.0112  0.3270  0.1392
   51CHL1   H3' 6184   6.310   3.016  10.195  0.5491  0.2247  1.5245
   51CHL1    C4 6185   6.344   2.877   9.999 -0.2970 -0.0975  0.4790
   51CHL1   H4A 6186   6.394   2.977   9.997  0.4765 -0.4851  0.0840
   51CHL1   H4B 6187   6.408   2.801  10.047  2.9534  0.8106 -2.1003
   51CHL1    C5 6188   6.319   2.841   9.852  0.6200  0.1275 -0.3612
   51CHL1    C6 6189   6.369   2.728   9.796  0.4058 -0.2883 -0.4331
   51CHL1    H6 6190   6.432   2.650   9.841  1.2434  1.3754  1.4359
   51CHL1    C7 6191   6.348   2.702   9.655  0.1908 -0.0315 -0.3615
   51CHL1   H7A 6192   6.444   2.707   9.600 -0.4818  3.5618 -1.5041
   51CHL1   H7B 6193   6.293   2.606   9.648 -0.4867 -0.4184  5.3399
   51CHL1    C8 6194   6.278   2.800   9.559 -0.2399 -0.3936  0.0199
   51CHL1    H8 6195   6.352   2.873   9.522  0.1182 -0.7197  0.0941
   51CHL1   C14 6196   6.213   2.741   9.434  0.3018  0.6045 -1.3553
   51CHL1   H14 6197   6.128   2.686   9.479  0.0264  3.5177  2.1962
   51CHL1   C15 6198   6.300   2.649   9.347  0.0447 -0.6214 -0.6225
   51CHL1  H15A 6199   6.395   2.707   9.340 -1.0053  1.0584 -1.4702
   51CHL1  H15B 6200   6.324   2.546   9.381  2.0462 -0.8640 -2.4958
   51CHL1   C16 6201   6.228   2.652   9.210 -0.2495  0.0642  0.0620
   51CHL1  H16A 6202   6.300   2.697   9.139  0.8348  1.6242  2.0356
   51CHL1  H16B 6203   6.185   2.556   9.173 -0.3519 -0.0160  0.3864
   51CHL1   C17 6204   6.109   2.745   9.227  0.2004 -0.7123 -0.4578
   51CHL1   H17 6205   6.025   2.681   9.261  0.0926 -0.6762 -0.6575
   51CHL1   C13 6206   6.145   2.843   9.340  0.2190  0.4271 -0.8513
   51CHL1   C18 6207   6.252   2.944   9.285  0.2620  0.5089 -0.4148
   51CHL1  H18A 6208   6.213   3.010   9.205 -1.2156  0.3533  0.1402
   51CHL1  H18B 6209   6.300   3.018   9.353  1.5874 -0.7267  0.0263
   51CHL1  H18C 6210   6.336   2.890   9.237  0.3746  0.7262 -0.4648
   51CHL1   C12 6211   6.025   2.895   9.425 -0.1140 -0.4825 -0.1545
   51CHL1  H12A 6212   5.971   2.980   9.378  1.0749  0.6305  0.4394
   51CHL1  H12B 6213   5.947   2.817   9.444 -0.2429 -0.7522 -1.6754
   51CHL1   C11 6214   6.078   2.965   9.557 -0.2440 -0.3521 -0.5048
   51CHL1  H11A 6215   6.121   3.059   9.516 -0.5219 -0.0561 -0.1286
   51CHL1  H11B 6216   6.002   2.993   9.633  0.9914  1.3219  0.1868
   51CHL1    C9 6217   6.172   2.880   9.637 -0.1083 -0.0007  0.1315
   51CHL1    H9 6218   6.102   2.800   9.671 -2.0232  1.3924 -0.3195
   51CHL1   C10 6219   6.224   2.937   9.776  0.5379  0.3923  0.4821
   51CHL1   C19 6220   6.289   3.073   9.742 -0.1590 -0.3286 -0.6803
   51CHL1  H19A 6221   6.210   3.137   9.696 -0.2919  0.3208  0.4120
   51CHL1  H19B 6222   6.334   3.130   9.826 -0.8769 -2.9065  1.6012
   51CHL1  H19C 6223   6.370   3.059   9.669 -0.4119  0.8052 -1.2037
   51CHL1    C1 6224   6.097   2.964   9.866 -0.4384 -0.2137  0.3521
   51CHL1   H1A 6225   6.048   3.050   9.814  0.8259 -0.1756 -0.8386
   51CHL1   H1B 6226   6.026   2.880   9.857 -0.6338 -0.0488  0.3532
   51CHL1    C2 6227   6.120   2.993  10.011  0.7648 -0.1535 -0.2246
   51CHL1   H2A 6228   6.024   3.002  10.066 -0.0088  0.8592 -1.6477
   51CHL1   H2B 6229   6.170   3.092  10.016 -2.3076  1.5681 -0.8302
   51CHL1   C20 6230   6.058   2.795   9.089  0.0127 -0.5350  0.1487
   51CHL1   H20 6231   6.134   2.866   9.050 -1.2172  2.1372  2.2753
   51CHL1   C21 6232   5.926   2.874   9.116 -0.2429 -0.0607 -0.0500
   51CHL1  H21A 6233   5.880   2.903   9.019  0.0119 -0.5488 -0.3165
   51CHL1  H21B 6234   5.931   2.967   9.177 -1.9224  0.1921 -0.2458
   51CHL1  H21C 6235   5.858   2.805   9.171 -0.1293 -0.9036 -0.9396
   51CHL1   C22 6236   6.021   2.695   8.979  0.7677 -0.4511  0.1143
   51CHL1  H22A 6237   6.093   2.610   8.985  0.2831 -0.7510  2.7523
   51CHL1  H22B 6238   5.918   2.655   8.988  0.2367  0.8122 -0.1963
   51CHL1   C23 6239   6.024   2.754   8.839 -0.5787  0.4448 -0.0596
   51CHL1  H23A 6240   5.964   2.847   8.829 -1.0867  0.1655  0.3572
   51CHL1  H23B 6241   6.125   2.796   8.822 -0.0984 -0.6683  0.0029
   51CHL1   C24 6242   5.976   2.651   8.728 -0.9071  0.0105  0.6713
   51CHL1  H24A 6243   6.030   2.555   8.737 -0.3465  0.2964  0.4006
   51CHL1  H24B 6244   5.876   2.606   8.746  0.3924 -3.0112  0.8528
   51CHL1   C25 6245   5.985   2.698   8.579  0.1572  0.0340 -0.3762
   51CHL1   H25 6246   5.976   2.605   8.518  0.3310  0.3051 -0.8172
   51CHL1   C26 6247   5.878   2.796   8.545 -0.0846 -0.2615 -0.2287
   51CHL1  H26A 6248   5.883   2.832   8.440  1.0666 -1.8875 -0.7729
   51CHL1  H26B 6249   5.779   2.751   8.569  0.0755 -1.4783 -1.6706
   51CHL1  H26C 6250   5.894   2.886   8.607  0.0926 -0.3665 -0.1213
   51CHL1   C27 6251   6.122   2.754   8.543  0.0491 -0.4435 -0.1894
   51CHL1  H27A 6252   6.209   2.691   8.571 -0.9592 -1.9674 -0.3869
   51CHL1  H27B 6253   6.128   2.782   8.435 -1.9243 -2.9446 -1.0496
   51CHL1  H27C 6254   6.134   2.850   8.598 -2.0195  0.5122 -1.2892
   52CHL1    C3 6255   1.186   2.617   9.931  0.2578 -0.7456 -0.4411
   52CHL1    H3 6256   1.129   2.710   9.951  0.4963 -0.8132  0.5822
   52CHL1    O3 6257   1.254   2.581  10.054 -0.6777  0.6244 -0.5335
   52CHL1   H3' 6258   1.308   2.657  10.076 -1.0597  0.1298  2.5734
   52CHL1    C4 6259   1.091   2.505   9.878 -0.1956  0.0926  0.5124
   52CHL1   H4A 6260   1.149   2.410   9.874  2.4384  1.6181  0.9409
   52CHL1   H4B 6261   1.011   2.502   9.955  0.6249 -0.6334  1.3640
   52CHL1    C5 6262   1.023   2.530   9.743  0.6522 -0.2105 -0.2237
   52CHL1    C6 6263   0.889   2.528   9.725 -0.3597  0.1123  1.1027
   52CHL1    H6 6264   0.819   2.491   9.802 -2.0443 -0.4182 -0.6187
   52CHL1    C7 6265   0.819   2.559   9.599 -0.2332 -0.0809  0.1880
   52CHL1   H7A 6266   0.727   2.500   9.583 -0.6960  0.8118 -0.6075
   52CHL1   H7B 6267   0.779   2.661   9.618  2.1793  0.7943  1.0420
   52CHL1    C8 6268   0.911   2.558   9.475  0.2827 -0.3100 -0.3284
   52CHL1    H8 6269   0.938   2.451   9.464 -0.4305 -0.6525  0.9676
   52CHL1   C14 6270   0.843   2.614   9.350  0.5019  0.3407  0.0018
   52CHL1   H14 6271   0.817   2.721   9.367  0.5970  0.5504 -1.1241
   52CHL1   C15 6272   0.711   2.546   9.297 -0.1889  0.1897 -0.1922
   52CHL1  H15A 6273   0.701   2.436   9.307  0.9640  0.2319  1.9135
   52CHL1  H15B 6274   0.631   2.593   9.357 -0.2656 -0.1236 -0.0450
   52CHL1   C16 6275   0.705   2.563   9.145  0.3303 -0.2620  0.7175
   52CHL1  H16A 6276   0.682   2.465   9.099  0.1957  0.0602  0.0767
   52CHL1  H16B 6277   0.633   2.639   9.108  1.4134 -0.2691 -1.6256
   52CHL1   C17 6278   0.844   2.640   9.109 -0.4737  0.2370 -0.8234
   52CHL1   H17 6279   0.825   2.749   9.125  3.8282  1.0146  0.1748
   52CHL1   C13 6280   0.941   2.615   9.227 -0.1660  0.7503  0.2969
   52CHL1   C18 6281   1.001   2.473   9.204 -0.3747 -0.5991  0.0466
   52CHL1  H18A 6282   0.926   2.395   9.178 -1.2071  0.5894 -1.3137
   52CHL1  H18B 6283   1.085   2.477   9.130 -2.0933  0.5622 -1.9546
   52CHL1  H18C 6284   1.046   2.438   9.299 -1.5576  0.0923  0.8818
   52CHL1   C12 6285   1.044   2.719   9.260 -0.0108 -0.1711  0.6515
   52CHL1  H12A 6286   1.113   2.724   9.174 -0.0474  0.2765  0.6465
   52CHL1  H12B 6287   1.015   2.825   9.275  0.8596 -0.1776  2.6746
   52CHL1   C11 6288   1.127   2.680   9.388  0.4205 -0.1843  0.5506
   52CHL1  H11A 6289   1.187   2.591   9.358 -1.4257 -0.5963 -2.3460
   52CHL1  H11B 6290   1.205   2.755   9.413 -0.5451  1.6455 -1.5535
   52CHL1    C9 6291   1.036   2.640   9.510 -0.2227  0.0486 -0.4047
   52CHL1    H9 6292   0.995   2.735   9.553 -0.7998 -0.6831  0.6964
   52CHL1   C10 6293   1.121   2.577   9.628  0.6895  0.8431 -0.3119
   52CHL1   C19 6294   1.197   2.449   9.573 -0.9905 -0.1408 -0.5688
   52CHL1  H19A 6295   1.209   2.376   9.656  0.6027 -0.0524 -0.6842
   52CHL1  H19B 6296   1.129   2.403   9.499  0.8631 -1.0710 -1.7676
   52CHL1  H19C 6297   1.286   2.488   9.520 -0.2914  0.6123  1.0750
   52CHL1    C1 6298   1.210   2.689   9.695 -0.2692 -0.3458 -0.6755
   52CHL1   H1A 6299   1.272   2.732   9.613  0.5916 -0.1036  0.0899
   52CHL1   H1B 6300   1.147   2.776   9.722  1.8365  0.8258  0.6697
   52CHL1    C2 6301   1.288   2.652   9.824  0.2018 -0.2320  0.1285
   52CHL1   H2A 6302   1.360   2.734   9.845  0.2283 -0.3909  0.6499
   52CHL1   H2B 6303   1.355   2.565   9.805  3.6307  1.6938  2.3141
   52CHL1   C20 6304   0.895   2.615   8.964 -0.1438  0.0245  0.2331
   52CHL1   H20 6305   0.936   2.512   8.964  1.7413  0.7210  1.6175
   52CHL1   C21 6306   1.010   2.704   8.926 -0.2936 -0.7851  0.0233
   52CHL1  H21A 6307   1.027   2.702   8.816  0.0717  1.3072 -0.0006
   52CHL1  H21B 6308   1.106   2.675   8.974  0.0914  1.3850  0.6955
   52CHL1  H21C 6309   0.981   2.808   8.953 -0.3089 -1.2808  2.0372
   52CHL1   C22 6310   0.788   2.630   8.847  0.0816  0.4322  0.0782
   52CHL1  H22A 6311   0.697   2.577   8.881  0.1578  0.2576  0.0105
   52CHL1  H22B 6312   0.757   2.736   8.838 -3.3302 -0.1071  3.2535
   52CHL1   C23 6313   0.821   2.578   8.703  0.2084 -0.1719 -0.0153
   52CHL1  H23A 6314   0.919   2.622   8.674  0.3727 -0.0017  0.7941
   52CHL1  H23B 6315   0.834   2.468   8.714 -2.1858 -0.4475  0.6097
   52CHL1   C24 6316   0.716   2.620   8.600 -0.1679  0.3455  0.1771
   52CHL1  H24A 6317   0.619   2.578   8.633 -0.2567  1.3492  1.2953
   52CHL1  H24B 6318   0.701   2.730   8.610  2.7771  0.9688 -1.1932
   52CHL1   C25 6319   0.769   2.574   8.462 -0.8091  0.2003  1.2942
   52CHL1   H25 6320   0.790   2.466   8.473  0.6568 -0.2299 -3.4382
   52CHL1   C26 6321   0.659   2.593   8.354 -0.0698 -0.3644  0.5685
   52CHL1  H26A 6322   0.623   2.698   8.365  0.6468 -0.3060  2.9748
   52CHL1  H26B 6323   0.695   2.569   8.251  2.2840  0.3683  1.1698
   52CHL1  H26C 6324   0.570   2.528   8.364 -1.3976  1.0858 -1.0685
   52CHL1   C27 6325   0.898   2.645   8.417  0.0759  0.4867  0.1499
   52CHL1  H27A 6326   0.907   2.747   8.461  1.3263  0.6084 -0.3250
   52CHL1  H27B 6327   0.982   2.579   8.448 -1.3397 -2.0178 -1.0899
   52CHL1  H27C 6328   0.902   2.641   8.306  0.2001  1.3314  0.1127
   53CHL1    C3 6329   4.769   5.970  10.115  0.0530  0.4466 -0.8740
   53CHL1    H3 6330   4.675   6.004  10.067 -0.4603  0.4908  0.1421
   53CHL1    O3 6331   4.785   6.023  10.244 -0.1892 -0.4435 -0.1934
   53CHL1   H3' 6332   4.841   5.960  10.290  0.7589 -0.3957 -1.2640
   53CHL1    C4 6333   4.781   5.819  10.118  0.0608 -0.5962  0.4684
   53CHL1   H4A 6334   4.868   5.780  10.174 -0.5251 -0.6473  1.3572
   53CHL1   H4B 6335   4.693   5.790  10.180 -0.7057  2.4123  0.9305
   53CHL1    C5 6336   4.785   5.748   9.982 -0.0135 -0.0914  0.3447
   53CHL1    C6 6337   4.692   5.664   9.935  0.3841  0.3615 -0.1479
   53CHL1    H6 6338   4.613   5.623  10.000  0.6145 -0.7682 -0.5463
   53CHL1    C7 6339   4.693   5.584   9.803  0.1241  0.5166  0.0779
   53CHL1   H7A 6340   4.662   5.479   9.823 -0.5908  0.0411 -3.0337
   53CHL1   H7B 6341   4.621   5.624   9.729  0.0855  0.6424  0.1832
   53CHL1    C8 6342   4.834   5.602   9.727  0.2321 -0.6044 -0.4972
   53CHL1    H8 6343   4.908   5.532   9.774  1.2547 -0.2921 -1.5896
   53CHL1   C14 6344   4.819   5.562   9.582 -0.1346  0.2916  0.3324
   53CHL1   H14 6345   4.745   5.637   9.548 -0.8013 -1.1653 -1.6176
   53CHL1   C15 6346   4.741   5.429   9.543 -0.4884  0.1472  0.7893
   53CHL1  H15A 6347   4.786   5.342   9.596  0.6286 -0.0617 -0.4332
   53CHL1  H15B 6348   4.634   5.441   9.567 -0.4845  0.0450  0.8546
   53CHL1   C16 6349   4.774   5.398   9.399 -0.1019 -0.1793 -0.1408
   53CHL1  H16A 6350   4.811   5.293   9.398 -1.5370 -0.7137  0.1417
   53CHL1  H16B 6351   4.679   5.407   9.342 -0.7961  0.4317  1.0742
   53CHL1   C17 6352   4.868   5.517   9.355  0.1122  0.5219 -0.4309
   53CHL1   H17 6353   4.805   5.600   9.315  2.0350  1.2594 -2.1006
   53CHL1   C13 6354   4.934   5.574   9.485 -0.9802 -0.0880  0.6037
   53CHL1   C18 6355   5.046   5.477   9.541 -0.2617 -0.0536 -0.4178
   53CHL1  H18A 6356   4.997   5.378   9.527 -2.5948  1.3475 -3.3357
   53CHL1  H18B 6357   5.137   5.477   9.476 -0.0494 -1.4386 -0.1455
   53CHL1  H18C 6358   5.069   5.494   9.648 -0.9650  1.7832 -0.5253
   53CHL1   C12 6359   4.979   5.721   9.487 -0.5517 -0.7780 -0.6663
   53CHL1  H12A 6360   5.070   5.734   9.424  0.8471 -0.0550  1.4068
   53CHL1  H12B 6361   4.906   5.785   9.433 -0.4779 -0.2974 -0.2136
   53CHL1   C11 6362   4.998   5.775   9.632  0.1800 -0.0826 -0.6171
   53CHL1  H11A 6363   5.088   5.725   9.675  0.0411 -0.1777 -0.4341
   53CHL1  H11B 6364   5.014   5.883   9.614  1.0675  0.0422  0.7039
   53CHL1    C9 6365   4.881   5.742   9.733 -0.0753  0.5778  0.6559
   53CHL1    H9 6366   4.790   5.796   9.697 -1.6980 -1.7757  0.9675
   53CHL1   C10 6367   4.898   5.792   9.883  0.9052 -0.5020  0.4578
   53CHL1   C19 6368   5.034   5.750   9.934 -0.1204  0.2403 -0.2554
   53CHL1  H19A 6369   5.106   5.797   9.863  0.1312  1.1290  0.5561
   53CHL1  H19B 6370   5.059   5.777  10.039  2.7366 -0.6085 -0.6253
   53CHL1  H19C 6371   5.062   5.643   9.924 -0.4309  0.1551 -0.2182
   53CHL1    C1 6372   4.885   5.953   9.884  0.0733  0.7060 -0.5136
   53CHL1   H1A 6373   4.960   5.992   9.813  1.4683  2.2550  1.6499
   53CHL1   H1B 6374   4.787   5.980   9.839  1.2391  3.5280 -1.5817
   53CHL1    C2 6375   4.887   6.015  10.030  0.0148 -0.3428 -0.3498
   53CHL1   H2A 6376   4.890   6.124  10.005  1.2655 -0.2057  0.3176
   53CHL1   H2B 6377   4.992   6.008  10.066  1.0049  2.5353 -2.3463
   53CHL1   C20 6378   4.957   5.476   9.241 -0.2516 -0.4460 -0.4526
   53CHL1   H20 6379   5.025   5.395   9.275  1.2119 -0.2411 -2.6932
   53CHL1   C21 6380   5.049   5.598   9.202  0.5999  0.2102  0.1650
   53CHL1  H21A 6381   4.987   5.690   9.199  1.2762  0.6641 -2.7468
   53CHL1  H21B 6382   5.101   5.589   9.105 -0.0050  1.0066 -0.2437
   53CHL1  H21C 6383   5.135   5.605   9.273  1.3045 -0.6065 -0.5744
   53CHL1   C22 6384   4.881   5.415   9.121  0.0098  0.1243 -0.0319
   53CHL1  H22A 6385   4.822   5.327   9.156 -1.2313  0.9522  0.0401
   53CHL1  H22B 6386   4.800   5.486   9.093  0.3513  0.4016 -0.3169
   53CHL1   C23 6387   4.970   5.370   9.001 -0.1080  0.2918 -0.3589
   53CHL1  H23A 6388   5.020   5.464   8.968  1.1031  0.1427  0.9157
   53CHL1  H23B 6389   5.054   5.302   9.027  0.7541  0.7269 -1.8766
   53CHL1   C24 6390   4.897   5.309   8.877 -0.4007 -0.6649 -0.2487
   53CHL1  H24A 6391   4.842   5.222   8.918 -0.5393 -0.1739  0.6471
   53CHL1  H24B 6392   4.828   5.384   8.833  1.2023  0.3995 -1.0409
   53CHL1   C25 6393   4.982   5.260   8.759  0.3926 -0.0761  0.1474
   53CHL1   H25 6394   5.030   5.344   8.703  1.7518 -1.0381 -0.1873
   53CHL1   C26 6395   5.097   5.171   8.804  0.3752  0.4963 -0.4261
   53CHL1  H26A 6396   5.156   5.140   8.714 -0.3547 -2.2847 -0.0268
   53CHL1  H26B 6397   5.165   5.231   8.868  0.0430 -1.1009  1.4950
   53CHL1  H26C 6398   5.065   5.079   8.858  3.5500 -0.5950 -0.1800
   53CHL1   C27 6399   4.903   5.180   8.658  0.0153  0.2623 -0.4127
   53CHL1  H27A 6400   4.836   5.108   8.710 -0.3625 -0.7311 -2.2003
   53CHL1  H27B 6401   4.849   5.246   8.587  1.6886  1.1796 -0.8917
   53CHL1  H27C 6402   4.962   5.122   8.584 -1.6806  0.7402 -2.2157
   54CHL1    C3 6403   0.012   5.027   9.912 -0.5706 -0.0170 -0.2038
   54CHL1    H3 6404   0.063   5.118   9.872  2.2428 -2.6092 -2.9915
   54CHL1    O3 6405  -0.041   5.053  10.039  0.0944  0.4935  0.4247
   54CHL1   H3' 6406  -0.068   4.966  10.070 -1.4118  1.0330  0.7243
   54CHL1    C4 6407  -0.097   4.995   9.811  0.0727 -0.3928 -0.1828
   54CHL1   H4A 6408  -0.157   4.910   9.848 -0.5312 -0.2759 -0.8741
   54CHL1   H4B 6409  -0.160   5.086   9.817 -0.1366 -0.5556  0.1065
   54CHL1    C5 6410  -0.031   4.982   9.679 -0.9987  0.7335  0.0143
   54CHL1    C6 6411  -0.060   5.039   9.566  0.3228 -0.7644 -0.0127
   54CHL1    H6 6412  -0.116   5.134   9.567  3.9616  1.5770 -0.6879
   54CHL1    C7 6413  -0.007   5.005   9.432  0.4116  0.2237 -0.0976
   54CHL1   H7A 6414  -0.094   5.004   9.363  0.9431  1.2606 -0.7956
   54CHL1   H7B 6415   0.069   5.077   9.395  1.8532 -1.4142 -0.4799
   54CHL1    C8 6416   0.052   4.861   9.415  0.1857  0.7556  0.1376
   54CHL1    H8 6417  -0.030   4.786   9.416 -0.8192  1.8103 -0.0112
   54CHL1   C14 6418   0.136   4.850   9.289 -0.1641 -0.0924  0.0742
   54CHL1   H14 6419   0.208   4.935   9.291 -1.1288  0.9240 -2.6141
   54CHL1   C15 6420   0.066   4.886   9.154  0.5513  0.2008  0.3381
   54CHL1  H15A 6421  -0.033   4.840   9.168  0.6100  0.3881  1.4976
   54CHL1  H15B 6422   0.052   4.996   9.146  0.3769  0.1665  0.1564
   54CHL1   C16 6423   0.155   4.817   9.049 -0.3968  0.1107  0.0262
   54CHL1  H16A 6424   0.093   4.748   8.988  0.7748 -0.6876 -0.2952
   54CHL1  H16B 6425   0.201   4.891   8.980 -1.6393  0.3795 -0.5358
   54CHL1   C17 6426   0.266   4.737   9.128 -0.3122 -0.3850 -0.0011
   54CHL1   H17 6427   0.356   4.801   9.145  0.8821 -1.7344 -0.9912
   54CHL1   C13 6428   0.211   4.719   9.265  0.0681 -0.2022  0.1675
   54CHL1   C18 6429   0.108   4.599   9.268 -0.6780  0.1554 -0.0125
   54CHL1  H18A 6430   0.163   4.505   9.248 -1.1253  0.1087 -1.0661
   54CHL1  H18B 6431   0.054   4.588   9.365  0.3015 -4.5607  0.2161
   54CHL1  H18C 6432   0.037   4.606   9.183 -3.9906 -1.9083  2.3474
   54CHL1   C12 6433   0.316   4.712   9.376 -0.1262  1.2537  0.0233
   54CHL1  H12A 6434   0.377   4.619   9.369  1.2018  2.1112 -0.2108
   54CHL1  H12B 6435   0.379   4.804   9.368  2.1044 -0.2970 -1.7914
   54CHL1   C11 6436   0.245   4.717   9.515 -0.2887 -0.4330 -0.3605
   54CHL1  H11A 6437   0.195   4.621   9.541 -1.4251 -0.0950 -1.2349
   54CHL1  H11B 6438   0.327   4.721   9.590  0.3834 -0.9555 -1.0498
   54CHL1    C9 6439   0.144   4.835   9.537  1.0432 -0.3381  0.1029
   54CHL1    H9 6440   0.206   4.928   9.541 -1.6378  1.5659  0.0168
   54CHL1   C10 6441   0.068   4.855   9.677  0.0746 -0.1875 -0.3368
   54CHL1   C19 6442  -0.003   4.718   9.706  0.0416  0.5849 -0.0207
   54CHL1  H19A 6443   0.060   4.634   9.743 -1.8933 -1.1909 -0.5458
   54CHL1  H19B 6444  -0.079   4.742   9.784 -1.1745 -1.3889 -0.5185
   54CHL1  H19C 6445  -0.051   4.691   9.609  2.2844 -0.8726 -0.8067
   54CHL1    C1 6446   0.181   4.878   9.791  0.0250  0.3823  0.0317
   54CHL1   H1A 6447   0.239   4.784   9.797  0.9899  0.7908 -1.9497
   54CHL1   H1B 6448   0.251   4.956   9.755  0.0465  0.1916 -0.3441
   54CHL1    C2 6449   0.126   4.915   9.928 -0.3774  0.0069 -0.3964
   54CHL1   H2A 6450   0.203   4.959   9.995 -1.1959  0.1520  0.4685
   54CHL1   H2B 6451   0.092   4.823   9.981  1.3434 -1.1043 -1.1591
   54CHL1   C20 6452   0.316   4.613   9.049  0.3792  0.3817  0.3524
   54CHL1   H20 6453   0.229   4.545   9.058  1.5582 -1.2071 -0.0128
   54CHL1   C21 6454   0.440   4.547   9.107  0.0714  0.2465 -0.4979
   54CHL1  H21A 6455   0.422   4.500   9.207  0.0784 -1.7368 -1.3846
   54CHL1  H21B 6456   0.517   4.626   9.114 -1.9392  2.6579 -3.0978
   54CHL1  H21C 6457   0.471   4.462   9.042  1.5722 -0.3913  0.9774
   54CHL1   C22 6458   0.341   4.635   8.899  0.1331  0.3043  0.4127
   54CHL1  H22A 6459   0.365   4.531   8.868  1.1918  0.2371  1.4113
   54CHL1  H22B 6460   0.247   4.665   8.847  0.2906  0.1071  0.0069
   54CHL1   C23 6461   0.454   4.726   8.850  0.6601 -0.3150  0.1916
   54CHL1  H23A 6462   0.420   4.832   8.842  0.6113 -0.3963 -0.7464
   54CHL1  H23B 6463   0.546   4.710   8.911  0.2838 -0.2306  0.7854
   54CHL1   C24 6464   0.489   4.692   8.710  0.1584  0.7844 -0.0513
   54CHL1  H24A 6465   0.502   4.582   8.695  0.4947  1.0696 -2.1522
   54CHL1  H24B 6466   0.404   4.720   8.644 -0.1774 -1.8538 -0.8826
   54CHL1   C25 6467   0.606   4.770   8.662  0.3317 -0.0551  0.1449
   54CHL1   H25 6468   0.588   4.866   8.715 -1.7353 -1.6012  2.4721
   54CHL1   C26 6469   0.734   4.703   8.723 -0.2510 -0.0653  0.4253
   54CHL1  H26A 6470   0.727   4.706   8.833  2.9421 -0.0882  0.7268
   54CHL1  H26B 6471   0.738   4.596   8.692  0.9830  0.1687 -0.2987
   54CHL1  H26C 6472   0.821   4.760   8.684 -1.9109  1.0840 -1.8358
   54CHL1   C27 6473   0.606   4.791   8.511  0.2356 -0.1213 -0.2921
   54CHL1  H27A 6474   0.515   4.849   8.485  0.1052 -0.3323 -0.3098
   54CHL1  H27B 6475   0.696   4.842   8.471  0.7153 -1.1662 -0.5703
   54CHL1  H27C 6476   0.592   4.692   8.462 -0.6652 -1.1759  1.9501
   55CHL1    C3 6477   0.454   2.244  10.038  0.1654 -0.0576 -0.1813
   55CHL1    H3 6478   0.557   2.255   9.998  0.1069 -1.7046 -0.8299
   55CHL1    O3 6479   0.465   2.244  10.176  0.2132  0.0106 -0.0698
   55CHL1   H3' 6480   0.380   2.211  10.208 -0.6078  1.6824 -0.3979
   55CHL1    C4 6481   0.359   2.348   9.981 -0.5391 -0.2110  0.4847
   55CHL1   H4A 6482   0.260   2.339  10.030  0.4392 -3.9147  2.0907
   55CHL1   H4B 6483   0.399   2.449  10.006 -0.4400  1.1220 -4.1023
   55CHL1    C5 6484   0.365   2.346   9.825  0.1860  0.5462 -0.5726
   55CHL1    C6 6485   0.400   2.448   9.744 -0.3461  0.0782 -0.3091
   55CHL1    H6 6486   0.415   2.547   9.788 -0.1929 -0.1526  0.1697
   55CHL1    C7 6487   0.412   2.437   9.602 -0.3486 -0.5170  0.2803
   55CHL1   H7A 6488   0.400   2.536   9.553  1.6144 -0.0340  0.6713
   55CHL1   H7B 6489   0.516   2.408   9.575 -0.6818 -2.5104  1.0156
   55CHL1    C8 6490   0.317   2.336   9.544 -0.6630  0.2418  0.5508
   55CHL1    H8 6491   0.218   2.380   9.570 -1.5560 -1.7556  0.6718
   55CHL1   C14 6492   0.339   2.324   9.395  0.4833  0.2440  0.4087
   55CHL1   H14 6493   0.439   2.277   9.384  0.2886 -0.1224  0.1697
   55CHL1   C15 6494   0.331   2.446   9.310 -0.8922  0.4240  0.6965
   55CHL1  H15A 6495   0.241   2.507   9.333 -1.2454  0.1390  0.1094
   55CHL1  H15B 6496   0.416   2.517   9.316 -0.5834  0.0228  1.0706
   55CHL1   C16 6497   0.324   2.396   9.162  1.1830  0.9691  0.3160
   55CHL1  H16A 6498   0.250   2.463   9.112  1.8108  0.7899 -0.8756
   55CHL1  H16B 6499   0.417   2.397   9.103  0.4515 -2.0040 -1.0418
   55CHL1   C17 6500   0.288   2.236   9.182 -0.1875 -0.8124 -0.1780
   55CHL1   H17 6501   0.378   2.173   9.167 -0.5996 -1.1455 -1.4456
   55CHL1   C13 6502   0.244   2.220   9.328 -0.3947  0.7837  0.0504
   55CHL1   C18 6503   0.091   2.253   9.342 -0.3234 -0.3015  0.7782
   55CHL1  H18A 6504   0.065   2.274   9.448 -2.8650 -1.4398  0.4612
   55CHL1  H18B 6505   0.053   2.343   9.289 -0.3762  0.5297  2.1916
   55CHL1  H18C 6506   0.038   2.161   9.309 -0.4850  0.0724 -0.0185
   55CHL1   C12 6507   0.284   2.086   9.387  0.4019  0.4139  0.2635
   55CHL1  H12A 6508   0.213   2.006   9.354  0.5502  0.0441  0.8238
   55CHL1  H12B 6509   0.381   2.045   9.350  0.1426  1.4564 -1.7287
   55CHL1   C11 6510   0.272   2.084   9.538 -0.2914  0.0662 -0.0234
   55CHL1  H11A 6511   0.163   2.101   9.554  0.3947  1.2252  4.7801
   55CHL1  H11B 6512   0.285   1.983   9.581 -1.4461 -0.0686  0.0466
   55CHL1    C9 6513   0.341   2.201   9.611 -0.4786  0.0295 -0.8810
   55CHL1    H9 6514   0.451   2.189   9.602 -0.3411  1.6025 -1.4713
   55CHL1   C10 6515   0.325   2.210   9.766  0.5302  0.0339  0.8581
   55CHL1   C19 6516   0.172   2.187   9.792 -0.3466  0.4138  0.4811
   55CHL1  H19A 6517   0.143   2.196   9.898  1.1275  0.4711  0.9108
   55CHL1  H19B 6518   0.116   2.268   9.740 -1.4319 -1.7156 -1.8688
   55CHL1  H19C 6519   0.142   2.087   9.755  2.4594 -1.7944  3.6362
   55CHL1    C1 6520   0.404   2.099   9.838 -0.2876 -0.2484 -0.2241
   55CHL1   H1A 6521   0.366   2.006   9.791  2.0845 -0.5480 -1.7086
   55CHL1   H1B 6522   0.511   2.120   9.816 -0.2178  0.2662  0.5805
   55CHL1    C2 6523   0.410   2.101   9.993 -0.3526 -0.2011  0.0743
   55CHL1   H2A 6524   0.478   2.024  10.037  1.0223  0.8307 -0.1589
   55CHL1   H2B 6525   0.313   2.077  10.040  0.8004 -2.3474  1.5674
   55CHL1   C20 6526   0.185   2.198   9.067  0.1548  0.0068 -0.1353
   55CHL1   H20 6527   0.092   2.252   9.092  1.2079  2.1954 -0.7071
   55CHL1   C21 6528   0.158   2.044   9.077 -0.4284 -0.2856  0.1028
   55CHL1  H21A 6529   0.119   2.017   9.177  1.2967  2.2559  1.5930
   55CHL1  H21B 6530   0.255   1.990   9.077  0.2008  0.6910  2.5958
   55CHL1  H21C 6531   0.094   2.005   8.996  2.5491 -2.2425 -1.5040
   55CHL1   C22 6532   0.224   2.246   8.930  0.3007 -0.0164  0.1238
   55CHL1  H22A 6533   0.231   2.357   8.940 -0.4438 -0.0117  0.7228
   55CHL1  H22B 6534   0.327   2.214   8.903  0.1767 -0.0544 -0.3170
   55CHL1   C23 6535   0.149   2.215   8.798 -0.7866 -0.1313 -0.1516
   55CHL1  H23A 6536   0.146   2.105   8.783  1.5807 -0.5901  2.0600
   55CHL1  H23B 6537   0.048   2.254   8.824 -0.5895  0.9952 -0.9659
   55CHL1   C24 6538   0.209   2.291   8.668  0.4139  0.0932  0.4630
   55CHL1  H24A 6539   0.193   2.400   8.684 -0.0299 -0.2657  2.8229
   55CHL1  H24B 6540   0.317   2.270   8.653  0.5198  1.6818 -1.4977
   55CHL1   C25 6541   0.147   2.250   8.534 -0.8776 -1.2778 -0.5573
   55CHL1   H25 6542   0.140   2.139   8.544  2.2312 -1.4287  1.5783
   55CHL1   C26 6543   0.013   2.315   8.513  0.1364 -0.2085 -0.4841
   55CHL1  H26A 6544  -0.033   2.290   8.415 -0.4390  0.6337 -0.4364
   55CHL1  H26B 6545  -0.058   2.275   8.589 -1.2915  2.0181 -0.5612
   55CHL1  H26C 6546   0.007   2.423   8.536 -1.5830  0.2841 -2.8667
   55CHL1   C27 6547   0.240   2.286   8.414  0.3731 -0.6876 -0.1802
   55CHL1  H27A 6548   0.274   2.391   8.421 -0.2056 -0.5985  1.6531
   55CHL1  H27B 6549   0.319   2.210   8.396 -1.2501 -3.0018  1.7640
   55CHL1  H27C 6550   0.180   2.278   8.320  0.0791 -0.3543 -0.0250
   56CHL1    C3 6551   5.862   1.340  10.067 -0.0383  0.7151  0.8558
   56CHL1    H3 6552   5.952   1.401  10.043  0.5633 -1.0407 -1.8906
   56CHL1    O3 6553   5.856   1.324  10.214 -0.2882  0.7232  0.0770
   56CHL1   H3' 6554   5.888   1.410  10.244 -0.6225  2.1931 -3.3519
   56CHL1    C4 6555   5.726   1.401  10.029 -1.0017 -0.3218 -0.6534
   56CHL1   H4A 6556   5.643   1.331  10.052 -2.4647  1.4459 -0.2938
   56CHL1   H4B 6557   5.718   1.492  10.092  0.9130 -0.4518 -0.1746
   56CHL1    C5 6558   5.742   1.437   9.882 -0.0680  0.9624  0.2962
   56CHL1    C6 6559   5.737   1.568   9.842  0.5939 -0.6557  0.1116
   56CHL1    H6 6560   5.717   1.652   9.911 -2.1055  1.4075 -2.8435
   56CHL1    C7 6561   5.746   1.612   9.700  0.7509  0.5298 -0.0321
   56CHL1   H7A 6562   5.666   1.684   9.671  0.4699  0.7209  1.1569
   56CHL1   H7B 6563   5.842   1.661   9.673  0.7965 -0.1976 -1.2532
   56CHL1    C8 6564   5.726   1.492   9.609  0.1977 -0.4034 -0.1458
   56CHL1    H8 6565   5.619   1.461   9.609  0.5352 -1.6341 -0.2181
   56CHL1   C14 6566   5.751   1.530   9.461  0.0254  0.0592  0.0705
   56CHL1   H14 6567   5.859   1.556   9.455 -0.1787  0.6645 -1.2030
   56CHL1   C15 6568   5.680   1.654   9.400 -0.2818 -0.1924 -0.0022
   56CHL1  H15A 6569   5.587   1.668   9.459 -0.1944 -1.2251  0.3989
   56CHL1  H15B 6570   5.724   1.755   9.411 -2.3025  0.9600 -1.8063
   56CHL1   C16 6571   5.669   1.626   9.244  0.4448 -0.0966  0.2060
   56CHL1  H16A 6572   5.563   1.627   9.212  0.7281  1.0044 -0.7653
   56CHL1  H16B 6573   5.731   1.704   9.196 -0.0645  0.8813  1.0917
   56CHL1   C17 6574   5.739   1.486   9.222  0.2268 -0.3958 -0.8195
   56CHL1   H17 6575   5.845   1.515   9.207 -0.7179  3.2980 -1.4368
   56CHL1   C13 6576   5.732   1.417   9.363  0.1650 -0.2579 -0.1935
   56CHL1   C18 6577   5.592   1.352   9.371 -0.2587  0.1301  0.0189
   56CHL1  H18A 6578   5.572   1.263   9.308  1.4489 -1.5064  1.6882
   56CHL1  H18B 6579   5.555   1.317   9.469 -0.4830 -1.5794 -0.6373
   56CHL1  H18C 6580   5.514   1.429   9.352  0.6429  0.6598 -1.8116
   56CHL1   C12 6581   5.840   1.312   9.398 -0.6556  0.3002 -0.3049
   56CHL1  H12A 6582   5.838   1.223   9.331  2.0460 -1.5784  1.8899
   56CHL1  H12B 6583   5.940   1.358   9.385 -0.1332 -0.6112  0.3160
   56CHL1   C11 6584   5.836   1.261   9.543 -0.1277 -0.6524 -0.3110
   56CHL1  H11A 6585   5.744   1.201   9.554  1.3778 -2.5736  4.1927
   56CHL1  H11B 6586   5.915   1.189   9.575 -1.1047 -1.4896  0.2779
   56CHL1    C9 6587   5.811   1.373   9.653  0.2270  0.0955  0.3474
   56CHL1    H9 6588   5.911   1.422   9.659  0.4706 -0.5289  3.9992
   56CHL1   C10 6589   5.767   1.319   9.789 -0.6898 -0.6939  0.4454
   56CHL1   C19 6590   5.632   1.237   9.778 -0.5006 -0.6014  0.1394
   56CHL1  H19A 6591   5.611   1.198   9.880  1.9489  0.1445  0.9852
   56CHL1  H19B 6592   5.542   1.297   9.750 -0.5820 -0.1734  1.2753
   56CHL1  H19C 6593   5.629   1.155   9.702  0.0102 -0.7180  0.2458
   56CHL1    C1 6594   5.884   1.233   9.844  0.1839 -1.5562 -0.2100
   56CHL1   H1A 6595   5.888   1.139   9.786 -2.6355  0.4613 -4.1065
   56CHL1   H1B 6596   5.967   1.303   9.823 -1.3107  0.1414 -0.7131
   56CHL1    C2 6597   5.874   1.201   9.995  0.0620 -0.0377  0.7082
   56CHL1   H2A 6598   5.963   1.144  10.029 -1.1748 -1.2069  2.1084
   56CHL1   H2B 6599   5.782   1.144  10.021  0.4488 -0.7070  0.6387
   56CHL1   C20 6600   5.696   1.417   9.100 -0.6582  0.1712  0.6881
   56CHL1   H20 6601   5.604   1.359   9.122 -0.1666 -0.8335  0.2006
   56CHL1   C21 6602   5.807   1.318   9.047  0.2358 -0.0906 -0.3424
   56CHL1  H21A 6603   5.904   1.369   9.030  1.1536 -1.5530  0.2893
   56CHL1  H21B 6604   5.768   1.274   8.952  0.3022  1.5195 -1.1460
   56CHL1  H21C 6605   5.823   1.242   9.126 -2.0315 -0.0592  0.2412
   56CHL1   C22 6606   5.640   1.495   8.972  0.2845  0.3793 -0.8866
   56CHL1  H22A 6607   5.629   1.419   8.892  2.2597 -1.5055  0.5059
   56CHL1  H22B 6608   5.540   1.538   8.995  0.0946  0.0744 -1.1524
   56CHL1   C23 6609   5.728   1.605   8.912 -0.2502  0.1834 -0.1220
   56CHL1  H23A 6610   5.777   1.657   8.997 -2.5757 -0.5705  1.7896
   56CHL1  H23B 6611   5.810   1.549   8.860  0.1665  3.0799 -2.9058
   56CHL1   C24 6612   5.653   1.696   8.821 -0.0997 -0.7440  0.6820
   56CHL1  H24A 6613   5.602   1.637   8.742 -2.8550  1.3666  0.7280
   56CHL1  H24B 6614   5.583   1.751   8.888  2.0167  1.3738  1.2838
   56CHL1   C25 6615   5.726   1.804   8.742 -0.1232  0.1528 -0.9855
   56CHL1   H25 6616   5.807   1.759   8.681 -0.4094 -0.7587 -0.7151
   56CHL1   C26 6617   5.639   1.895   8.658  0.0075 -0.0743 -0.6598
   56CHL1  H26A 6618   5.575   1.840   8.586 -0.7476 -2.2863  1.5674
   56CHL1  H26B 6619   5.567   1.946   8.725 -0.7519 -1.6097 -0.2696
   56CHL1  H26C 6620   5.709   1.968   8.611 -0.9997  1.7304  0.5468
   56CHL1   C27 6621   5.799   1.894   8.842 -0.9264  0.2548  0.3670
   56CHL1  H27A 6622   5.854   1.831   8.915  0.0151 -1.7753 -1.9115
   56CHL1  H27B 6623   5.865   1.967   8.791 -0.6776 -0.5582 -0.5105
   56CHL1  H27C 6624   5.733   1.954   8.907 -1.4484  0.6976 -0.5523
   57CHL1    C3 6625   2.796   2.638  10.120 -0.3065 -0.2343  0.2581
   57CHL1    H3 6626   2.887   2.582  10.090  0.6840  0.2384  2.2170
   57CHL1    O3 6627   2.802   2.669  10.258  0.2595  0.0910 -0.3909
   57CHL1   H3' 6628   2.721   2.721  10.262  0.7873  0.8632  1.0935
   57CHL1    C4 6629   2.796   2.771  10.036 -0.5767  0.0133 -0.1191
   57CHL1   H4A 6630   2.721   2.840  10.081 -2.1402 -0.7512 -1.4152
   57CHL1   H4B 6631   2.899   2.810  10.047 -0.0620  0.0356 -3.8182
   57CHL1    C5 6632   2.764   2.758   9.889  0.4647 -0.6348 -0.6530
   57CHL1    C6 6633   2.841   2.818   9.801 -0.4012 -0.0438 -0.1094
   57CHL1    H6 6634   2.929   2.875   9.835  0.4922 -0.8603 -0.9705
   57CHL1    C7 6635   2.822   2.807   9.651 -0.1570 -0.8383 -1.5352
   57CHL1   H7A 6636   2.844   2.902   9.598  0.3140  1.7634  2.8906
   57CHL1   H7B 6637   2.893   2.728   9.618 -0.5017 -2.3461  1.0720
   57CHL1    C8 6638   2.687   2.752   9.614  0.2178  0.5569  0.2909
   57CHL1    H8 6639   2.614   2.835   9.615 -0.1661  0.2817 -1.7111
   57CHL1   C14 6640   2.689   2.710   9.471  0.0008 -0.0881  0.2750
   57CHL1   H14 6641   2.777   2.644   9.458  1.4483  1.8260 -0.1066
   57CHL1   C15 6642   2.707   2.816   9.362  0.3460  0.8877  0.2021
   57CHL1  H15A 6643   2.658   2.914   9.378 -0.5923  0.5211 -0.3800
   57CHL1  H15B 6644   2.814   2.833   9.336  0.2444 -0.4442 -1.2589
   57CHL1   C16 6645   2.638   2.759   9.240 -0.2288 -0.1840 -0.0963
   57CHL1  H16A 6646   2.563   2.821   9.186 -1.1953 -0.3823  0.9732
   57CHL1  H16B 6647   2.720   2.724   9.173 -0.2557 -1.7265  0.6285
   57CHL1   C17 6648   2.570   2.624   9.277 -0.4669 -0.1393 -0.0116
   57CHL1   H17 6649   2.649   2.548   9.258 -1.3814 -1.1134 -0.0679
   57CHL1   C13 6650   2.558   2.635   9.429 -0.5877  0.1767 -0.0539
   57CHL1   C18 6651   2.437   2.726   9.460  0.3664  0.2055 -0.2152
   57CHL1  H18A 6652   2.442   2.822   9.405  1.5125  0.4306  0.2495
   57CHL1  H18B 6653   2.348   2.672   9.421 -0.5036  0.2491  1.6036
   57CHL1  H18C 6654   2.415   2.749   9.567  0.1761 -0.4874 -0.1000
   57CHL1   C12 6655   2.553   2.502   9.508 -0.1354 -0.1274 -1.1151
   57CHL1  H12A 6656   2.457   2.453   9.480 -2.2844  1.4536  2.7033
   57CHL1  H12B 6657   2.642   2.441   9.483  0.3792  0.3417 -0.4559
   57CHL1   C11 6658   2.537   2.529   9.656  0.0978 -0.0810  0.4540
   57CHL1  H11A 6659   2.438   2.571   9.683 -0.3535  0.1334 -1.3999
   57CHL1  H11B 6660   2.556   2.440   9.720 -0.6381  0.2437  1.1436
   57CHL1    C9 6661   2.652   2.631   9.706 -0.7464  0.5896  0.0977
   57CHL1    H9 6662   2.746   2.571   9.702 -0.3311  1.2959 -1.2748
   57CHL1   C10 6663   2.636   2.670   9.856  0.0621  0.0713 -0.8398
   57CHL1   C19 6664   2.503   2.740   9.880 -0.1467 -0.4186  0.1383
   57CHL1  H19A 6665   2.480   2.822   9.808 -1.3118  0.7894  1.8360
   57CHL1  H19B 6666   2.419   2.668   9.874  0.0216 -0.5368 -1.0683
   57CHL1  H19C 6667   2.494   2.779   9.983 -1.4564 -0.5591  0.0965
   57CHL1    C1 6668   2.650   2.541   9.937  0.2248  0.3023 -0.0643
   57CHL1   H1A 6669   2.554   2.487   9.923  1.2014 -1.7811  0.9072
   57CHL1   H1B 6670   2.731   2.477   9.897  0.2628 -1.0618  1.9970
   57CHL1    C2 6671   2.670   2.558  10.087 -0.4857  0.0811  0.0931
   57CHL1   H2A 6672   2.680   2.462  10.142  2.7861  1.2658  1.8945
   57CHL1   H2B 6673   2.585   2.608  10.137  0.0565  1.9887 -0.7623
   57CHL1   C20 6674   2.450   2.571   9.178  0.5882 -0.2539 -0.3002
   57CHL1   H20 6675   2.403   2.486   9.232  2.3058  0.0268  1.8109
   57CHL1   C21 6676   2.533   2.513   9.062  0.0717  0.5411 -0.3731
   57CHL1  H21A 6677   2.457   2.461   9.000  0.9492  0.0344 -1.0455
   57CHL1  H21B 6678   2.595   2.432   9.104  0.8373  1.7387  0.9071
   57CHL1  H21C 6679   2.596   2.580   8.999  0.6870 -0.8882 -1.3246
   57CHL1   C22 6680   2.338   2.672   9.133 -0.0809 -0.1835  0.8986
   57CHL1  H22A 6681   2.287   2.701   9.228  1.5734  1.2531  1.4093
   57CHL1  H22B 6682   2.392   2.755   9.082  0.0505  2.0695  4.3337
   57CHL1   C23 6683   2.233   2.617   9.033  0.0095 -0.4743  0.0003
   57CHL1  H23A 6684   2.270   2.596   8.931  1.4843 -3.9177  1.0643
   57CHL1  H23B 6685   2.199   2.515   9.062 -1.5099 -0.6376 -2.0930
   57CHL1   C24 6686   2.104   2.709   9.037 -0.2437  0.5580 -0.4367
   57CHL1  H24A 6687   2.111   2.765   9.132  0.7176 -2.7295  1.5758
   57CHL1  H24B 6688   2.113   2.786   8.957 -1.8766  0.1890 -1.0291
   57CHL1   C25 6689   1.974   2.633   9.014  0.0101  0.5428  1.0260
   57CHL1   H25 6690   1.988   2.562   8.930 -1.3424  0.2013  1.0576
   57CHL1   C26 6691   1.910   2.566   9.133 -0.3196  0.3541  0.0253
   57CHL1  H26A 6692   1.883   2.642   9.210 -0.1894  0.0700  0.3560
   57CHL1  H26B 6693   1.816   2.512   9.109 -0.6795  0.0402  1.9648
   57CHL1  H26C 6694   1.976   2.489   9.179 -0.6781 -0.4101 -0.7091
   57CHL1   C27 6695   1.877   2.733   8.941 -0.0251 -0.2052 -0.7050
   57CHL1  H27A 6696   1.911   2.758   8.839 -2.7178  0.3071 -1.5670
   57CHL1  H27B 6697   1.774   2.691   8.947 -0.1908  0.3551  0.8965
   57CHL1  H27C 6698   1.876   2.823   9.006  0.5906 -0.4100 -0.4029
   58CHL1    C3 6699   6.569   6.071  10.164 -0.8324  0.0283 -0.3196
   58CHL1    H3 6700   6.634   6.157  10.140  0.3886 -1.5345 -2.9472
   58CHL1    O3 6701   6.571   6.024  10.303  0.3775 -0.1932  0.0988
   58CHL1   H3' 6702   6.483   5.992  10.320 -0.6245  0.1871 -3.5248
   58CHL1    C4 6703   6.423   6.101  10.123 -0.2028 -0.7836  0.4273
   58CHL1   H4A 6704   6.370   6.009  10.157 -0.6317 -0.8110 -0.3104
   58CHL1   H4B 6705   6.400   6.190  10.185 -0.4554 -1.2209  0.9689
   58CHL1    C5 6706   6.384   6.125   9.984  0.3347  0.0369  0.5526
   58CHL1    C6 6707   6.326   6.239   9.955  0.9021 -0.0014  0.5816
   58CHL1    H6 6708   6.296   6.304  10.039 -0.3783 -1.7491  1.5415
   58CHL1    C7 6709   6.300   6.283   9.812 -0.2688 -0.7509 -0.2828
   58CHL1   H7A 6710   6.195   6.317   9.807 -0.0377 -0.0839 -0.9111
   58CHL1   H7B 6711   6.364   6.370   9.783 -0.5564 -1.2481 -2.6707
   58CHL1    C8 6712   6.323   6.167   9.712  0.2898 -0.0252 -0.5293
   58CHL1    H8 6713   6.245   6.088   9.721  1.8058 -1.3721  2.2377
   58CHL1   C14 6714   6.336   6.223   9.568  0.2009  0.1405  0.7120
   58CHL1   H14 6715   6.422   6.293   9.570 -1.1452  1.8511  1.2047
   58CHL1   C15 6716   6.230   6.327   9.519 -0.2171  0.2337 -0.1070
   58CHL1  H15A 6717   6.130   6.279   9.529  0.2431 -0.7907 -0.2618
   58CHL1  H15B 6718   6.233   6.421   9.577  2.2119 -0.6527  1.3755
   58CHL1   C16 6719   6.261   6.326   9.364  0.6794 -0.8637  0.0945
   58CHL1  H16A 6720   6.173   6.301   9.301  2.7380  0.6537 -3.7209
   58CHL1  H16B 6721   6.288   6.431   9.341  0.7450 -0.7574  0.6450
   58CHL1   C17 6722   6.370   6.219   9.330 -0.4096  0.2961  0.0645
   58CHL1   H17 6723   6.472   6.261   9.321 -0.7254  0.7501 -1.8043
   58CHL1   C13 6724   6.369   6.123   9.455 -0.8626 -0.6780  0.5926
   58CHL1   C18 6725   6.262   6.016   9.448 -0.4427 -0.0824  0.0766
   58CHL1  H18A 6726   6.243   5.961   9.542 -2.3133  0.3600 -0.0055
   58CHL1  H18B 6727   6.165   6.069   9.436  0.5764  1.2531 -4.2733
   58CHL1  H18C 6728   6.276   5.944   9.364  4.9561 -2.2205  2.3803
   58CHL1   C12 6729   6.509   6.054   9.491 -0.2452 -0.0560 -0.6249
   58CHL1  H12A 6730   6.521   5.976   9.413 -1.8351  0.2130 -1.1807
   58CHL1  H12B 6731   6.592   6.127   9.500  1.4884 -1.9368 -0.7613
   58CHL1   C11 6732   6.506   5.994   9.626  0.0686 -0.4330  0.4834
   58CHL1  H11A 6733   6.442   5.905   9.636  0.8696 -0.9178  1.4967
   58CHL1  H11B 6734   6.606   5.954   9.654 -0.3665 -0.7501  1.6281
   58CHL1    C9 6735   6.451   6.086   9.744 -0.1470  0.4457 -0.5255
   58CHL1    H9 6736   6.527   6.166   9.758  1.9587 -1.3700 -1.1380
   58CHL1   C10 6737   6.453   6.023   9.886  0.0485 -0.1837  0.3777
   58CHL1   C19 6738   6.374   5.888   9.877  0.5466  0.3424 -0.9379
   58CHL1  H19A 6739   6.271   5.900   9.837  0.6201  2.9572 -0.4793
   58CHL1  H19B 6740   6.423   5.811   9.813 -0.5645 -0.4482 -0.8816
   58CHL1  H19C 6741   6.377   5.840   9.977  0.6730 -1.3868 -1.7332
   58CHL1    C1 6742   6.603   5.998   9.918 -0.6547  0.9181 -0.3238
   58CHL1   H1A 6743   6.629   5.905   9.863 -1.1917  1.3787 -1.3870
   58CHL1   H1B 6744   6.677   6.074   9.883  0.3936  0.1622  0.1753
   58CHL1    C2 6745   6.627   5.962  10.074  0.2799  0.6986 -0.1182
   58CHL1   H2A 6746   6.734   5.948  10.099 -0.0205 -0.3399  0.6067
   58CHL1   H2B 6747   6.576   5.867  10.099  0.0207  0.7272 -0.5246
   58CHL1   C20 6748   6.341   6.156   9.191 -0.4022  0.3319 -0.1833
   58CHL1   H20 6749   6.252   6.090   9.201  0.8519 -1.7807 -2.0472
   58CHL1   C21 6750   6.454   6.051   9.145  0.0235  0.2249  0.5321
   58CHL1  H21A 6751   6.476   5.956   9.199 -0.5730  0.0170  0.4194
   58CHL1  H21B 6752   6.548   6.109   9.146  0.2410 -0.0579 -0.7799
   58CHL1  H21C 6753   6.437   6.037   9.036  1.8160  0.0897  0.2438
   58CHL1   C22 6754   6.308   6.250   9.072 -0.3114 -0.3640 -0.1657
   58CHL1  H22A 6755   6.232   6.208   9.002  0.2869  0.5424 -1.3975
   58CHL1  H22B 6756   6.266   6.341   9.120  1.3561  0.5478 -0.3691
   58CHL1   C23 6757   6.426   6.313   8.995  0.0395 -0.0736  0.1382
   58CHL1  H23A 6758   6.499   6.356   9.067  0.0391 -0.1968  0.2116
   58CHL1  H23B 6759   6.490   6.231   8.955  0.6755  0.9277 -0.9878
   58CHL1   C24 6760   6.389   6.406   8.877 -0.2213 -0.2388  0.3583
   58CHL1  H24A 6761   6.324   6.349   8.807 -0.2808  2.2903 -1.8170
   58CHL1  H24B 6762   6.337   6.492   8.924  1.5597 -0.2816  2.6214
   58CHL1   C25 6763   6.515   6.459   8.807  0.1840 -0.0889  0.7584
   58CHL1   H25 6764   6.578   6.504   8.887  0.7099  0.9573 -0.2294
   58CHL1   C26 6765   6.600   6.350   8.747 -0.2407 -0.0324 -0.0549
   58CHL1  H26A 6766   6.673   6.408   8.687 -2.2179  2.6756 -0.0577
   58CHL1  H26B 6767   6.661   6.291   8.818  3.0024  1.6665 -1.2294
   58CHL1  H26C 6768   6.535   6.291   8.678  0.5072 -1.5843  0.5085
   58CHL1   C27 6769   6.487   6.565   8.701  0.3783 -0.3721 -0.8198
   58CHL1  H27A 6770   6.583   6.612   8.670  0.7630 -0.6751 -0.0978
   58CHL1  H27B 6771   6.441   6.517   8.612  1.5784  0.3300 -1.8509
   58CHL1  H27C 6772   6.426   6.653   8.730 -0.0461 -0.5998 -1.0054
   59CHL1    C3 6773   0.047   0.318  10.190 -0.0323 -0.1515 -0.2241
   59CHL1    H3 6774  -0.055   0.346  10.158  0.6056  0.3248 -1.9246
   59CHL1    O3 6775   0.047   0.330  10.333  0.2947  0.7864 -0.0584
   59CHL1   H3' 6776  -0.027   0.286  10.375  2.3537 -0.1277  3.0057
   59CHL1    C4 6777   0.075   0.170  10.156 -0.7501  0.1194 -0.0797
   59CHL1   H4A 6778   0.178   0.143  10.190 -1.0005 -1.0490 -0.1919
   59CHL1   H4B 6779   0.006   0.105  10.213  0.0051 -0.7963 -0.1634
   59CHL1    C5 6780   0.070   0.155  10.007 -0.6521 -0.3589 -0.0066
   59CHL1    C6 6781  -0.020   0.067   9.946 -0.5106  0.7587 -0.5641
   59CHL1    H6 6782  -0.091   0.014  10.012  0.0899  1.3005  0.5538
   59CHL1    C7 6783  -0.034   0.043   9.800 -0.8687 -0.1954  0.5108
   59CHL1   H7A 6784  -0.022  -0.064   9.773  0.2622 -0.0688  0.4586
   59CHL1   H7B 6785  -0.127   0.092   9.765 -0.6397  2.1712  2.8926
   59CHL1    C8 6786   0.091   0.107   9.724  0.5346 -0.2567 -0.4752
   59CHL1    H8 6787   0.175   0.035   9.737  0.9885  0.4009  0.2452
   59CHL1   C14 6788   0.061   0.122   9.575 -0.3266 -0.1205 -0.9765
   59CHL1   H14 6789  -0.016   0.202   9.566 -0.2586  0.0054 -0.5060
   59CHL1   C15 6790  -0.009   0.008   9.499 -0.9476  0.0383  0.0876
   59CHL1  H15A 6791   0.054  -0.080   9.525 -1.8328 -1.3438 -2.1070
   59CHL1  H15B 6792  -0.114  -0.021   9.521 -0.8156  0.1255  0.8654
   59CHL1   C16 6793   0.020   0.042   9.351 -0.7578  0.1456  0.5150
   59CHL1  H16A 6794   0.070  -0.040   9.295 -0.3780  1.3639 -0.9900
   59CHL1  H16B 6795  -0.075   0.069   9.300 -0.8073 -0.9718 -0.0266
   59CHL1   C17 6796   0.106   0.173   9.347 -0.1388  0.3086  1.1205
   59CHL1   H17 6797   0.026   0.251   9.349  0.4575  0.9506  0.5036
   59CHL1   C13 6798   0.182   0.176   9.486  0.2042 -0.7124  0.4757
   59CHL1   C18 6799   0.292   0.064   9.483  0.8555 -0.2023  0.5125
   59CHL1  H18A 6800   0.376   0.098   9.419 -1.5536 -0.0252 -2.8924
   59CHL1  H18B 6801   0.318   0.029   9.585 -0.9557  0.2363  1.1731
   59CHL1  H18C 6802   0.246  -0.025   9.435 -0.8981  1.1811 -0.4979
   59CHL1   C12 6803   0.231   0.316   9.539 -0.4728 -0.6082  0.3088
   59CHL1  H12A 6804   0.328   0.336   9.488 -2.0670  1.2478 -2.2134
   59CHL1  H12B 6805   0.153   0.391   9.517 -0.1538 -0.1448  0.7485
   59CHL1   C11 6806   0.256   0.308   9.682  0.2175 -0.8938 -0.4486
   59CHL1  H11A 6807   0.344   0.240   9.688  0.8270 -0.0789  0.1449
   59CHL1  H11B 6808   0.289   0.405   9.726 -2.6555  0.6325 -1.4603
   59CHL1    C9 6809   0.136   0.244   9.772  0.4549  0.2327  0.0225
   59CHL1    H9 6810   0.052   0.315   9.759  2.1975  2.1134 -1.9582
   59CHL1   C10 6811   0.178   0.240   9.926 -0.1384  0.3202  0.3912
   59CHL1   C19 6812   0.316   0.177   9.951  0.2434 -0.2625 -0.0338
   59CHL1  H19A 6813   0.354   0.221  10.046 -1.3497 -1.1262  1.0606
   59CHL1  H19B 6814   0.305   0.066   9.959  1.7814 -0.4309  0.0089
   59CHL1  H19C 6815   0.391   0.205   9.874  1.0425 -0.9301  0.4766
   59CHL1    C1 6816   0.162   0.394   9.974 -0.3577  0.2908  0.7507
   59CHL1   H1A 6817   0.252   0.449   9.940 -0.7730  0.5399  0.0290
   59CHL1   H1B 6818   0.065   0.431   9.935 -1.2095 -2.5173 -0.0512
   59CHL1    C2 6819   0.155   0.410  10.127  0.4751  0.3782  0.4372
   59CHL1   H2A 6820   0.123   0.514  10.147  1.5052  1.1513 -1.6205
   59CHL1   H2B 6821   0.259   0.406  10.165  1.1807 -2.1365 -1.4485
   59CHL1   C20 6822   0.190   0.202   9.219  0.7108 -0.1600  0.5029
   59CHL1   H20 6823   0.284   0.144   9.209  0.7971  0.3487 -2.1882
   59CHL1   C21 6824   0.221   0.351   9.199  0.1554 -0.4438  0.3078
   59CHL1  H21A 6825   0.295   0.386   9.275  0.8165 -0.0095 -0.5249
   59CHL1  H21B 6826   0.129   0.413   9.209  0.6438  0.4399 -0.5388
   59CHL1  H21C 6827   0.279   0.366   9.106  0.6445  0.3290  0.7305
   59CHL1   C22 6828   0.104   0.163   9.089  0.6351  0.1392  0.2266
   59CHL1  H22A 6829   0.090   0.053   9.083  2.6510 -0.0912 -3.7476
   59CHL1  H22B 6830   0.002   0.207   9.092 -0.0972 -1.2637 -1.7393
   59CHL1   C23 6831   0.153   0.197   8.946 -0.0699  0.0285  0.0014
   59CHL1  H23A 6832   0.104   0.291   8.913 -0.4844 -0.2150 -0.0761
   59CHL1  H23B 6833   0.261   0.220   8.960 -0.3859  2.0709 -0.6413
   59CHL1   C24 6834   0.124   0.091   8.841  0.2280 -0.1614  0.4436
   59CHL1  H24A 6835   0.174  -0.003   8.872 -1.2519 -0.5527  1.7730
   59CHL1  H24B 6836   0.017   0.066   8.855  0.6440 -1.0582  2.3000
   59CHL1   C25 6837   0.155   0.114   8.696 -0.9304 -0.0359  0.7105
   59CHL1   H25 6838   0.135   0.017   8.646  0.9867  0.3549 -0.8919
   59CHL1   C26 6839   0.062   0.209   8.636  0.2534 -0.0651  0.7128
   59CHL1  H26A 6840   0.063   0.207   8.524 -1.2602  1.2716  0.6426
   59CHL1  H26B 6841  -0.037   0.169   8.664 -0.2339 -0.1884 -1.0621
   59CHL1  H26C 6842   0.074   0.314   8.669  2.3137  0.6777 -2.0157
   59CHL1   C27 6843   0.301   0.157   8.669 -0.2063 -0.4549 -0.0057
   59CHL1  H27A 6844   0.378   0.089   8.710  1.0011  1.2165  0.5948
   59CHL1  H27B 6845   0.306   0.171   8.559  0.5330 -0.4345  0.0304
   59CHL1  H27C 6846   0.319   0.261   8.704 -1.4365 -0.1183 -0.3139
   60CHL1    C3 6847   1.013   6.100  10.158  0.0188  0.1701  0.8942
   60CHL1    H3 6848   0.999   6.202  10.116 -0.5897 -0.6646 -1.0691
   60CHL1    O3 6849   0.959   6.097  10.287  0.1901  0.7214 -0.5513
   60CHL1   H3' 6850   0.999   6.019  10.325 -1.5208 -0.2128 -0.5341
   60CHL1    C4 6851   0.940   5.993  10.075  1.0465 -0.1476  0.2748
   60CHL1   H4A 6852   0.955   5.889  10.111 -0.5942 -0.3775  0.3556
   60CHL1   H4B 6853   0.831   5.996  10.097  1.4582  1.3797  2.4433
   60CHL1    C5 6854   0.977   6.012   9.929 -0.1701  0.3680 -0.4972
   60CHL1    C6 6855   0.897   6.039   9.826 -0.2485 -0.5358 -0.4696
   60CHL1    H6 6856   0.791   6.055   9.853  0.5169  1.5747  1.5333
   60CHL1    C7 6857   0.938   6.054   9.690  0.9921 -0.2717  0.6136
   60CHL1   H7A 6858   0.877   5.985   9.627 -0.1292  1.7287 -0.5973
   60CHL1   H7B 6859   0.908   6.156   9.659 -2.5244 -1.1242  0.7298
   60CHL1    C8 6860   1.080   6.010   9.654  0.5073 -0.2178  0.2314
   60CHL1    H8 6861   1.073   5.901   9.637 -1.5693 -0.1286  0.2792
   60CHL1   C14 6862   1.120   6.078   9.523 -0.5126 -0.3544  0.1629
   60CHL1   H14 6863   1.134   6.185   9.548 -1.0055  0.2526 -1.9978
   60CHL1   C15 6864   1.027   6.061   9.407  0.2777 -0.5170 -0.0209
   60CHL1  H15A 6865   0.990   5.956   9.412 -0.7334 -0.1030  1.6644
   60CHL1  H15B 6866   0.936   6.124   9.405  0.7239  0.1209 -1.4782
   60CHL1   C16 6867   1.116   6.091   9.285  0.2604  0.4300 -0.7424
   60CHL1  H16A 6868   1.120   6.003   9.217  2.2323  0.6906 -1.0142
   60CHL1  H16B 6869   1.090   6.190   9.242 -0.1866  1.3010  1.3825
   60CHL1   C17 6870   1.263   6.100   9.346 -0.0566  0.5239  0.3733
   60CHL1   H17 6871   1.296   6.204   9.365  1.8586 -0.1812  1.1884
   60CHL1   C13 6872   1.262   6.032   9.483  0.1873  0.4638 -0.7852
   60CHL1   C18 6873   1.265   5.873   9.457  0.7130  0.1726 -0.1976
   60CHL1  H18A 6874   1.371   5.847   9.434  1.2616 -0.3581  2.5618
   60CHL1  H18B 6875   1.242   5.814   9.549 -1.1778  0.0163 -0.7182
   60CHL1  H18C 6876   1.190   5.831   9.387 -0.9400 -0.0094  1.5763
   60CHL1   C12 6877   1.368   6.070   9.596  1.1936 -0.1969 -0.3337
   60CHL1  H12A 6878   1.463   6.023   9.566  0.9709 -0.9982  0.1929
   60CHL1  H12B 6879   1.368   6.181   9.609  0.2889 -0.2354  0.0809
   60CHL1   C11 6880   1.322   6.021   9.737  0.0880  0.3328  0.4635
   60CHL1  H11A 6881   1.339   5.911   9.737 -0.3919  0.1565 -2.3959
   60CHL1  H11B 6882   1.396   6.054   9.813  0.3401 -0.3158  0.5030
   60CHL1    C9 6883   1.170   6.054   9.765  0.6556  0.3931  0.0988
   60CHL1    H9 6884   1.166   6.165   9.776  1.1542  0.2931  1.4265
   60CHL1   C10 6885   1.130   5.991   9.904  0.7738  0.1235 -0.1252
   60CHL1   C19 6886   1.159   5.840   9.915 -0.3073  0.3900 -0.0260
   60CHL1  H19A 6887   1.107   5.801  10.006 -0.9726  1.9965  0.3252
   60CHL1  H19B 6888   1.126   5.781   9.827  0.1780  0.3974 -0.2125
   60CHL1  H19C 6889   1.267   5.826   9.934 -0.5050 -1.5877 -0.1804
   60CHL1    C1 6890   1.222   6.079  10.003  0.1197 -0.2141  0.1568
   60CHL1   H1A 6891   1.330   6.056   9.999  0.8457  2.8155  0.0224
   60CHL1   H1B 6892   1.205   6.184   9.971  0.4813  0.9375  3.3795
   60CHL1    C2 6893   1.167   6.065  10.150  0.8056  0.2715 -0.5113
   60CHL1   H2A 6894   1.222   6.138  10.213  0.5256 -1.9876  2.5852
   60CHL1   H2B 6895   1.189   5.962  10.187 -1.7223 -0.8300 -1.8317
   60CHL1   C20 6896   1.375   6.059   9.241 -0.5367  0.7251  0.8447
   60CHL1   H20 6897   1.371   5.948   9.245 -1.9005  0.7695  1.4883
   60CHL1   C21 6898   1.512   6.102   9.288 -0.3578 -0.4251 -0.1596
   60CHL1  H21A 6899   1.585   6.066   9.213 -1.1145 -1.2209 -0.5272
   60CHL1  H21B 6900   1.535   6.056   9.386  0.3681 -0.6890 -0.4524
   60CHL1  H21C 6901   1.520   6.213   9.300 -0.6088 -0.5502  1.2990
   60CHL1   C22 6902   1.347   6.110   9.094  0.1901 -0.5236 -0.3916
   60CHL1  H22A 6903   1.244   6.087   9.061  0.4190  0.0710 -1.5835
   60CHL1  H22B 6904   1.364   6.220   9.097 -1.3248 -0.1582 -2.7455
   60CHL1   C23 6905   1.439   6.057   8.983  0.0496 -0.1688  0.1184
   60CHL1  H23A 6906   1.544   6.078   9.013  0.5378  0.1035 -1.6957
   60CHL1  H23B 6907   1.429   5.947   8.978 -0.7152 -0.1497  0.9095
   60CHL1   C24 6908   1.427   6.126   8.844 -0.2176 -0.1756  0.1418
   60CHL1  H24A 6909   1.334   6.081   8.803 -1.9437  2.0393  1.3446
   60CHL1  H24B 6910   1.405   6.235   8.843 -0.9245 -0.2645 -2.1565
   60CHL1   C25 6911   1.545   6.110   8.754 -0.2048 -0.0533  0.7999
   60CHL1   H25 6912   1.578   6.004   8.755 -0.4920 -0.1448  0.5153
   60CHL1   C26 6913   1.510   6.140   8.606  0.3443  0.6715  0.3970
   60CHL1  H26A 6914   1.455   6.236   8.609 -2.7859 -0.9054 -1.4333
   60CHL1  H26B 6915   1.594   6.162   8.537 -1.2931 -0.7879 -2.2419
   60CHL1  H26C 6916   1.452   6.057   8.561  1.1806 -0.8946  2.0819
   60CHL1   C27 6917   1.666   6.195   8.794 -0.6060  0.8264 -0.6746
   60CHL1  H27A 6918   1.648   6.305   8.798 -0.1563  0.8825 -0.1661
   60CHL1  H27B 6919   1.704   6.157   8.891 -1.5766 -0.3035 -0.7131
   60CHL1  H27C 6920   1.754   6.174   8.730  0.0599 -1.1410  0.8037
   61CHL1    C3 6921   0.949   0.456  10.286  0.1243 -0.1493 -0.1019
   61CHL1    H3 6922   0.869   0.398  10.236  1.0783 -1.4317 -0.1701
   61CHL1    O3 6923   0.909   0.498  10.418 -0.2686  0.5209 -0.0139
   61CHL1   H3' 6924   0.942   0.424  10.470 -0.6900 -0.2168 -0.7682
   61CHL1    C4 6925   1.072   0.370  10.279  0.3428 -0.4106  0.2837
   61CHL1   H4A 6926   1.155   0.402  10.345 -1.5779 -1.3890  3.4001
   61CHL1   H4B 6927   1.050   0.281  10.342 -1.0117  1.0279  1.9318
   61CHL1    C5 6928   1.122   0.340  10.132  0.5641  0.4323  0.3648
   61CHL1    C6 6929   1.123   0.209  10.097  0.6662 -0.3683 -0.3495
   61CHL1    H6 6930   1.097   0.126  10.164 -3.1774  0.8377 -0.1101
   61CHL1    C7 6931   1.157   0.169   9.958  0.4864  0.8509 -0.0490
   61CHL1   H7A 6932   1.220   0.079   9.974  3.1123  2.5750 -0.2327
   61CHL1   H7B 6933   1.063   0.138   9.907  0.3653 -2.2743  1.7816
   61CHL1    C8 6934   1.240   0.274   9.882  0.1915 -0.4398  0.3936
   61CHL1    H8 6935   1.344   0.271   9.920  1.5809 -1.4004 -3.0674
   61CHL1   C14 6936   1.248   0.227   9.735 -0.3816 -0.0658  0.8266
   61CHL1   H14 6937   1.147   0.239   9.690  0.6600  1.9397 -1.1548
   61CHL1   C15 6938   1.289   0.083   9.697 -0.4575 -0.3772 -0.1512
   61CHL1  H15A 6939   1.376   0.052   9.758 -0.7346  1.0531  1.0322
   61CHL1  H15B 6940   1.197   0.021   9.707 -1.9983  1.8991  0.7359
   61CHL1   C16 6941   1.332   0.095   9.551 -0.3141 -0.3084 -0.1760
   61CHL1  H16A 6942   1.441   0.077   9.543 -0.3686 -0.4092 -0.7256
   61CHL1  H16B 6943   1.289   0.018   9.483 -1.6934  0.8594 -0.6726
   61CHL1   C17 6944   1.312   0.241   9.504 -0.2664 -0.8885 -0.9721
   61CHL1   H17 6945   1.207   0.255   9.471 -1.6158  0.6624  3.3089
   61CHL1   C13 6946   1.327   0.320   9.645 -0.3919  0.4691  0.0357
   61CHL1   C18 6947   1.487   0.315   9.679 -0.2381 -0.0949  0.0178
   61CHL1  H18A 6948   1.536   0.407   9.642  0.5322  0.1980  1.7034
   61CHL1  H18B 6949   1.495   0.317   9.789  0.6919 -2.8330  0.0853
   61CHL1  H18C 6950   1.545   0.225   9.649  0.2577 -0.3223  1.6100
   61CHL1   C12 6951   1.262   0.460   9.647  0.0349  0.4659 -0.2753
   61CHL1  H12A 6952   1.326   0.534   9.593  1.0309  0.6707  1.1366
   61CHL1  H12B 6953   1.160   0.441   9.607 -0.3830  0.2080  0.8857
   61CHL1   C11 6954   1.250   0.513   9.791 -0.6803  0.1330 -0.3952
   61CHL1  H11A 6955   1.355   0.526   9.823 -1.1857  1.1286  0.9804
   61CHL1  H11B 6956   1.198   0.612   9.787 -0.3299  0.3246 -0.2080
   61CHL1    C9 6957   1.177   0.415   9.886 -0.0556  0.3905 -0.2853
   61CHL1    H9 6958   1.073   0.406   9.848 -0.2657  3.7703 -0.8304
   61CHL1   C10 6959   1.148   0.462  10.037  0.0857  0.7506  0.2525
   61CHL1   C19 6960   1.267   0.544  10.093 -0.3274 -0.3499  0.1041
   61CHL1  H19A 6961   1.250   0.648  10.056 -0.6610 -1.0011 -1.6553
   61CHL1  H19B 6962   1.283   0.538  10.202  0.6194 -0.1223 -0.0158
   61CHL1  H19C 6963   1.365   0.509  10.055 -0.4623  0.2848 -0.8784
   61CHL1    C1 6964   1.013   0.547  10.048 -0.2742 -0.0952 -0.2934
   61CHL1   H1A 6965   1.036   0.636   9.986  2.3461 -1.4046 -1.3978
   61CHL1   H1B 6966   0.936   0.489   9.992 -1.6689  0.8967  0.5352
   61CHL1    C2 6967   0.967   0.582  10.194 -0.5119  0.3206  0.2607
   61CHL1   H2A 6968   0.875   0.644  10.187 -0.2764  1.0246  2.5316
   61CHL1   H2B 6969   1.044   0.646  10.242 -1.7267 -0.1617  3.0954
   61CHL1   C20 6970   1.411   0.278   9.389  0.4037  0.2482  0.1816
   61CHL1   H20 6971   1.517   0.286   9.422  0.8700  0.9386 -1.4269
   61CHL1   C21 6972   1.386   0.418   9.327 -0.4131 -0.0985 -0.7062
   61CHL1  H21A 6973   1.454   0.457   9.250 -0.3438  0.3390 -0.4273
   61CHL1  H21B 6974   1.392   0.491   9.411 -3.3200  0.4022 -0.8145
   61CHL1  H21C 6975   1.283   0.420   9.285  0.2812 -1.2342 -2.5546
   61CHL1   C22 6976   1.397   0.180   9.273  0.3113  0.3706 -0.1993
   61CHL1  H22A 6977   1.466   0.225   9.198 -2.2958  1.5700 -2.0284
   61CHL1  H22B 6978   1.429   0.082   9.314  0.2281 -0.2962 -1.6727
   61CHL1   C23 6979   1.256   0.160   9.207  0.7714  0.2909  0.8964
   61CHL1  H23A 6980   1.200   0.095   9.278  1.5847  0.7692  2.0041
   61CHL1  H23B 6981   1.196   0.249   9.179 -0.5382 -1.5375 -2.8388
   61CHL1   C24 6982   1.259   0.092   9.072  0.1103  0.0758  1.1933
   61CHL1  H24A 6983   1.331   0.146   9.007 -1.1527  2.1272  1.4041
   61CHL1  H24B 6984   1.299  -0.010   9.087 -1.1535 -0.6978 -0.2873
   61CHL1   C25 6985   1.124   0.088   8.998 -0.2825  0.8370  0.6266
   61CHL1   H25 6986   1.053   0.072   9.081  2.0654 -0.0679  2.5929
   61CHL1   C26 6987   1.087   0.216   8.924 -0.0171 -1.3575  0.6397
   61CHL1  H26A 6988   1.149   0.233   8.834  0.8522  0.4761  1.5274
   61CHL1  H26B 6989   0.982   0.207   8.888 -0.0484  0.9480 -0.0090
   61CHL1  H26C 6990   1.075   0.304   8.991 -2.1496 -1.6521  0.7460
   61CHL1   C27 6991   1.126  -0.039   8.901  0.6501 -0.7609 -0.7831
   61CHL1  H27A 6992   1.200  -0.026   8.820  2.5438 -1.7477  0.7022
   61CHL1  H27B 6993   1.155  -0.135   8.948 -0.0316 -0.5530  0.1020
   61CHL1  H27C 6994   1.023  -0.043   8.861 -0.1027  3.4925  0.1458
   62CHL1    C3 6995   3.377   3.565  10.050 -0.1874  0.0926 -0.0619
   62CHL1    H3 6996   3.388   3.457  10.069  0.0632 -0.1423 -1.4188
   62CHL1    O3 6997   3.288   3.610  10.150 -0.2267  0.0670  0.5304
   62CHL1   H3' 6998   3.238   3.529  10.158 -0.1928 -0.4623 -2.8295
   62CHL1    C4 6999   3.518   3.628  10.064 -0.1562  0.1069 -0.3228
   62CHL1   H4A 7000   3.500   3.738  10.070  0.6079  0.3096 -1.4971
   62CHL1   H4B 7001   3.554   3.597  10.164  1.3176  0.0315 -0.8568
   62CHL1    C5 7002   3.627   3.596   9.966 -0.0382 -0.0786  0.2577
   62CHL1    C6 7003   3.751   3.559  10.011  0.1032 -0.3107 -0.6423
   62CHL1    H6 7004   3.777   3.547  10.117  0.9553  0.0764 -0.7979
   62CHL1    C7 7005   3.859   3.530   9.910 -0.9356 -0.4702 -0.6745
   62CHL1   H7A 7006   3.950   3.585   9.941 -0.4938  0.2804 -3.0805
   62CHL1   H7B 7007   3.870   3.419   9.913 -1.4633 -0.5193 -0.2773
   62CHL1    C8 7008   3.819   3.569   9.766  0.8731  0.0871 -0.0114
   62CHL1    H8 7009   3.838   3.678   9.757  0.9630  0.0313 -0.5492
   62CHL1   C14 7010   3.923   3.510   9.664 -0.2846 -0.2680 -0.5932
   62CHL1   H14 7011   3.900   3.401   9.673 -0.4802 -0.0776  2.4582
   62CHL1   C15 7012   4.069   3.527   9.689 -0.3719 -0.1257 -0.1937
   62CHL1  H15A 7013   4.090   3.636   9.695  0.6301 -0.3859  1.9718
   62CHL1  H15B 7014   4.107   3.470   9.777  0.7907 -0.9366 -1.1809
   62CHL1   C16 7015   4.125   3.469   9.553  0.0758 -0.1529  0.0884
   62CHL1  H16A 7016   4.212   3.534   9.532  1.8365 -1.7919  1.8121
   62CHL1  H16B 7017   4.180   3.374   9.573 -0.2200 -0.0196  1.6817
   62CHL1   C17 7018   4.013   3.454   9.448 -0.2495  0.5700  0.6158
   62CHL1   H17 7019   3.994   3.345   9.452 -1.9695  0.8588  1.1232
   62CHL1   C13 7020   3.894   3.536   9.515 -0.1476  0.4655 -1.3326
   62CHL1   C18 7021   3.894   3.683   9.483  0.3757 -0.3245  0.4523
   62CHL1  H18A 7022   3.992   3.736   9.476 -0.4485  1.1032 -1.2862
   62CHL1  H18B 7023   3.851   3.695   9.381 -2.4590  1.2999  1.7509
   62CHL1  H18C 7024   3.826   3.735   9.553 -0.7003 -2.9206  1.4659
   62CHL1   C12 7025   3.752   3.486   9.481 -0.7136 -0.5699  0.0368
   62CHL1  H12A 7026   3.726   3.507   9.375 -0.7415  1.1355  0.3624
   62CHL1  H12B 7027   3.759   3.376   9.495  0.0272 -0.4243  0.8801
   62CHL1   C11 7028   3.644   3.556   9.570  0.5710 -0.1838  0.1961
   62CHL1  H11A 7029   3.622   3.663   9.553 -4.2502 -0.9853 -0.0363
   62CHL1  H11B 7030   3.547   3.506   9.548  0.1374  1.1298 -0.9720
   62CHL1    C9 7031   3.672   3.534   9.725  0.2640 -0.1988  0.0890
   62CHL1    H9 7032   3.660   3.425   9.744  0.5095  0.1119  2.3012
   62CHL1   C10 7033   3.574   3.596   9.824 -0.0710  0.7011 -0.1837
   62CHL1   C19 7034   3.560   3.747   9.787 -0.2083  0.2034 -0.6480
   62CHL1  H19A 7035   3.500   3.759   9.694  0.3584  1.2437 -0.9015
   62CHL1  H19B 7036   3.495   3.796   9.863  1.3127  1.4098 -0.0592
   62CHL1  H19C 7037   3.650   3.810   9.767 -1.1627  1.4114 -1.3018
   62CHL1    C1 7038   3.433   3.533   9.812  0.5518 -0.0066 -0.7142
   62CHL1   H1A 7039   3.400   3.546   9.707  1.0089  1.8803 -0.6514
   62CHL1   H1B 7040   3.421   3.425   9.835 -1.0170  0.3660  0.3575
   62CHL1    C2 7041   3.326   3.586   9.912 -0.5434  0.6413  0.1946
   62CHL1   H2A 7042   3.243   3.516   9.890  0.6887 -0.6867 -0.4036
   62CHL1   H2B 7043   3.307   3.694   9.893  1.1557  1.7519  3.8202
   62CHL1   C20 7044   4.068   3.479   9.304  0.1356  0.8417  0.2503
   62CHL1   H20 7045   4.095   3.585   9.282 -1.0171  0.8600 -1.2398
   62CHL1   C21 7046   3.950   3.448   9.210  0.6847 -0.0965 -0.2927
   62CHL1  H21A 7047   3.907   3.349   9.237  2.0307 -0.7494 -0.4527
   62CHL1  H21B 7048   3.980   3.436   9.103  2.6480  0.4176  0.1760
   62CHL1  H21C 7049   3.875   3.530   9.210  0.0379 -0.6773  0.2805
   62CHL1   C22 7050   4.198   3.392   9.275 -0.1716  0.0887  0.2239
   62CHL1  H22A 7051   4.277   3.422   9.347  0.7027  2.1977 -1.5098
   62CHL1  H22B 7052   4.181   3.282   9.286  0.9981 -0.0074  1.3403
   62CHL1   C23 7053   4.247   3.440   9.141  0.3804 -0.3437  0.6106
   62CHL1  H23A 7054   4.184   3.415   9.054 -2.0110  0.8934  1.8796
   62CHL1  H23B 7055   4.244   3.551   9.154 -0.0701 -0.2957  0.1028
   62CHL1   C24 7056   4.385   3.372   9.119  0.7229  0.3349 -0.7430
   62CHL1  H24A 7057   4.447   3.408   9.204  0.9441  0.6041 -1.0153
   62CHL1  H24B 7058   4.377   3.262   9.118  3.4454  0.0636 -1.3509
   62CHL1   C25 7059   4.460   3.418   8.990  0.2329  0.4166 -0.1843
   62CHL1   H25 7060   4.553   3.358   8.996 -1.0917 -1.5773  1.4796
   62CHL1   C26 7061   4.399   3.377   8.857  0.4466 -0.0386 -0.1146
   62CHL1  H26A 7062   4.435   3.445   8.776 -2.0344  0.1492 -1.1436
   62CHL1  H26B 7063   4.415   3.270   8.830 -1.6914 -0.5534  0.4709
   62CHL1  H26C 7064   4.290   3.393   8.869  0.3822  1.2636 -1.9916
   62CHL1   C27 7065   4.516   3.564   8.987  0.1488  0.5745 -0.2597
   62CHL1  H27A 7066   4.584   3.576   9.074 -0.7103 -3.3189  1.1420
   62CHL1  H27B 7067   4.577   3.578   8.895  0.0515  1.4314 -0.2058
   62CHL1  H27C 7068   4.422   3.623   8.988 -1.7049 -2.1888  1.6964
   63CHL1    C3 7069   4.069   3.132  10.121  0.9027 -0.1787 -0.1844
   63CHL1    H3 7070   3.993   3.200  10.077  0.8546  0.9345  1.5301
   63CHL1    O3 7071   4.021   3.118  10.255 -0.0344 -0.1361  0.7636
   63CHL1   H3' 7072   4.095   3.083  10.305  1.1447  1.2431  0.0284
   63CHL1    C4 7073   4.074   2.994  10.054 -0.0229  0.7781  0.3547
   63CHL1   H4A 7074   4.137   2.924  10.113 -1.3036 -0.1034  0.7306
   63CHL1   H4B 7075   3.969   2.958  10.044  0.2078 -0.8096  2.8640
   63CHL1    C5 7076   4.132   3.010   9.915 -0.1710  0.1395  0.3153
   63CHL1    C6 7077   4.062   2.980   9.803  0.5874  0.7154 -0.1470
   63CHL1    H6 7078   3.960   2.938   9.809  2.0703 -3.5284 -0.7753
   63CHL1    C7 7079   4.128   2.990   9.669 -0.5535  0.1113  0.3375
   63CHL1   H7A 7080   4.097   2.900   9.612 -3.1519  0.1154  1.6405
   63CHL1   H7B 7081   4.099   3.078   9.608 -1.1719 -1.1197 -1.2076
   63CHL1    C8 7082   4.287   2.991   9.671  0.4215 -0.4080 -0.5140
   63CHL1    H8 7083   4.322   2.892   9.706  3.3036  1.1775  1.4602
   63CHL1   C14 7084   4.342   3.015   9.528  0.4425  0.1211 -0.3382
   63CHL1   H14 7085   4.309   3.120   9.510  1.6220  0.5064 -0.3330
   63CHL1   C15 7086   4.302   2.930   9.410  0.0857  0.4362 -0.0123
   63CHL1  H15A 7087   4.303   2.822   9.436  0.1283 -0.0932 -2.0153
   63CHL1  H15B 7088   4.197   2.947   9.381  0.2393  0.6906 -0.4294
   63CHL1   C16 7089   4.402   2.968   9.302 -0.2392 -0.4751 -0.0499
   63CHL1  H16A 7090   4.447   2.870   9.273 -0.8450 -1.4047  1.9817
   63CHL1  H16B 7091   4.352   3.016   9.215 -0.2644  0.5882  0.5449
   63CHL1   C17 7092   4.502   3.071   9.365  1.0801  0.3276  0.3505
   63CHL1   H17 7093   4.455   3.172   9.354  1.6339  0.6292  0.7252
   63CHL1   C13 7094   4.496   3.035   9.517  0.1984 -0.0761 -0.0159
   63CHL1   C18 7095   4.570   2.905   9.553  0.0299  0.3449  0.2984
   63CHL1  H18A 7096   4.541   2.851   9.645  0.9788 -1.6223 -0.5077
   63CHL1  H18B 7097   4.570   2.831   9.470  1.4654  0.3673  0.2548
   63CHL1  H18C 7098   4.677   2.937   9.556  0.1367  0.2890 -1.4888
   63CHL1   C12 7099   4.530   3.149   9.611 -0.5837 -0.4262 -0.3856
   63CHL1  H12A 7100   4.638   3.174   9.620 -0.3761 -1.0316 -1.0666
   63CHL1  H12B 7101   4.475   3.239   9.577  1.3198  2.0480  2.5034
   63CHL1   C11 7102   4.484   3.124   9.757 -0.7080  1.0738  0.1835
   63CHL1  H11A 7103   4.536   3.037   9.802  0.2619  2.0585  1.0315
   63CHL1  H11B 7104   4.524   3.203   9.824 -0.2588  0.0843  1.1091
   63CHL1    C9 7105   4.333   3.103   9.773 -0.1499 -0.5246 -0.4939
   63CHL1    H9 7106   4.287   3.201   9.750  0.5172  0.8612  3.3366
   63CHL1   C10 7107   4.280   3.068   9.915 -0.0414 -0.1725 -0.4180
   63CHL1   C19 7108   4.380   2.968   9.978 -0.1866 -0.2113 -0.8669
   63CHL1  H19A 7109   4.393   2.876   9.918 -0.1450 -0.8489  0.0937
   63CHL1  H19B 7110   4.480   3.015   9.978 -0.0152 -0.5726 -1.2369
   63CHL1  H19C 7111   4.365   2.948  10.086  1.6892  1.7013 -0.1903
   63CHL1    C1 7112   4.288   3.199  10.006 -0.4333  0.1582  0.2301
   63CHL1   H1A 7113   4.395   3.215  10.030 -0.3426  1.6920 -1.0138
   63CHL1   H1B 7114   4.244   3.278   9.942  0.4904 -0.5834 -1.4070
   63CHL1    C2 7115   4.206   3.199  10.138 -0.0913  0.2747 -0.3608
   63CHL1   H2A 7116   4.197   3.302  10.180 -0.4090 -0.2791  0.9744
   63CHL1   H2B 7117   4.275   3.135  10.197 -1.7972 -0.1064  1.3131
   63CHL1   C20 7118   4.635   3.070   9.295 -0.8183  0.7358  1.3374
   63CHL1   H20 7119   4.685   2.975   9.325 -0.2008 -0.0656 -1.8861
   63CHL1   C21 7120   4.724   3.186   9.351 -0.0837  0.4780 -0.7699
   63CHL1  H21A 7121   4.756   3.169   9.456  0.5431 -2.8517 -1.3787
   63CHL1  H21B 7122   4.676   3.285   9.334 -2.5043 -0.6757 -1.0787
   63CHL1  H21C 7123   4.819   3.187   9.293 -0.0855 -0.3770 -0.8113
   63CHL1   C22 7124   4.626   3.083   9.142 -0.0947  0.9411  0.3715
   63CHL1  H22A 7125   4.556   3.010   9.096  0.6435  0.3633  0.1393
   63CHL1  H22B 7126   4.585   3.182   9.113  1.1197  0.7081 -2.4722
   63CHL1   C23 7127   4.754   3.060   9.060 -0.0636 -0.1741 -0.0945
   63CHL1  H23A 7128   4.824   3.146   9.061  3.5771 -2.8993 -1.0035
   63CHL1  H23B 7129   4.813   2.968   9.080 -1.1794 -1.6640 -2.9896
   63CHL1   C24 7130   4.712   3.057   8.909 -0.0247 -0.2828  0.0380
   63CHL1  H24A 7131   4.630   2.983   8.905  0.3323 -0.8011  1.6248
   63CHL1  H24B 7132   4.672   3.151   8.866  0.7953 -0.6594 -1.6122
   63CHL1   C25 7133   4.809   2.994   8.811 -0.0942  0.4316  0.3283
   63CHL1   H25 7134   4.839   2.895   8.852 -1.2071  0.3421  0.9423
   63CHL1   C26 7135   4.730   2.985   8.682 -0.6289  0.1067  0.0704
   63CHL1  H26A 7136   4.644   2.916   8.691 -1.2086  0.7473 -0.4021
   63CHL1  H26B 7137   4.696   3.083   8.642  4.3185  0.9882 -2.8587
   63CHL1  H26C 7138   4.794   2.938   8.604 -0.8015  0.3890 -0.2431
   63CHL1   C27 7139   4.937   3.077   8.787 -0.2947  0.2533 -0.7285
   63CHL1  H27A 7140   4.996   3.109   8.875 -1.5263  1.1289 -0.1852
   63CHL1  H27B 7141   4.996   3.015   8.716  0.0860 -0.8797  0.5576
   63CHL1  H27C 7142   4.904   3.162   8.724 -0.5221  0.0413 -0.8998
   64CHL1    C3 7143   3.847   5.866  10.141 -0.4587  0.1200  0.2128
   64CHL1    H3 7144   3.927   5.943  10.146 -1.7732  1.4488  2.5658
   64CHL1    O3 7145   3.804   5.834  10.273  0.9620 -0.0664  0.7649
   64CHL1   H3' 7146   3.799   5.739  10.275  0.1979 -0.0370  2.6963
   64CHL1    C4 7147   3.728   5.932  10.065 -0.5603 -0.1545 -0.3986
   64CHL1   H4A 7148   3.633   5.876  10.051 -1.1916  0.4369  1.3013
   64CHL1   H4B 7149   3.697   6.010  10.137 -0.7031  0.2295 -0.8704
   64CHL1    C5 7150   3.774   5.972   9.924  0.5951  0.5256  0.4730
   64CHL1    C6 7151   3.779   6.093   9.865  0.7309  1.1579 -0.1480
   64CHL1    H6 7152   3.738   6.171   9.931 -2.9471  1.5851 -2.6759
   64CHL1    C7 7153   3.806   6.127   9.722 -0.2619  0.1032  0.3428
   64CHL1   H7A 7154   3.729   6.196   9.681 -0.2497 -0.2626 -0.3179
   64CHL1   H7B 7155   3.905   6.177   9.728  0.4859 -1.3309  0.3247
   64CHL1    C8 7156   3.799   6.001   9.636 -0.3521  0.4029 -0.1634
   64CHL1    H8 7157   3.690   5.980   9.622 -0.0705 -0.2440 -1.6302
   64CHL1   C14 7158   3.865   6.015   9.496  0.2305 -0.1774 -1.0424
   64CHL1   H14 7159   3.974   6.029   9.512  0.7116 -4.3169  0.4716
   64CHL1   C15 7160   3.818   6.133   9.415  0.0508 -0.7874 -0.1715
   64CHL1  H15A 7161   3.710   6.123   9.392  0.0129  1.8033 -1.5706
   64CHL1  H15B 7162   3.827   6.233   9.463  0.8401 -0.7084 -0.4674
   64CHL1   C16 7163   3.892   6.117   9.285  0.1789 -0.2889  0.4286
   64CHL1  H16A 7164   3.828   6.137   9.196  1.5629  0.2482 -0.4803
   64CHL1  H16B 7165   3.972   6.193   9.270 -1.9663  1.7072 -1.8766
   64CHL1   C17 7166   3.955   5.968   9.289  0.4953  0.3626  0.3681
   64CHL1   H17 7167   4.061   5.978   9.320  0.7929 -1.0497 -0.1134
   64CHL1   C13 7168   3.877   5.902   9.406  0.8622  0.6800  0.4128
   64CHL1   C18 7169   3.744   5.851   9.357  0.1207  0.1161 -0.6385
   64CHL1  H18A 7170   3.758   5.765   9.289  0.7326  0.7198 -1.2993
   64CHL1  H18B 7171   3.672   5.825   9.437 -0.5916  1.6584 -0.7237
   64CHL1  H18C 7172   3.686   5.929   9.302 -0.6698  1.3281  1.7559
   64CHL1   C12 7173   3.949   5.789   9.470 -0.9418  0.6189  0.1036
   64CHL1  H12A 7174   3.924   5.692   9.422 -0.0238  1.1389 -1.4755
   64CHL1  H12B 7175   4.058   5.803   9.458 -1.2013  1.4913 -1.4854
   64CHL1   C11 7176   3.900   5.758   9.608 -0.7224 -0.7346 -0.5391
   64CHL1  H11A 7177   3.802   5.707   9.601  0.7808 -4.2735  1.5341
   64CHL1  H11B 7178   3.965   5.682   9.656  1.3508 -0.0793 -2.1780
   64CHL1    C9 7179   3.872   5.884   9.701  0.1326  0.5800 -0.1020
   64CHL1    H9 7180   3.971   5.934   9.708 -0.4715  1.9280 -0.6954
   64CHL1   C10 7181   3.817   5.845   9.845 -0.1552 -0.1578  0.1630
   64CHL1   C19 7182   3.699   5.741   9.835  0.2941 -0.2449  0.4789
   64CHL1  H19A 7183   3.622   5.789   9.772  0.6011 -0.4821 -0.0826
   64CHL1  H19B 7184   3.732   5.642   9.796  4.5017  0.5532  1.5170
   64CHL1  H19C 7185   3.664   5.720   9.938 -1.1450  0.2052  0.1090
   64CHL1    C1 7186   3.931   5.774   9.925 -0.1943  0.0615  0.5072
   64CHL1   H1A 7187   3.951   5.675   9.879  0.8524  0.1168  0.8144
   64CHL1   H1B 7188   4.027   5.830   9.919 -0.3415  0.1406 -2.3979
   64CHL1    C2 7189   3.899   5.737  10.067  0.5191 -0.3163 -0.4794
   64CHL1   H2A 7190   3.990   5.695  10.116  0.6463 -0.2112 -0.6258
   64CHL1   H2B 7191   3.818   5.662  10.079 -0.4798  0.5673 -1.5366
   64CHL1   C20 7192   3.947   5.910   9.149  0.5392  0.0817 -0.2381
   64CHL1   H20 7193   3.840   5.899   9.124  0.1652  0.3628  1.1804
   64CHL1   C21 7194   4.026   5.776   9.140  0.4871 -0.2431  0.7074
   64CHL1  H21A 7195   4.033   5.731   9.038 -0.5759 -1.7279  1.2486
   64CHL1  H21B 7196   4.002   5.691   9.207 -1.4732 -1.1359 -1.0089
   64CHL1  H21C 7197   4.132   5.796   9.169  0.8812  0.3157 -0.9746
   64CHL1   C22 7198   4.008   5.999   9.039  0.8089  0.1209 -0.9249
   64CHL1  H22A 7199   4.013   5.924   8.957  0.0853 -2.4461  1.2465
   64CHL1  H22B 7200   3.937   6.080   9.012 -0.6946 -1.0322 -0.5481
   64CHL1   C23 7201   4.144   6.056   9.073  0.5404  0.2963  0.0348
   64CHL1  H23A 7202   4.133   6.128   9.158 -0.6880  1.6431 -1.2116
   64CHL1  H23B 7203   4.214   5.973   9.095 -0.5231 -0.3147  1.2545
   64CHL1   C24 7204   4.203   6.141   8.958 -0.0434  0.0517  0.0200
   64CHL1  H24A 7205   4.191   6.087   8.862 -2.7519  0.0369  0.2797
   64CHL1  H24B 7206   4.134   6.229   8.952  2.5487  2.3465  1.7085
   64CHL1   C25 7207   4.343   6.193   8.973  0.2831  0.0181 -0.4911
   64CHL1   H25 7208   4.411   6.104   8.976  2.8183  1.8626 -0.0986
   64CHL1   C26 7209   4.379   6.286   8.854 -0.8693 -0.0135  0.0922
   64CHL1  H26A 7210   4.486   6.315   8.868 -1.3508  1.2841  1.4096
   64CHL1  H26B 7211   4.339   6.265   8.752 -1.5705  0.2695  0.3026
   64CHL1  H26C 7212   4.334   6.386   8.872 -1.0943 -0.3646  1.6447
   64CHL1   C27 7213   4.358   6.270   9.110 -0.5871 -0.0970 -0.4148
   64CHL1  H27A 7214   4.449   6.334   9.109 -2.6697  3.1424  0.9542
   64CHL1  H27B 7215   4.271   6.339   9.110 -1.4884 -1.1703 -1.9263
   64CHL1  H27C 7216   4.364   6.201   9.197  2.2868  1.3130  0.6335
   65CHL1    C3 7217   2.844   5.658  10.411 -0.4691 -0.2307  0.1060
   65CHL1    H3 7218   2.952   5.675  10.390 -0.6074  2.9043  1.3508
   65CHL1    O3 7219   2.818   5.679  10.554  0.5208  0.2154 -0.0884
   65CHL1   H3' 7220   2.901   5.690  10.601  0.3155 -0.8921  0.5773
   65CHL1    C4 7221   2.759   5.749  10.330  0.1019 -0.4277 -0.3363
   65CHL1   H4A 7222   2.652   5.738  10.356 -0.1925 -0.5668 -1.5330
   65CHL1   H4B 7223   2.788   5.852  10.361  2.3066 -0.9431 -0.5303
   65CHL1    C5 7224   2.780   5.733  10.185  0.1092  0.8858  0.4720
   65CHL1    C6 7225   2.817   5.836  10.107 -0.1248  0.0479 -0.5457
   65CHL1    H6 7226   2.837   5.936  10.147 -1.7932  0.8791 -1.7012
   65CHL1    C7 7227   2.855   5.834   9.965 -0.5152  0.6115 -1.1492
   65CHL1   H7A 7228   2.818   5.918   9.903 -2.4013  1.0525  0.4562
   65CHL1   H7B 7229   2.966   5.846   9.963 -0.3246  1.3862  3.0978
   65CHL1    C8 7230   2.815   5.693   9.900 -1.3248 -0.3420  0.8166
   65CHL1    H8 7231   2.705   5.700   9.892 -1.6240 -2.0635  2.5800
   65CHL1   C14 7232   2.887   5.660   9.764  0.1690  0.1878 -0.4931
   65CHL1   H14 7233   2.996   5.647   9.778  0.1689  1.5979  1.1188
   65CHL1   C15 7234   2.881   5.769   9.653  0.0653  0.1090  0.0677
   65CHL1  H15A 7235   2.784   5.823   9.663 -1.8133 -2.8579 -0.8952
   65CHL1  H15B 7236   2.961   5.842   9.676  0.1267  0.4259 -1.0789
   65CHL1   C16 7237   2.897   5.702   9.521  0.1957  0.2287 -0.1030
   65CHL1  H16A 7238   2.818   5.716   9.443 -0.1891 -1.7596 -0.1087
   65CHL1  H16B 7239   2.990   5.736   9.472  0.7880  0.8343  1.3899
   65CHL1   C17 7240   2.898   5.549   9.556 -0.1417 -0.1649 -0.1817
   65CHL1   H17 7241   3.006   5.529   9.574 -0.0651  0.0024 -0.4495
   65CHL1   C13 7242   2.831   5.538   9.699 -0.3654  0.1195  0.2026
   65CHL1   C18 7243   2.675   5.547   9.677  0.4929  0.3946  0.3439
   65CHL1  H18A 7244   2.619   5.559   9.772  1.6716  0.0859  1.1061
   65CHL1  H18B 7245   2.651   5.639   9.620  0.6191 -0.1590 -0.6082
   65CHL1  H18C 7246   2.642   5.455   9.625  0.2447 -0.4662  1.9413
   65CHL1   C12 7247   2.880   5.418   9.786 -0.8120 -0.2636 -0.3176
   65CHL1  H12A 7248   2.839   5.325   9.742 -2.6557 -0.2677  1.2766
   65CHL1  H12B 7249   2.990   5.429   9.793 -0.7896 -0.8270  0.2478
   65CHL1   C11 7250   2.814   5.437   9.928  0.1789  0.4659  0.2214
   65CHL1  H11A 7251   2.706   5.418   9.912 -0.5090  3.0847  1.1520
   65CHL1  H11B 7252   2.865   5.368   9.999 -0.2552  1.6955  1.7903
   65CHL1    C9 7253   2.829   5.576   9.995  0.1481  0.3719 -0.6685
   65CHL1    H9 7254   2.939   5.575  10.015  0.3159  1.0440 -1.4824
   65CHL1   C10 7255   2.762   5.593  10.130  0.4325  0.0118 -0.7201
   65CHL1   C19 7256   2.607   5.570  10.109 -0.2328 -0.5780 -0.9505
   65CHL1  H19A 7257   2.591   5.466  10.073  1.5493 -0.6177 -1.7183
   65CHL1  H19B 7258   2.551   5.592  10.202  0.1501  1.8006 -1.2083
   65CHL1  H19C 7259   2.572   5.630  10.022 -0.1131 -0.5324 -0.9680
   65CHL1    C1 7260   2.821   5.487  10.236 -0.3459 -0.0360  0.6478
   65CHL1   H1A 7261   2.767   5.393  10.212  0.3823 -0.1942 -0.4546
   65CHL1   H1B 7262   2.930   5.478  10.212 -0.5261  1.6411 -1.0840
   65CHL1    C2 7263   2.800   5.518  10.382  0.0451 -0.0405  0.0521
   65CHL1   H2A 7264   2.841   5.456  10.464 -0.7598  0.9097  1.2248
   65CHL1   H2B 7265   2.691   5.507  10.401 -0.0672 -0.3687 -0.7284
   65CHL1   C20 7266   2.841   5.464   9.438 -0.6404  0.4557  0.4151
   65CHL1   H20 7267   2.735   5.485   9.412 -0.8519 -1.6596 -0.6506
   65CHL1   C21 7268   2.847   5.315   9.476 -0.5052  0.7279 -0.5790
   65CHL1  H21A 7269   2.770   5.293   9.553  1.4592 -3.7358  0.4249
   65CHL1  H21B 7270   2.939   5.296   9.536 -1.6246  0.7660  1.2521
   65CHL1  H21C 7271   2.835   5.244   9.392  1.6616  0.0911 -0.4054
   65CHL1   C22 7272   2.918   5.490   9.306  0.0714 -0.4205  0.2192
   65CHL1  H22A 7273   2.896   5.591   9.268 -0.8346 -0.8029 -0.2870
   65CHL1  H22B 7274   3.028   5.475   9.312  0.3776  0.8272 -1.5744
   65CHL1   C23 7275   2.885   5.405   9.179 -0.2594 -0.6666  0.4749
   65CHL1  H23A 7276   2.952   5.452   9.105  0.5109 -0.3658  1.3370
   65CHL1  H23B 7277   2.930   5.305   9.199 -2.5327 -1.6212  1.2184
   65CHL1   C24 7278   2.740   5.394   9.142  0.5848  0.7854 -0.4606
   65CHL1  H24A 7279   2.693   5.344   9.229 -0.7246 -0.4987 -1.8387
   65CHL1  H24B 7280   2.702   5.496   9.123  0.2250  1.0431  1.4935
   65CHL1   C25 7281   2.716   5.313   9.014  0.2947  0.0571 -0.0872
   65CHL1   H25 7282   2.798   5.355   8.953  0.8572 -0.8060  0.0571
   65CHL1   C26 7283   2.737   5.160   9.046  0.7214 -0.0021 -0.0797
   65CHL1  H26A 7284   2.679   5.118   9.131  1.4346 -1.4273 -0.2680
   65CHL1  H26B 7285   2.715   5.101   8.955  1.0270  2.5338 -1.8929
   65CHL1  H26C 7286   2.842   5.144   9.079  0.7259  2.5468  1.4222
   65CHL1   C27 7287   2.582   5.351   8.947  0.0690  0.1166 -0.1072
   65CHL1  H27A 7288   2.559   5.277   8.867 -0.0322 -0.3645  0.3590
   65CHL1  H27B 7289   2.494   5.344   9.014  0.5105 -1.9399  0.3239
   65CHL1  H27C 7290   2.592   5.452   8.902 -0.2862 -1.0299 -2.9625
   66CHL1    C3 7291   2.072   5.935  10.386 -0.2307 -0.6525 -0.1939
   66CHL1    H3 7292   2.059   5.826  10.369  0.0489 -0.9328  1.2095
   66CHL1    O3 7293   2.055   5.967  10.525  0.5822 -0.1639 -0.9448
   66CHL1   H3' 7294   2.067   6.062  10.530 -0.9896 -0.0037  1.8054
   66CHL1    C4 7295   2.214   5.975  10.342 -0.5999  0.0451  0.0436
   66CHL1   H4A 7296   2.208   6.085  10.357  0.2429  0.2640 -1.0564
   66CHL1   H4B 7297   2.299   5.941  10.405  1.9774  1.9189 -2.1700
   66CHL1    C5 7298   2.234   5.951  10.199  0.8175  0.2170 -0.9532
   66CHL1    C6 7299   2.333   5.871  10.163  0.1501  0.8451 -0.0094
   66CHL1    H6 7300   2.396   5.823  10.239 -0.7088 -0.1396  0.1072
   66CHL1    C7 7301   2.364   5.847  10.017  0.0665 -0.3972 -0.0717
   66CHL1   H7A 7302   2.469   5.875   9.999  0.0868 -0.2925  0.2016
   66CHL1   H7B 7303   2.351   5.739   9.992  1.3829 -0.1283 -2.0744
   66CHL1    C8 7304   2.290   5.929   9.911  0.6886 -0.4195 -0.5373
   66CHL1    H8 7305   2.333   6.032   9.913 -0.5332  0.0947  0.7194
   66CHL1   C14 7306   2.289   5.868   9.773  0.1515  0.3887  1.0513
   66CHL1   H14 7307   2.234   5.772   9.786  0.5754 -0.0419 -0.1736
   66CHL1   C15 7308   2.420   5.809   9.715 -0.5987 -1.3388  1.4110
   66CHL1  H15A 7309   2.509   5.872   9.735 -0.3222 -0.4146 -2.1534
   66CHL1  H15B 7310   2.441   5.713   9.768 -0.0602 -0.0333  3.7179
   66CHL1   C16 7311   2.397   5.813   9.567 -0.5586 -0.3376  0.7082
   66CHL1  H16A 7312   2.461   5.889   9.517 -1.4385  0.0958  0.2063
   66CHL1  H16B 7313   2.406   5.713   9.521 -0.6834  0.1904 -0.5077
   66CHL1   C17 7314   2.258   5.870   9.541 -0.6318 -0.0573  0.3384
   66CHL1   H17 7315   2.185   5.786   9.546 -2.7825  1.5756 -1.5407
   66CHL1   C13 7316   2.220   5.952   9.664  0.1324 -0.4328  0.2281
   66CHL1   C18 7317   2.301   6.093   9.659  0.6548  0.7042 -0.3783
   66CHL1  H18A 7318   2.270   6.146   9.751  2.3754  0.3159  0.4702
   66CHL1  H18B 7319   2.412   6.081   9.663  0.6688  1.1358  1.3047
   66CHL1  H18C 7320   2.273   6.154   9.570  1.3458  0.9297 -0.4533
   66CHL1   C12 7321   2.070   5.980   9.698  0.6583  1.2198  0.0362
   66CHL1  H12A 7322   2.014   6.061   9.647 -2.5359 -1.1303 -0.4927
   66CHL1  H12B 7323   2.028   5.878   9.684  1.1850  0.8378  1.1113
   66CHL1   C11 7324   2.056   6.017   9.845 -0.1324 -0.6625  0.1215
   66CHL1  H11A 7325   2.088   6.122   9.863  0.6829 -1.3382  3.1144
   66CHL1  H11B 7326   1.949   6.022   9.876  0.6362 -0.4055  3.0672
   66CHL1    C9 7327   2.144   5.945   9.952  0.1287 -0.1838  0.2150
   66CHL1    H9 7328   2.110   5.840   9.961 -1.3141  0.2152 -0.3267
   66CHL1   C10 7329   2.131   6.013  10.094 -0.1602  0.5987  0.4470
   66CHL1   C19 7330   2.150   6.168  10.097 -0.4811  0.9847  0.0441
   66CHL1  H19A 7331   2.252   6.197  10.066  0.1252 -1.0363  0.0022
   66CHL1  H19B 7332   2.063   6.212  10.043 -0.3716 -1.1582 -2.0404
   66CHL1  H19C 7333   2.153   6.205  10.202  1.9480 -1.9050  1.1313
   66CHL1    C1 7334   1.987   5.983  10.148  0.2209  0.1989 -0.1940
   66CHL1   H1A 7335   1.913   6.045  10.093 -0.2342  0.9990  1.2708
   66CHL1   H1B 7336   1.966   5.877  10.120 -1.5484  0.5094 -0.1826
   66CHL1    C2 7337   1.968   5.999  10.301 -0.1658 -0.5694 -0.9114
   66CHL1   H2A 7338   1.867   5.957  10.322 -0.7651  0.3708 -1.7759
   66CHL1   H2B 7339   1.950   6.103  10.336  0.0620 -1.2223  1.3369
   66CHL1   C20 7340   2.233   5.924   9.397 -0.4178  0.2499 -0.9228
   66CHL1   H20 7341   2.317   5.995   9.380 -1.3127  2.5213  2.9152
   66CHL1   C21 7342   2.108   6.006   9.386  0.6434  0.3567 -0.2955
   66CHL1  H21A 7343   2.022   5.939   9.405  0.1866  1.2138  0.7883
   66CHL1  H21B 7344   2.097   6.035   9.280  0.4617 -0.9732 -0.6506
   66CHL1  H21C 7345   2.106   6.101   9.444  0.0572  0.4878 -0.5244
   66CHL1   C22 7346   2.233   5.824   9.284 -0.7902  0.1570  0.7669
   66CHL1  H22A 7347   2.299   5.742   9.318  0.8933  0.5685 -1.2620
   66CHL1  H22B 7348   2.133   5.780   9.267 -0.9845  1.4281 -2.1306
   66CHL1   C23 7349   2.291   5.896   9.155  0.4704 -0.5850  0.1386
   66CHL1  H23A 7350   2.209   5.957   9.113 -1.4564 -2.3941  1.1251
   66CHL1  H23B 7351   2.373   5.964   9.188  2.8084 -3.6823  1.2609
   66CHL1   C24 7352   2.339   5.797   9.047  0.0232  0.2061  0.2015
   66CHL1  H24A 7353   2.405   5.719   9.089  0.6061 -0.5804 -2.0200
   66CHL1  H24B 7354   2.243   5.744   9.034 -0.0493 -0.1438  1.9556
   66CHL1   C25 7355   2.369   5.851   8.909  0.3310 -0.8473 -0.2094
   66CHL1   H25 7356   2.285   5.917   8.878  1.9659  1.2919 -0.2807
   66CHL1   C26 7357   2.498   5.935   8.905 -0.4904 -0.8437 -0.3794
   66CHL1  H26A 7358   2.593   5.882   8.925 -2.6382 -4.2074  2.1038
   66CHL1  H26B 7359   2.494   5.991   8.810 -0.0360 -0.0084  0.0849
   66CHL1  H26C 7360   2.489   6.006   8.990  0.5032 -0.8159 -0.2872
   66CHL1   C27 7361   2.392   5.730   8.821 -0.0598 -0.4674 -0.1909
   66CHL1  H27A 7362   2.485   5.681   8.856  0.7752  0.4841 -1.0110
   66CHL1  H27B 7363   2.307   5.658   8.818 -0.6820  0.2775 -1.5819
   66CHL1  H27C 7364   2.394   5.764   8.715 -1.8171 -2.2671 -0.8610
   67CHL1    C3 7365   0.060   1.205  10.134 -0.3769  0.2670  0.3892
   67CHL1    H3 7366   0.142   1.132  10.115 -0.2876  0.6609 -0.8281
   67CHL1    O3 7367   0.048   1.228  10.273 -0.2394  0.2928 -0.0643
   67CHL1   H3' 7368   0.025   1.318  10.298  0.6274  0.0286  1.8933
   67CHL1    C4 7369   0.086   1.338  10.060  0.7389  0.0487 -0.2909
   67CHL1   H4A 7370   0.009   1.410  10.096  1.6967 -0.5096  3.2040
   67CHL1   H4B 7371   0.186   1.372  10.095 -0.4801  2.9517  0.6567
   67CHL1    C5 7372   0.096   1.317   9.911 -0.4263 -0.5703  0.5237
   67CHL1    C6 7373   0.198   1.373   9.843 -0.0399 -0.0891 -0.6303
   67CHL1    H6 7374   0.271   1.434   9.898 -0.8596  0.6336 -0.3353
   67CHL1    C7 7375   0.220   1.362   9.694  0.0081  0.0919 -0.3069
   67CHL1   H7A 7376   0.249   1.453   9.637 -0.3697 -0.1182 -0.8532
   67CHL1   H7B 7377   0.299   1.284   9.693 -0.8515 -0.7928 -0.5045
   67CHL1    C8 7378   0.097   1.306   9.623 -0.9551  0.7701 -0.3528
   67CHL1    H8 7379   0.036   1.398   9.606  0.9619  2.5476  1.7808
   67CHL1   C14 7380   0.148   1.240   9.503 -0.6979  0.0812  0.4999
   67CHL1   H14 7381   0.213   1.158   9.540 -1.0506 -0.5834 -0.3173
   67CHL1   C15 7382   0.254   1.319   9.421  0.4107 -0.2565 -0.3648
   67CHL1  H15A 7383   0.227   1.427   9.425  0.4552 -0.2795  0.8487
   67CHL1  H15B 7384   0.355   1.294   9.462  0.5465  0.3867 -0.2905
   67CHL1   C16 7385   0.233   1.266   9.278  0.1896  0.3118  0.5262
   67CHL1  H16A 7386   0.202   1.348   9.210 -1.8703 -0.5658  0.3150
   67CHL1  H16B 7387   0.329   1.221   9.244  1.4005  1.8806  1.7158
   67CHL1   C17 7388   0.121   1.166   9.275  0.3286  0.2189 -0.3175
   67CHL1   H17 7389   0.166   1.066   9.296 -1.0629 -0.4154 -0.2691
   67CHL1   C13 7390   0.038   1.194   9.402  0.2506  0.2139 -0.3094
   67CHL1   C18 7391  -0.073   1.296   9.375  0.0794 -0.0209  0.2860
   67CHL1  H18A 7392  -0.129   1.324   9.467  2.5678  0.5935  1.6819
   67CHL1  H18B 7393  -0.021   1.381   9.327 -1.8636  0.2497 -1.5193
   67CHL1  H18C 7394  -0.138   1.254   9.295 -1.1372  1.5344  0.3935
   67CHL1   C12 7395  -0.027   1.077   9.479  0.3908 -0.9710 -1.1048
   67CHL1  H12A 7396  -0.105   1.029   9.415  0.0493 -0.6035 -0.9664
   67CHL1  H12B 7397   0.051   1.001   9.500  0.4046 -0.6335  0.0986
   67CHL1   C11 7398  -0.088   1.127   9.617 -0.1230  0.2926 -0.0457
   67CHL1  H11A 7399  -0.164   1.206   9.606  2.3793  2.6354 -1.7527
   67CHL1  H11B 7400  -0.126   1.037   9.671 -0.6555  0.1926 -0.5793
   67CHL1    C9 7401   0.024   1.199   9.702  0.2640  0.6253 -0.3378
   67CHL1    H9 7402   0.101   1.118   9.707  0.5566  0.8264 -1.3653
   67CHL1   C10 7403  -0.020   1.236   9.846 -0.4340  0.5799 -0.1798
   67CHL1   C19 7404  -0.148   1.336   9.841 -1.0349 -0.1840  0.1617
   67CHL1  H19A 7405  -0.119   1.426   9.782  3.5362 -1.7938 -0.4890
   67CHL1  H19B 7406  -0.238   1.284   9.803 -2.7070  1.6073  1.4767
   67CHL1  H19C 7407  -0.177   1.368   9.943 -0.7556 -0.5990  0.3758
   67CHL1    C1 7408  -0.055   1.111   9.930 -0.1087 -0.5090 -0.0759
   67CHL1   H1A 7409  -0.152   1.062   9.909  0.0142 -0.5156 -0.6264
   67CHL1   H1B 7410   0.023   1.032   9.927 -2.1663 -2.8589  2.3602
   67CHL1    C2 7411  -0.071   1.150  10.082  0.0149 -0.3127 -0.4111
   67CHL1   H2A 7412  -0.110   1.067  10.145  0.5795 -1.3546 -1.3999
   67CHL1   H2B 7413  -0.149   1.229  10.091  1.5339  1.4262 -1.7683
   67CHL1   C20 7414   0.051   1.148   9.144  0.0960 -0.5054  1.0151
   67CHL1   H20 7415  -0.017   1.233   9.120  0.4569 -0.6673 -0.7159
   67CHL1   C21 7416  -0.051   1.041   9.154  0.0096 -0.2752 -0.4024
   67CHL1  H21A 7417  -0.098   1.013   9.058 -0.1815  1.0368 -0.7128
   67CHL1  H21B 7418  -0.138   1.059   9.221 -1.7692 -1.5619 -2.2336
   67CHL1  H21C 7419   0.006   0.956   9.197 -3.1501 -1.1839  2.4630
   67CHL1   C22 7420   0.138   1.116   9.021 -0.5198 -0.1395  0.6624
   67CHL1  H22A 7421   0.245   1.140   9.038 -0.4249  0.7557 -0.9852
   67CHL1  H22B 7422   0.120   1.010   8.992  0.0031  0.5035 -2.3817
   67CHL1   C23 7423   0.104   1.204   8.899 -0.0435 -0.3477  0.6120
   67CHL1  H23A 7424  -0.005   1.224   8.906  0.0475  0.2398  0.4011
   67CHL1  H23B 7425   0.159   1.299   8.915 -0.2620 -0.2601  0.8534
   67CHL1   C24 7426   0.146   1.144   8.767  0.3093  0.2800  0.1033
   67CHL1  H24A 7427   0.256   1.161   8.759  0.3223  0.1033 -0.0809
   67CHL1  H24B 7428   0.146   1.033   8.761 -0.6303  0.2201  0.9357
   67CHL1   C25 7429   0.092   1.205   8.635  0.8542  0.3039  0.4784
   67CHL1   H25 7430   0.125   1.311   8.641  2.4672 -0.1642  0.4627
   67CHL1   C26 7431   0.159   1.154   8.508 -0.3295 -0.3823 -0.1649
   67CHL1  H26A 7432   0.164   1.044   8.499 -2.0501 -0.3812 -1.7239
   67CHL1  H26B 7433   0.112   1.199   8.417 -1.5565 -0.8260  0.2339
   67CHL1  H26C 7434   0.264   1.190   8.502 -0.6518  0.5453 -0.5636
   67CHL1   C27 7435  -0.063   1.193   8.621 -0.3261 -0.3660 -0.6472
   67CHL1  H27A 7436  -0.091   1.180   8.514  0.4075  0.0277 -0.8936
   67CHL1  H27B 7437  -0.104   1.112   8.685 -1.3356  2.1162  2.0385
   67CHL1  H27C 7438  -0.107   1.285   8.662  1.9251  0.7842 -0.6616
   68CHL1    C3 7439   5.851   0.105  10.167 -0.3836 -0.2617  0.1225
   68CHL1    H3 7440   5.955   0.065  10.163  0.4397  1.9038 -2.1951
   68CHL1    O3 7441   5.808   0.088  10.298  0.7763  0.0520 -0.0341
   68CHL1   H3' 7442   5.805  -0.007  10.311 -0.5862 -0.5150 -3.4207
   68CHL1    C4 7443   5.855   0.253  10.139  0.3601 -0.3320  0.6925
   68CHL1   H4A 7444   5.754   0.296  10.159  1.3402  1.9904  0.9831
   68CHL1   H4B 7445   5.930   0.299  10.207  0.1741  1.4521 -0.2431
   68CHL1    C5 7446   5.887   0.286   9.998 -0.9943  0.1828  0.0849
   68CHL1    C6 7447   5.991   0.365   9.973 -0.2123 -0.3075  0.8114
   68CHL1    H6 7448   6.044   0.417  10.054  1.5937 -0.5915 -0.1100
   68CHL1    C7 7449   6.042   0.393   9.835 -0.1581 -0.2916  0.1727
   68CHL1   H7A 7450   6.080   0.497   9.824 -1.0236  0.1827  1.4317
   68CHL1   H7B 7451   6.136   0.334   9.824  0.1494 -0.0510  1.3436
   68CHL1    C8 7452   5.930   0.366   9.728  0.5845 -0.0417  0.7631
   68CHL1    H8 7453   5.852   0.444   9.739  0.1462 -0.4017  0.2995
   68CHL1   C14 7454   6.003   0.367   9.592  0.5277  0.1195  0.4858
   68CHL1   H14 7455   6.083   0.289   9.597  1.7555  1.3835  1.1611
   68CHL1   C15 7456   6.073   0.498   9.555 -0.5141  0.5508  0.7752
   68CHL1  H15A 7457   6.016   0.592   9.570 -0.3157  0.5216  1.7953
   68CHL1  H15B 7458   6.168   0.521   9.608  0.5031  2.7383 -1.7275
   68CHL1   C16 7459   6.093   0.486   9.402 -0.0013  0.4224  0.4093
   68CHL1  H16A 7460   6.069   0.587   9.364  2.3070  2.0528  2.9531
   68CHL1  H16B 7461   6.197   0.461   9.372 -0.5147 -1.3450 -0.0532
   68CHL1   C17 7462   6.008   0.364   9.356 -0.4815  0.2941  0.5093
   68CHL1   H17 7463   6.073   0.274   9.349 -1.6845 -0.5061 -1.1043
   68CHL1   C13 7464   5.909   0.342   9.465  0.1425 -0.1544 -0.5800
   68CHL1   C18 7465   5.792   0.444   9.467  0.1841 -0.5418 -0.3225
   68CHL1  H18A 7466   5.823   0.539   9.417 -1.5172  0.4608  0.4291
   68CHL1  H18B 7467   5.711   0.398   9.406 -0.2490 -0.5240  0.2350
   68CHL1  H18C 7468   5.760   0.472   9.570  2.1725 -2.3072  0.8405
   68CHL1   C12 7469   5.859   0.200   9.493 -0.0886 -0.4715  0.8510
   68CHL1  H12A 7470   5.787   0.182   9.411  1.9668 -0.1964 -1.0884
   68CHL1  H12B 7471   5.946   0.133   9.481  0.1726 -0.2743  1.5929
   68CHL1   C11 7472   5.791   0.176   9.622 -0.2424 -0.0551  0.5290
   68CHL1  H11A 7473   5.695   0.230   9.620 -0.4954 -0.4967  0.5916
   68CHL1  H11B 7474   5.770   0.069   9.644  0.6685  0.3530  4.1744
   68CHL1    C9 7475   5.875   0.222   9.746 -0.2949 -0.5971 -0.4302
   68CHL1    H9 7476   5.957   0.148   9.739  0.8018  0.5066  0.4385
   68CHL1   C10 7477   5.817   0.196   9.891  0.0455 -0.5331  0.5574
   68CHL1   C19 7478   5.667   0.240   9.884 -0.2209  0.0555  0.2275
   68CHL1  H19A 7479   5.662   0.342   9.840  2.5912  0.7740  1.3208
   68CHL1  H19B 7480   5.606   0.182   9.812  1.7564 -1.1833 -0.5483
   68CHL1  H19C 7481   5.606   0.240   9.976 -1.6588  2.5414 -0.6431
   68CHL1    C1 7482   5.815   0.046   9.924  0.7623  0.1058  0.4578
   68CHL1   H1A 7483   5.755  -0.003   9.845  2.4081 -1.2938  0.0052
   68CHL1   H1B 7484   5.914  -0.004   9.919  0.3094 -0.7342 -0.4291
   68CHL1    C2 7485   5.767   0.028  10.064 -0.4436  0.0603 -0.4121
   68CHL1   H2A 7486   5.767  -0.080  10.088  0.3503 -0.0501 -0.8734
   68CHL1   H2B 7487   5.659   0.053  10.071 -0.7380 -0.7607 -1.6759
   68CHL1   C20 7488   5.959   0.382   9.211  0.1106  0.2915 -0.3748
   68CHL1   H20 7489   5.894   0.472   9.206 -0.0730  0.2645  1.0443
   68CHL1   C21 7490   5.871   0.261   9.163  0.4485  0.0907  0.0094
   68CHL1  H21A 7491   5.770   0.258   9.209  1.7549  1.6455  3.3075
   68CHL1  H21B 7492   5.906   0.164   9.205  1.6242  1.4213  2.2973
   68CHL1  H21C 7493   5.869   0.256   9.052  0.8667 -1.7692  0.0458
   68CHL1   C22 7494   6.074   0.398   9.119  0.6285 -0.4413 -0.6086
   68CHL1  H22A 7495   6.140   0.482   9.152 -1.1816  0.3782  1.0929
   68CHL1  H22B 7496   6.122   0.301   9.095  1.5771 -0.0597 -0.3129
   68CHL1   C23 7497   6.026   0.456   8.974  0.9609  0.3718 -0.0348
   68CHL1  H23A 7498   5.966   0.373   8.929  1.3716 -0.4760  0.9291
   68CHL1  H23B 7499   5.962   0.545   8.992 -0.2952 -0.2864 -1.0774
   68CHL1   C24 7500   6.140   0.494   8.890  0.1400  0.1175 -0.6329
   68CHL1  H24A 7501   6.195   0.584   8.925 -2.1781  1.2865  0.1986
   68CHL1  H24B 7502   6.212   0.410   8.874  1.2495  0.9296 -0.0639
   68CHL1   C25 7503   6.093   0.536   8.754 -0.9389 -0.8828  0.2738
   68CHL1   H25 7504   5.989   0.571   8.763 -0.7332 -0.5540  1.6944
   68CHL1   C26 7505   6.162   0.666   8.694 -0.0747  0.2845 -0.2745
   68CHL1  H26A 7506   6.270   0.651   8.672 -0.1151 -1.5110  0.6269
   68CHL1  H26B 7507   6.114   0.709   8.603  2.7315  1.2371 -1.4190
   68CHL1  H26C 7508   6.140   0.744   8.770 -0.2521  0.2810 -0.3210
   68CHL1   C27 7509   6.107   0.424   8.650 -0.2334  0.5656 -0.0430
   68CHL1  H27A 7510   6.212   0.399   8.625 -0.3181  0.0739  0.0881
   68CHL1  H27B 7511   6.053   0.333   8.685 -0.2499  0.7534  0.4258
   68CHL1  H27C 7512   6.045   0.460   8.565 -0.4335  0.6534  0.1390
   69CHL1    C3 7513   3.458   2.038   6.830  0.5790 -0.0704 -0.3769
   69CHL1    H3 7514   3.510   2.135   6.845 -2.0357  1.0789  2.0417
   69CHL1    O3 7515   3.467   2.025   6.685  0.0329  0.5288  0.9275
   69CHL1   H3' 7516   3.400   1.959   6.667 -0.1216  0.7677  0.6285
   69CHL1    C4 7517   3.525   1.928   6.916 -0.0564 -0.6019 -0.1395
   69CHL1   H4A 7518   3.476   1.831   6.891 -0.1901 -0.6205  0.1895
   69CHL1   H4B 7519   3.632   1.914   6.889  0.4645  0.9499  0.9869
   69CHL1    C5 7520   3.509   1.958   7.070 -0.2477  0.6437 -0.2387
   69CHL1    C6 7521   3.618   1.948   7.152  0.0202  0.5627 -0.1617
   69CHL1    H6 7522   3.715   1.920   7.107  1.6520  1.9442  2.2287
   69CHL1    C7 7523   3.612   1.964   7.298  0.1204 -1.2097  0.5800
   69CHL1   H7A 7524   3.663   1.874   7.338  1.5656  0.6932  3.3500
   69CHL1   H7B 7525   3.671   2.048   7.340 -1.0352  0.1054 -0.3342
   69CHL1    C8 7526   3.467   1.964   7.360  0.1245 -0.5503  0.7120
   69CHL1    H8 7527   3.433   1.858   7.365  1.8799 -1.2245 -0.7236
   69CHL1   C14 7528   3.459   2.025   7.497 -0.0918 -0.0359  0.1195
   69CHL1   H14 7529   3.483   2.132   7.480  1.0778 -0.4928 -1.3197
   69CHL1   C15 7530   3.559   1.962   7.594  0.0389 -0.3608  0.1492
   69CHL1  H15A 7531   3.567   1.851   7.597 -1.6282 -0.4963  1.6438
   69CHL1  H15B 7532   3.661   2.005   7.584 -0.8188  1.7560 -0.0263
   69CHL1   C16 7533   3.504   1.991   7.735 -0.9913  0.7552 -0.3438
   69CHL1  H16A 7534   3.476   1.902   7.795 -1.0258  2.2899  2.0088
   69CHL1  H16B 7535   3.587   2.035   7.795 -1.5468 -1.5886  2.3387
   69CHL1   C17 7536   3.379   2.073   7.710 -0.1632 -0.1548 -0.9434
   69CHL1   H17 7537   3.414   2.172   7.673  1.2412 -1.1783 -2.4623
   69CHL1   C13 7538   3.323   2.019   7.572  0.0710  0.2692  0.0179
   69CHL1   C18 7539   3.276   1.873   7.577  0.0610 -0.9206 -0.2682
   69CHL1  H18A 7540   3.267   1.811   7.486 -0.5685 -1.1606 -0.0483
   69CHL1  H18B 7541   3.339   1.812   7.645 -1.1766 -2.2406 -0.2690
   69CHL1  H18C 7542   3.176   1.878   7.626  0.7447  0.2576  1.1112
   69CHL1   C12 7543   3.232   2.101   7.481  0.2881 -0.7023  0.1634
   69CHL1  H12A 7544   3.130   2.090   7.523  1.2764 -1.3101  2.5795
   69CHL1  H12B 7545   3.260   2.209   7.477  0.7734 -0.7684  1.5170
   69CHL1   C11 7546   3.236   2.063   7.331 -0.2622 -0.3115  0.3810
   69CHL1  H11A 7547   3.192   1.961   7.333  0.4301 -0.7042 -1.5476
   69CHL1  H11B 7548   3.161   2.117   7.269 -1.3804 -2.6251 -0.3921
   69CHL1    C9 7549   3.368   2.041   7.269  0.3276  0.2931  0.0330
   69CHL1    H9 7550   3.411   2.144   7.270 -0.0525  0.4595 -0.5113
   69CHL1   C10 7551   3.360   1.990   7.120  0.1570 -0.5808 -0.2846
   69CHL1   C19 7552   3.292   1.847   7.112 -0.1804 -0.4112  0.1202
   69CHL1  H19A 7553   3.346   1.767   7.167  0.0402 -1.6930 -1.8888
   69CHL1  H19B 7554   3.191   1.854   7.157  0.5980 -0.7190  2.0383
   69CHL1  H19C 7555   3.284   1.825   7.004  2.7678  1.9846 -0.7377
   69CHL1    C1 7556   3.292   2.095   7.024 -0.6690  0.3281  0.6551
   69CHL1   H1A 7557   3.186   2.130   7.032  0.1664  3.7007 -1.0931
   69CHL1   H1B 7558   3.346   2.191   7.038  0.7188  0.1362 -2.5013
   69CHL1    C2 7559   3.309   2.060   6.870 -0.3439 -0.5531  0.9987
   69CHL1   H2A 7560   3.258   2.143   6.817 -1.1971  0.5183  3.3528
   69CHL1   H2B 7561   3.253   1.971   6.832  0.8175 -0.8439 -0.0864
   69CHL1   C20 7562   3.284   2.093   7.829  0.7455  0.7498 -0.9253
   69CHL1   H20 7563   3.224   2.002   7.849 -0.1932  2.0236  2.6904
   69CHL1   C21 7564   3.175   2.208   7.801 -0.1461 -0.7215 -0.2663
   69CHL1  H21A 7565   3.236   2.299   7.782  0.3312 -1.2119 -1.1259
   69CHL1  H21B 7566   3.106   2.221   7.887 -0.7797  0.1506 -0.8976
   69CHL1  H21C 7567   3.114   2.186   7.711  0.3893  0.7241 -1.0145
   69CHL1   C22 7568   3.359   2.119   7.966  0.3954 -0.9016  0.1367
   69CHL1  H22A 7569   3.440   2.044   7.966 -0.1944 -1.5710 -1.0067
   69CHL1  H22B 7570   3.395   2.223   7.981 -1.9185 -0.3349  2.7324
   69CHL1   C23 7571   3.275   2.096   8.098  0.1914  0.6809  0.8480
   69CHL1  H23A 7572   3.186   2.162   8.090  0.9516  1.5072 -1.7974
   69CHL1  H23B 7573   3.243   1.990   8.090 -0.4867  0.9423 -0.0753
   69CHL1   C24 7574   3.334   2.129   8.237 -0.5558 -0.2040  0.5012
   69CHL1  H24A 7575   3.423   2.064   8.252 -1.2749 -1.0563  1.2276
   69CHL1  H24B 7576   3.368   2.234   8.230 -3.0955  0.5602 -3.4488
   69CHL1   C25 7577   3.234   2.115   8.352 -0.5748 -0.2517  1.1841
   69CHL1   H25 7578   3.147   2.176   8.321 -1.0679 -1.0848  0.8894
   69CHL1   C26 7579   3.190   1.967   8.367  0.4762  0.3779  0.4984
   69CHL1  H26A 7580   3.283   1.908   8.381 -0.2047 -0.8118  0.0794
   69CHL1  H26B 7581   3.122   1.945   8.453 -0.3845 -0.6704 -0.4253
   69CHL1  H26C 7582   3.137   1.921   8.282 -3.1683  0.6485  2.4284
   69CHL1   C27 7583   3.296   2.170   8.482 -0.2849 -0.1416 -0.0963
   69CHL1  H27A 7584   3.232   2.145   8.569 -0.5415 -2.2945 -0.8381
   69CHL1  H27B 7585   3.396   2.135   8.517 -0.4482 -0.5718 -0.0493
   69CHL1  H27C 7586   3.315   2.277   8.457  1.7477 -0.8905 -2.0566
   70CHL1    C3 7587   1.359   0.253   6.993  0.0847  0.5514  0.1354
   70CHL1    H3 7588   1.302   0.348   6.992  0.5928  0.9054 -2.6201
   70CHL1    O3 7589   1.432   0.224   6.872 -0.4905 -0.4785  0.2531
   70CHL1   H3' 7590   1.484   0.144   6.884 -0.0875 -0.1397  0.7924
   70CHL1    C4 7591   1.461   0.250   7.108 -0.3245  1.0047  1.0164
   70CHL1   H4A 7592   1.515   0.154   7.097 -1.9561  0.1124  0.3504
   70CHL1   H4B 7593   1.524   0.340   7.091 -0.6101  1.1557  0.7512
   70CHL1    C5 7594   1.400   0.249   7.246  0.3318  0.0188  0.2147
   70CHL1    C6 7595   1.437   0.346   7.334  0.2637  0.7158  0.0804
   70CHL1    H6 7596   1.513   0.422   7.313 -0.0046  1.2447  1.0030
   70CHL1    C7 7597   1.382   0.350   7.473  0.0506  0.4729 -0.2094
   70CHL1   H7A 7598   1.466   0.363   7.544  1.5288 -1.9664 -1.4037
   70CHL1   H7B 7599   1.312   0.437   7.483  1.7905  1.8925  0.1624
   70CHL1    C8 7600   1.309   0.214   7.513  0.0598  0.3022  0.2404
   70CHL1    H8 7601   1.389   0.139   7.532 -0.8727 -0.1785  2.6822
   70CHL1   C14 7602   1.233   0.234   7.647  0.1608  0.2573 -0.0091
   70CHL1   H14 7603   1.174   0.326   7.632  2.7154  1.7149 -1.9132
   70CHL1   C15 7604   1.311   0.259   7.779  0.3178 -0.3379 -0.5872
   70CHL1  H15A 7605   1.382   0.174   7.785  1.0851  0.3363  0.1315
   70CHL1  H15B 7606   1.362   0.358   7.788 -1.7977  0.7519  0.3470
   70CHL1   C16 7607   1.218   0.233   7.891  0.0678  0.2214  0.0587
   70CHL1  H16A 7608   1.269   0.189   7.980  0.3916 -1.7514 -1.0329
   70CHL1  H16B 7609   1.161   0.323   7.922  0.2638 -0.0462  1.2706
   70CHL1   C17 7610   1.098   0.148   7.827 -0.5041 -0.1360  0.5078
   70CHL1   H17 7611   1.018   0.223   7.811 -0.9999  0.0213  3.1564
   70CHL1   C13 7612   1.146   0.105   7.686 -0.3247 -0.9538  0.2261
   70CHL1   C18 7613   1.235  -0.016   7.696  0.1855 -0.2127 -0.7548
   70CHL1  H18A 7614   1.289  -0.033   7.600 -1.0292 -1.8654 -1.1954
   70CHL1  H18B 7615   1.311   0.004   7.775 -0.4502  0.0730 -0.2172
   70CHL1  H18C 7616   1.185  -0.110   7.726 -0.0852  0.3246  0.5086
   70CHL1   C12 7617   1.038   0.081   7.572 -0.6861 -1.0088 -0.2451
   70CHL1  H12A 7618   0.968  -0.001   7.598 -1.5060  0.0552  1.0584
   70CHL1  H12B 7619   0.988   0.181   7.571 -0.3272 -0.8287 -0.1558
   70CHL1   C11 7620   1.105   0.061   7.432 -1.0164 -0.4393 -0.5575
   70CHL1  H11A 7621   1.156  -0.036   7.423  0.9817  0.6903 -2.1757
   70CHL1  H11B 7622   1.026   0.071   7.354 -0.6136  1.8827 -0.7566
   70CHL1    C9 7623   1.209   0.171   7.401  0.1987 -0.5884 -0.7157
   70CHL1    H9 7624   1.146   0.261   7.384  1.3516  0.0634 -1.7271
   70CHL1   C10 7625   1.282   0.145   7.267  0.5158  0.4877 -0.6702
   70CHL1   C19 7626   1.355   0.010   7.272 -0.1988  0.1324 -0.5797
   70CHL1  H19A 7627   1.290  -0.077   7.295  1.2918 -0.6910  0.7571
   70CHL1  H19B 7628   1.396  -0.016   7.172 -1.8691 -2.4373 -0.6900
   70CHL1  H19C 7629   1.435   0.010   7.349 -1.4115  0.9165  0.7172
   70CHL1    C1 7630   1.185   0.139   7.152  0.5448  0.3552 -0.5033
   70CHL1   H1A 7631   1.115   0.053   7.163  1.2427 -0.4834 -2.2877
   70CHL1   H1B 7632   1.120   0.228   7.165  2.6669  1.8946  0.1158
   70CHL1    C2 7633   1.247   0.146   7.011  0.4180  0.5290  0.5298
   70CHL1   H2A 7634   1.175   0.178   6.933  3.5112  2.0307 -1.9700
   70CHL1   H2B 7635   1.291   0.047   6.986  1.5570  1.3049 -0.6852
   70CHL1   C20 7636   1.049   0.035   7.923  0.0066 -0.2130 -0.0254
   70CHL1   H20 7637   1.137  -0.031   7.939 -0.5645 -1.2428 -1.0303
   70CHL1   C21 7638   0.922  -0.031   7.859  0.1212 -0.2068  0.6980
   70CHL1  H21A 7639   0.837   0.033   7.826 -0.0729 -0.8149 -0.0183
   70CHL1  H21B 7640   0.873  -0.096   7.935 -0.0858  1.7831  2.3376
   70CHL1  H21C 7641   0.967  -0.088   7.775  0.0218  0.8275 -0.0822
   70CHL1   C22 7642   1.025   0.098   8.062  0.1021  0.3799 -0.5324
   70CHL1  H22A 7643   1.121   0.137   8.103  0.0567  0.5880 -0.6206
   70CHL1  H22B 7644   0.954   0.183   8.056  1.8967  1.9815 -0.1646
   70CHL1   C23 7645   0.972  -0.012   8.165  0.3589  0.4006 -0.4269
   70CHL1  H23A 7646   0.864  -0.025   8.146  0.6579 -1.3498 -1.1509
   70CHL1  H23B 7647   1.027  -0.104   8.136  0.3843  0.4555 -0.5513
   70CHL1   C24 7648   0.998   0.027   8.312 -0.0011  0.0174 -0.0976
   70CHL1  H24A 7649   1.108   0.031   8.327  0.2973  2.5334 -2.3362
   70CHL1  H24B 7650   0.984   0.137   8.317 -3.4778 -0.1213 -2.8686
   70CHL1   C25 7651   0.924  -0.060   8.415 -0.2040  0.3140 -0.0531
   70CHL1   H25 7652   0.938  -0.168   8.397  0.5713 -0.0014  2.1615
   70CHL1   C26 7653   0.993  -0.035   8.550  0.5375  0.4807  0.0319
   70CHL1  H26A 7654   0.967   0.069   8.579 -1.9212 -0.5606  1.9943
   70CHL1  H26B 7655   0.967  -0.104   8.633  3.2418  0.1259  0.6810
   70CHL1  H26C 7656   1.103  -0.050   8.541  0.4879 -0.1284  0.3880
   70CHL1   C27 7657   0.772  -0.031   8.421  0.1750 -0.0503 -0.3642
   70CHL1  H27A 7658   0.732  -0.014   8.318 -1.0985 -1.8614 -0.2093
   70CHL1  H27B 7659   0.716  -0.122   8.451  1.3976 -0.3421  1.1202
   70CHL1  H27C 7660   0.755   0.065   8.474 -0.6099 -0.5762  0.3677
   71CHL1    C3 7661   4.614   1.096   6.822 -0.4371  0.7151  0.3083
   71CHL1    H3 7662   4.660   1.196   6.831  1.4349  0.0863 -1.5017
   71CHL1    O3 7663   4.592   1.087   6.682 -0.2961  0.0752  0.1651
   71CHL1   H3' 7664   4.540   1.008   6.667 -2.3204  1.3024  0.3241
   71CHL1    C4 7665   4.704   0.980   6.874 -0.5482  0.6266  0.2918
   71CHL1   H4A 7666   4.674   0.874   6.856  0.9198  0.3886 -1.0318
   71CHL1   H4B 7667   4.804   0.993   6.827 -0.8360 -0.9787 -0.8612
   71CHL1    C5 7668   4.709   1.005   7.024 -0.0060  0.0150 -0.7586
   71CHL1    C6 7669   4.827   1.014   7.084 -0.4823 -0.4111 -0.2337
   71CHL1    H6 7670   4.920   0.996   7.028 -0.2296  1.2271 -0.3690
   71CHL1    C7 7671   4.850   1.024   7.233 -0.0758  0.0014 -0.3795
   71CHL1   H7A 7672   4.936   0.962   7.269  0.1753  1.1989  1.1853
   71CHL1   H7B 7673   4.857   1.130   7.266 -0.1611 -0.4245  1.1049
   71CHL1    C8 7674   4.727   0.970   7.310  0.2885 -0.1412 -1.0608
   71CHL1    H8 7675   4.718   0.860   7.297  0.6192 -0.5165  1.3629
   71CHL1   C14 7676   4.742   1.001   7.455  1.0471  0.2017  0.0109
   71CHL1   H14 7677   4.743   1.112   7.464 -1.8982  0.1669  2.0890
   71CHL1   C15 7678   4.860   0.952   7.536  0.2697  0.4398 -0.3289
   71CHL1  H15A 7679   4.883   0.846   7.512 -1.6284 -0.0857 -0.0341
   71CHL1  H15B 7680   4.949   1.017   7.524  0.5730  0.2204  0.6465
   71CHL1   C16 7681   4.816   0.956   7.680  0.3345  0.6974  0.6771
   71CHL1  H16A 7682   4.843   0.860   7.728  0.7315  0.2106 -0.4860
   71CHL1  H16B 7683   4.885   1.023   7.737  0.7386 -0.0034  1.0211
   71CHL1   C17 7684   4.666   0.995   7.692  0.0646 -0.4242  0.5678
   71CHL1   H17 7685   4.667   1.106   7.696 -0.7713 -0.4177  0.6550
   71CHL1   C13 7686   4.616   0.970   7.545 -0.5472  0.1373  0.5864
   71CHL1   C18 7687   4.584   0.827   7.538 -0.2104  0.3432  0.2738
   71CHL1  H18A 7688   4.641   0.756   7.601 -1.2956  0.8447  1.8778
   71CHL1  H18B 7689   4.480   0.800   7.566 -0.4841 -2.1228 -2.5798
   71CHL1  H18C 7690   4.579   0.789   7.433 -1.3620 -0.0128  0.4470
   71CHL1   C12 7691   4.496   1.055   7.490  0.0294  0.2031 -0.1208
   71CHL1  H12A 7692   4.404   1.025   7.545  0.0501  0.3020 -0.0305
   71CHL1  H12B 7693   4.529   1.160   7.504  0.1967  0.2320 -0.6948
   71CHL1   C11 7694   4.479   1.018   7.345  0.3341 -0.0447 -0.3809
   71CHL1  H11A 7695   4.447   0.912   7.341 -0.1123  0.0604  0.4077
   71CHL1  H11B 7696   4.397   1.085   7.310 -0.0520 -0.0868  0.4344
   71CHL1    C9 7697   4.604   1.039   7.254  0.5645  0.6387 -0.5301
   71CHL1    H9 7698   4.634   1.146   7.262 -0.3659  0.7883  1.7200
   71CHL1   C10 7699   4.573   1.011   7.107 -0.5032  0.3840  0.4951
   71CHL1   C19 7700   4.505   0.868   7.097  0.5551 -0.0893  0.4861
   71CHL1  H19A 7701   4.481   0.831   6.995 -1.2238 -1.0327  1.2039
   71CHL1  H19B 7702   4.572   0.801   7.154 -0.4393  0.0768  1.8989
   71CHL1  H19C 7703   4.404   0.867   7.144 -0.0744 -0.5880 -0.8226
   71CHL1    C1 7704   4.490   1.118   7.041  0.6122  0.8322  0.2140
   71CHL1   H1A 7705   4.388   1.104   7.082  1.3407 -0.6309  1.6615
   71CHL1   H1B 7706   4.520   1.222   7.069 -0.4558  1.2155 -0.0318
   71CHL1    C2 7707   4.470   1.091   6.889  0.1875 -0.4169  0.1917
   71CHL1   H2A 7708   4.404   1.172   6.852 -1.5988 -2.2625 -0.9233
   71CHL1   H2B 7709   4.439   0.990   6.854  1.8412 -1.1828  0.8280
   71CHL1   C20 7710   4.598   0.949   7.813  0.3576  0.0468  0.5280
   71CHL1   H20 7711   4.602   0.838   7.816  0.3383  0.0369  0.2749
   71CHL1   C21 7712   4.447   0.999   7.818  0.1719  0.2421 -0.3201
   71CHL1  H21A 7713   4.382   0.945   7.747  0.7046 -1.0526  0.1595
   71CHL1  H21B 7714   4.434   1.108   7.796 -1.9322  0.2630  0.7162
   71CHL1  H21C 7715   4.415   0.987   7.924 -1.2526 -0.0616 -0.7624
   71CHL1   C22 7716   4.677   0.999   7.939  0.0572  0.0946  0.2969
   71CHL1  H22A 7717   4.787   0.983   7.937  0.0715  0.2361 -0.1142
   71CHL1  H22B 7718   4.671   1.109   7.947  0.1556  0.1297 -0.1150
   71CHL1   C23 7719   4.607   0.935   8.061 -0.3084 -0.6694 -0.7703
   71CHL1  H23A 7720   4.548   1.011   8.117 -2.7912 -1.9334 -1.5438
   71CHL1  H23B 7721   4.538   0.851   8.039  1.1654 -1.8273 -1.1947
   71CHL1   C24 7722   4.703   0.865   8.169 -0.7221  0.1738 -0.0060
   71CHL1  H24A 7723   4.782   0.804   8.120  1.1069  1.8527  0.7293
   71CHL1  H24B 7724   4.764   0.946   8.214 -1.9940  0.6073  0.9911
   71CHL1   C25 7725   4.626   0.788   8.287 -0.0197  0.0606 -0.3277
   71CHL1   H25 7726   4.594   0.698   8.230  1.2692  0.4179 -1.6633
   71CHL1   C26 7727   4.734   0.734   8.384  0.4832  0.6279  0.6717
   71CHL1  H26A 7728   4.812   0.669   8.339  0.6939  1.2729  0.0844
   71CHL1  H26B 7729   4.772   0.822   8.440  0.3546  0.0522  1.6838
   71CHL1  H26C 7730   4.674   0.677   8.459 -2.7371  1.1624 -1.2928
   71CHL1   C27 7731   4.516   0.867   8.362 -0.0317  0.2024 -0.0904
   71CHL1  H27A 7732   4.437   0.918   8.305 -1.0980  0.1155  1.2494
   71CHL1  H27B 7733   4.463   0.794   8.427  0.0907  0.6097  0.4750
   71CHL1  H27C 7734   4.557   0.934   8.441 -2.4648  0.1593  1.2997
   72CHL1    C3 7735   1.823   1.271   6.801  0.4470 -0.0968 -0.0746
   72CHL1    H3 7736   1.882   1.363   6.820  0.1010  0.0619  0.2584
   72CHL1    O3 7737   1.790   1.273   6.669  0.0472  0.7295  0.2347
   72CHL1   H3' 7738   1.792   1.178   6.656  2.6973  0.0724  3.7760
   72CHL1    C4 7739   1.916   1.151   6.825 -0.4673  0.6258  0.0158
   72CHL1   H4A 7740   1.859   1.058   6.805 -0.3976  0.8148 -1.1876
   72CHL1   H4B 7741   2.002   1.157   6.754  0.7890  1.1877  1.5385
   72CHL1    C5 7742   1.966   1.148   6.972  1.0097 -0.7155  0.3392
   72CHL1    C6 7743   2.094   1.153   7.006 -0.5470  0.6261 -0.3288
   72CHL1    H6 7744   2.174   1.147   6.931  0.5139  1.2562  0.7219
   72CHL1    C7 7745   2.135   1.162   7.151  0.2373 -0.0608 -0.4245
   72CHL1   H7A 7746   2.238   1.121   7.158  0.5385  0.1969 -2.5676
   72CHL1   H7B 7747   2.160   1.269   7.166  0.4740  0.0643 -1.5610
   72CHL1    C8 7748   2.030   1.118   7.253  0.0723  0.2357 -0.2476
   72CHL1    H8 7749   2.014   1.008   7.257  0.5970  0.1888  1.9330
   72CHL1   C14 7750   2.063   1.158   7.395  0.5524 -0.0202  0.6933
   72CHL1   H14 7751   2.071   1.269   7.390 -0.7853  0.0277 -1.2724
   72CHL1   C15 7752   2.204   1.122   7.449 -0.8992  0.6141 -0.4130
   72CHL1  H15A 7753   2.226   1.016   7.425 -0.3805  0.2689  1.4607
   72CHL1  H15B 7754   2.284   1.184   7.403  0.7583 -0.8725  0.3257
   72CHL1   C16 7755   2.185   1.134   7.598  0.3103  1.1819  0.1218
   72CHL1  H16A 7756   2.213   1.033   7.635 -2.1263  0.1858 -0.5708
   72CHL1  H16B 7757   2.254   1.212   7.636  2.6318 -0.2459 -0.9656
   72CHL1   C17 7758   2.038   1.182   7.630 -0.1591 -0.1694  0.5308
   72CHL1   H17 7759   2.036   1.291   7.612  0.1396 -0.6034 -2.7727
   72CHL1   C13 7760   1.962   1.125   7.502  0.3371  0.0826 -0.6495
   72CHL1   C18 7761   1.946   0.971   7.525  0.5441 -0.8863  0.2835
   72CHL1  H18A 7762   2.036   0.915   7.560 -0.1822 -2.2354  0.0505
   72CHL1  H18B 7763   1.861   0.944   7.590 -0.8717 -2.5629 -2.0877
   72CHL1  H18C 7764   1.923   0.927   7.425  0.4726 -2.2203  0.8674
   72CHL1   C12 7765   1.827   1.191   7.460 -0.3704 -0.0854 -0.1951
   72CHL1  H12A 7766   1.745   1.155   7.526 -1.5615  0.8416 -1.1190
   72CHL1  H12B 7767   1.844   1.301   7.460  1.5982 -0.3315  0.8808
   72CHL1   C11 7768   1.786   1.150   7.320  0.3662  0.5171  0.3116
   72CHL1  H11A 7769   1.741   1.048   7.328  0.7095  0.5284  3.8133
   72CHL1  H11B 7770   1.697   1.216   7.307  0.5586  0.7062 -0.0394
   72CHL1    C9 7771   1.897   1.185   7.219  0.4225  0.3202  0.2056
   72CHL1    H9 7772   1.918   1.293   7.232  0.2453  0.3337  0.3851
   72CHL1   C10 7773   1.849   1.151   7.075  0.0444 -0.0467 -0.3433
   72CHL1   C19 7774   1.795   0.997   7.078 -0.0874 -0.2009 -0.2399
   72CHL1  H19A 7775   1.847   0.918   7.136 -2.3599 -2.0415 -0.5598
   72CHL1  H19B 7776   1.690   1.005   7.112  0.4052 -0.3636  1.3850
   72CHL1  H19C 7777   1.788   0.957   6.974  0.0563 -0.5710 -0.1080
   72CHL1    C1 7778   1.737   1.247   7.041  0.2732 -0.3361 -0.2297
   72CHL1   H1A 7779   1.644   1.230   7.099 -0.4686 -4.3491 -2.2211
   72CHL1   H1B 7780   1.786   1.345   7.063  0.1162  0.5865 -3.4792
   72CHL1    C2 7781   1.706   1.259   6.897 -0.3595  0.6301  1.3066
   72CHL1   H2A 7782   1.634   1.343   6.883 -0.7537  0.7171  3.4349
   72CHL1   H2B 7783   1.649   1.168   6.869  1.8623 -0.8294  1.3499
   72CHL1   C20 7784   1.986   1.143   7.778 -0.3480 -0.1159  0.3760
   72CHL1   H20 7785   2.011   1.036   7.796  1.0635  0.2646  0.8010
   72CHL1   C21 7786   1.833   1.154   7.777 -1.1521  0.6128 -0.0922
   72CHL1  H21A 7787   1.784   1.069   7.725  1.0287 -0.5769 -0.3254
   72CHL1  H21B 7788   1.807   1.250   7.728  0.7004  0.6627 -1.0668
   72CHL1  H21C 7789   1.790   1.145   7.879  0.0059 -1.2364  0.2865
   72CHL1   C22 7790   2.053   1.233   7.884  0.5891 -0.0373  0.5046
   72CHL1  H22A 7791   2.163   1.243   7.876  0.4956  1.3308  0.7209
   72CHL1  H22B 7792   2.027   1.340   7.874  2.7664  0.3428 -2.1446
   72CHL1   C23 7793   2.026   1.188   8.026 -0.0292 -0.2928  0.3673
   72CHL1  H23A 7794   1.917   1.192   8.050  0.0217 -0.3113  0.5978
   72CHL1  H23B 7795   2.050   1.082   8.051  0.9482  0.0240  0.8254
   72CHL1   C24 7796   2.103   1.276   8.128 -0.2854  0.1735  0.5452
   72CHL1  H24A 7797   2.209   1.296   8.102 -1.0454  1.4793 -1.7915
   72CHL1  H24B 7798   2.052   1.374   8.121 -0.2216  0.2797  1.4464
   72CHL1   C25 7799   2.108   1.234   8.278 -0.1988 -0.4494  0.2392
   72CHL1   H25 7800   2.140   1.127   8.270  0.7260 -0.1101 -1.0135
   72CHL1   C26 7801   2.207   1.319   8.366  0.5075  0.0465 -0.1060
   72CHL1  H26A 7802   2.161   1.417   8.393 -2.5814 -1.5007  0.7527
   72CHL1  H26B 7803   2.215   1.269   8.464  0.4893  0.6199  0.1949
   72CHL1  H26C 7804   2.309   1.341   8.329  1.5677  0.0036  2.5829
   72CHL1   C27 7805   1.965   1.231   8.329 -0.0633 -0.5367  0.1060
   72CHL1  H27A 7806   1.914   1.328   8.306  0.0656 -0.3323  0.6682
   72CHL1  H27B 7807   1.902   1.147   8.293 -0.9649 -1.0732  2.7184
   72CHL1  H27C 7808   1.967   1.229   8.440 -1.9532  0.8726  0.2200
   73CHL1    C3 7809   2.765   1.729   6.998 -0.6714 -0.9230 -0.3220
   73CHL1    H3 7810   2.728   1.643   7.058  1.7905 -0.8744  1.3987
   73CHL1    O3 7811   2.781   1.700   6.863 -0.0856  0.1227 -0.1540
   73CHL1   H3' 7812   2.813   1.781   6.823 -2.5190  1.0995 -0.2818
   73CHL1    C4 7813   2.658   1.840   7.022 -0.0095  0.5157  0.0210
   73CHL1   H4A 7814   2.694   1.933   6.973  4.1910  0.0836  1.8250
   73CHL1   H4B 7815   2.562   1.804   6.980  0.8806  0.1792 -1.8058
   73CHL1    C5 7816   2.657   1.872   7.175 -0.1198 -0.2127 -0.6279
   73CHL1    C6 7817   2.539   1.873   7.237 -0.2101 -1.0085 -0.2185
   73CHL1    H6 7818   2.449   1.845   7.181 -0.3215  1.3726 -1.3463
   73CHL1    C7 7819   2.515   1.893   7.383  0.6602 -0.0211  0.6109
   73CHL1   H7A 7820   2.429   1.962   7.394  0.2232 -0.6771  1.3861
   73CHL1   H7B 7821   2.487   1.793   7.423 -0.0277 -0.6679 -1.3232
   73CHL1    C8 7822   2.647   1.948   7.451  0.1480  0.3426  0.4802
   73CHL1    H8 7823   2.651   2.057   7.427  1.0249  0.4897  1.2462
   73CHL1   C14 7824   2.629   1.935   7.605  0.2962  0.1215 -0.7579
   73CHL1   H14 7825   2.615   1.828   7.631  2.4829 -0.2139 -0.8309
   73CHL1   C15 7826   2.505   1.996   7.665  0.1936  0.3751  0.2600
   73CHL1  H15A 7827   2.498   2.106   7.648 -2.7173  0.2489  0.1139
   73CHL1  H15B 7828   2.411   1.939   7.646 -0.1377  0.7990  0.6155
   73CHL1   C16 7829   2.536   1.976   7.820 -0.2034  0.3002  1.1526
   73CHL1  H16A 7830   2.502   2.057   7.887  2.0839  1.2262  1.2971
   73CHL1  H16B 7831   2.496   1.884   7.868 -0.7260  1.3326  2.7879
   73CHL1   C17 7832   2.696   1.953   7.826 -1.2704 -0.5182  0.2933
   73CHL1   H17 7833   2.715   1.845   7.841 -2.1468 -0.5755  1.0128
   73CHL1   C13 7834   2.744   1.991   7.689  0.1478 -0.2044  0.6681
   73CHL1   C18 7835   2.754   2.141   7.661 -0.2784  0.0444  0.5033
   73CHL1  H18A 7836   2.758   2.172   7.554 -0.9964  2.2691  1.0640
   73CHL1  H18B 7837   2.673   2.208   7.697  1.1225  1.9442  0.2820
   73CHL1  H18C 7838   2.843   2.184   7.712 -0.8699  0.5512  1.1235
   73CHL1   C12 7839   2.865   1.911   7.639 -1.0433 -0.2494  0.3990
   73CHL1  H12A 7840   2.960   1.926   7.694 -0.9078 -1.2731  0.4642
   73CHL1  H12B 7841   2.843   1.807   7.672  0.7298 -0.0169  2.5139
   73CHL1   C11 7842   2.896   1.911   7.485 -0.5686 -1.1410  0.5467
   73CHL1  H11A 7843   2.929   2.017   7.476  0.3368 -1.4521 -0.0167
   73CHL1  H11B 7844   2.982   1.846   7.458  0.1111  0.5414 -1.6254
   73CHL1    C9 7845   2.769   1.878   7.404 -0.2105  0.2382  0.2904
   73CHL1    H9 7846   2.746   1.772   7.427  0.5125 -0.0127 -0.1229
   73CHL1   C10 7847   2.784   1.884   7.248 -0.2749  0.0517 -0.6363
   73CHL1   C19 7848   2.840   2.035   7.224  0.3762 -0.7010  0.5072
   73CHL1  H19A 7849   2.856   2.040   7.114 -0.1165  0.2097  0.4631
   73CHL1  H19B 7850   2.762   2.103   7.265  0.5152 -0.8306  0.9835
   73CHL1  H19C 7851   2.939   2.054   7.269  0.4696  0.9489 -0.2983
   73CHL1    C1 7852   2.890   1.776   7.215  0.2481 -0.4882  0.2463
   73CHL1   H1A 7853   2.992   1.804   7.250  1.1679 -1.6053 -1.4449
   73CHL1   H1B 7854   2.859   1.677   7.256 -0.8936 -1.1646 -2.1088
   73CHL1    C2 7855   2.903   1.760   7.065  0.6667 -0.3789  0.1106
   73CHL1   H2A 7856   2.966   1.673   7.039  0.3958 -0.5816  0.1219
   73CHL1   H2B 7857   2.945   1.856   7.028 -1.0681  0.0319 -0.9054
   73CHL1   C20 7858   2.764   2.022   7.948  0.6355  0.5754 -0.2929
   73CHL1   H20 7859   2.769   2.131   7.924 -0.5334  0.6458 -0.2967
   73CHL1   C21 7860   2.903   1.962   7.971 -0.1704  0.0744  0.4187
   73CHL1  H21A 7861   2.894   1.856   8.005 -2.5048 -0.0483 -0.3524
   73CHL1  H21B 7862   2.946   2.026   8.050  1.8591 -0.9957  0.2514
   73CHL1  H21C 7863   2.972   1.970   7.884 -1.8405  1.2708 -0.8756
   73CHL1   C22 7864   2.685   2.006   8.077 -0.0858 -0.0786 -0.6231
   73CHL1  H22A 7865   2.582   2.040   8.053  0.4793  0.0236 -3.1010
   73CHL1  H22B 7866   2.676   1.908   8.129 -1.1257  1.4496  2.3771
   73CHL1   C23 7867   2.738   2.089   8.205  0.2172 -0.0708  0.3827
   73CHL1  H23A 7868   2.846   2.081   8.229  0.2518 -2.2847 -0.3041
   73CHL1  H23B 7869   2.730   2.198   8.183  0.9330 -0.2915 -1.0650
   73CHL1   C24 7870   2.640   2.079   8.329 -0.1709  0.0666  0.4171
   73CHL1  H24A 7871   2.541   2.099   8.282 -0.2710  0.0736  0.6321
   73CHL1  H24B 7872   2.641   1.980   8.379  2.3892 -0.4354 -0.4668
   73CHL1   C25 7873   2.670   2.183   8.439  0.2789 -0.3850 -0.0200
   73CHL1   H25 7874   2.651   2.280   8.389  1.7042  0.0108  0.1657
   73CHL1   C26 7875   2.576   2.154   8.549  0.6290 -0.1350  0.1255
   73CHL1  H26A 7876   2.583   2.046   8.573 -2.5930 -0.4394  0.1483
   73CHL1  H26B 7877   2.596   2.221   8.635  0.0158 -1.0701  1.0099
   73CHL1  H26C 7878   2.471   2.170   8.515  0.2397 -0.8122  0.9857
   73CHL1   C27 7879   2.808   2.189   8.502 -0.2063 -0.0779  0.1838
   73CHL1  H27A 7880   2.846   2.089   8.533 -0.2867 -0.0681  0.3151
   73CHL1  H27B 7881   2.880   2.221   8.424  0.6482 -0.3390  0.8469
   73CHL1  H27C 7882   2.830   2.268   8.578 -1.3530  0.2782  0.1634
   74CHL1    C3 7883   2.920   1.223   7.144  0.6258  0.0791 -0.4907
   74CHL1    H3 7884   2.871   1.148   7.209 -0.6499 -1.2846 -2.8933
   74CHL1    O3 7885   2.896   1.201   7.007 -0.1527 -0.5817  0.6637
   74CHL1   H3' 7886   2.893   1.287   6.964  0.3047 -1.0271 -0.2967
   74CHL1    C4 7887   2.869   1.359   7.190  0.4814 -0.2070 -0.7058
   74CHL1   H4A 7888   2.900   1.444   7.125  0.0837  0.1885 -0.3821
   74CHL1   H4B 7889   2.760   1.343   7.180  0.0392  0.5093  2.1255
   74CHL1    C5 7890   2.900   1.400   7.332 -0.0358  0.2844 -0.4224
   74CHL1    C6 7891   2.804   1.437   7.422 -0.6927 -0.4919 -0.1509
   74CHL1    H6 7892   2.700   1.434   7.388 -0.4234 -0.0464 -1.0221
   74CHL1    C7 7893   2.825   1.475   7.563 -0.3652  0.0538  0.0077
   74CHL1   H7A 7894   2.779   1.571   7.595  0.5130  0.1288  1.1174
   74CHL1   H7B 7895   2.780   1.394   7.624 -0.1534  1.9239  2.8947
   74CHL1    C8 7896   2.969   1.492   7.615 -0.5821  0.6498  0.9714
   74CHL1    H8 7897   3.004   1.593   7.584 -0.4982  0.2233 -0.4000
   74CHL1   C14 7898   2.981   1.468   7.762  0.3808  0.1793 -0.6267
   74CHL1   H14 7899   2.949   1.363   7.774  0.9763  0.0146 -0.4316
   74CHL1   C15 7900   2.895   1.547   7.864  0.8703 -1.6224  0.0827
   74CHL1  H15A 7901   2.900   1.655   7.841  1.7517 -1.4606  0.9709
   74CHL1  H15B 7902   2.791   1.512   7.849  0.6795 -0.9141 -0.2874
   74CHL1   C16 7903   2.967   1.521   8.002 -0.2847 -0.3231  0.6145
   74CHL1  H16A 7904   2.998   1.613   8.055  2.2434  0.2023 -1.5284
   74CHL1  H16B 7905   2.902   1.452   8.060  0.1799 -2.1453 -0.9385
   74CHL1   C17 7906   3.098   1.439   7.972 -0.4997  0.8827  0.1147
   74CHL1   H17 7907   3.066   1.332   7.974 -2.1899  1.3748  1.4381
   74CHL1   C13 7908   3.124   1.472   7.824 -0.0052 -0.4954 -0.1545
   74CHL1   C18 7909   3.176   1.619   7.824  0.2254 -0.1071  0.4391
   74CHL1  H18A 7910   3.115   1.697   7.875  1.2527  1.4111 -0.5462
   74CHL1  H18B 7911   3.284   1.629   7.850  0.3409 -0.0425 -0.0606
   74CHL1  H18C 7912   3.154   1.659   7.723  1.3160  2.2686  1.0555
   74CHL1   C12 7913   3.220   1.377   7.747 -0.0232 -0.1235  0.4406
   74CHL1  H12A 7914   3.324   1.408   7.770  0.6801 -2.5687  0.8153
   74CHL1  H12B 7915   3.208   1.276   7.792 -0.3067  0.1913  1.0854
   74CHL1   C11 7916   3.204   1.385   7.594 -0.1795  0.0809 -0.6095
   74CHL1  H11A 7917   3.256   1.477   7.560 -2.6508  2.6229  1.9320
   74CHL1  H11B 7918   3.259   1.300   7.549 -0.8873 -0.7145 -0.0162
   74CHL1    C9 7919   3.058   1.383   7.543  0.2193 -0.0783  0.3303
   74CHL1    H9 7920   3.038   1.279   7.577  0.5370 -0.4027 -0.4529
   74CHL1   C10 7921   3.046   1.381   7.382  1.0201  0.1219  0.0792
   74CHL1   C19 7922   3.133   1.499   7.325  0.2642  0.0447  0.0315
   74CHL1  H19A 7923   3.239   1.473   7.348 -0.4796 -1.8016  1.6990
   74CHL1  H19B 7924   3.117   1.516   7.216  1.4242 -1.2780 -0.3787
   74CHL1  H19C 7925   3.111   1.588   7.387  3.1876  0.1958  1.0092
   74CHL1    C1 7926   3.098   1.246   7.322 -0.9136 -0.1605 -0.2499
   74CHL1   H1A 7927   3.209   1.250   7.334 -0.7590  1.1261 -1.7450
   74CHL1   H1B 7928   3.059   1.166   7.389 -0.6275  0.3439  0.5280
   74CHL1    C2 7929   3.066   1.226   7.174 -0.0260  0.4867  0.1276
   74CHL1   H2A 7930   3.114   1.129   7.150  0.3858  0.2762  1.6701
   74CHL1   H2B 7931   3.111   1.309   7.116  3.7803 -1.1323  0.5090
   74CHL1   C20 7932   3.207   1.444   8.073 -0.0509  0.6638 -0.3955
   74CHL1   H20 7933   3.244   1.548   8.080  0.3136  0.4519  1.1437
   74CHL1   C21 7934   3.332   1.366   8.036 -0.1764 -0.2499  0.2910
   74CHL1  H21A 7935   3.396   1.363   8.126  0.0122  0.0771  0.1693
   74CHL1  H21B 7936   3.393   1.427   7.966  0.8448  0.6080  1.8739
   74CHL1  H21C 7937   3.330   1.263   7.993  0.4084 -0.9639  1.9049
   74CHL1   C22 7938   3.160   1.415   8.218 -0.3858  0.7107  0.5187
   74CHL1  H22A 7939   3.241   1.461   8.278 -0.2276 -0.0708  0.9145
   74CHL1  H22B 7940   3.061   1.460   8.242 -1.6477 -2.0996  0.9894
   74CHL1   C23 7941   3.152   1.266   8.262  0.1033  0.1396  0.2004
   74CHL1  H23A 7942   3.073   1.219   8.199 -0.4604  0.2251  0.8412
   74CHL1  H23B 7943   3.249   1.219   8.237  1.8779  3.7575 -0.4572
   74CHL1   C24 7944   3.089   1.258   8.401 -0.3574  0.4051  0.1211
   74CHL1  H24A 7945   3.171   1.293   8.467  1.9925 -2.4841 -1.0261
   74CHL1  H24B 7946   2.998   1.321   8.414 -1.6764 -1.3101 -0.4057
   74CHL1   C25 7947   3.083   1.116   8.470 -0.9548 -0.4471 -0.8125
   74CHL1   H25 7948   3.171   1.065   8.424  0.1763 -0.2010  1.0021
   74CHL1   C26 7949   3.101   1.127   8.623 -0.0714  0.1235 -0.0407
   74CHL1  H26A 7950   3.114   1.029   8.674  1.0059  0.8283  1.0968
   74CHL1  H26B 7951   3.187   1.189   8.656  0.0367  0.6616 -1.3022
   74CHL1  H26C 7952   3.007   1.168   8.666  0.6239  1.6235  0.1136
   74CHL1   C27 7953   2.961   1.047   8.420  0.2988  0.8390  0.0937
   74CHL1  H27A 7954   2.945   0.945   8.462  1.3513  1.3578  1.8693
   74CHL1  H27B 7955   2.865   1.102   8.435 -0.0841  0.1149  0.3348
   74CHL1  H27C 7956   2.974   1.036   8.310  1.0219 -1.8002  0.3829
   75CHL1    C3 7957   6.292   3.850   6.648  0.6300  0.7480  0.5351
   75CHL1    H3 7958   6.322   3.944   6.700 -1.8394  1.5701  0.5694
   75CHL1    O3 7959   6.297   3.863   6.510  0.2480  0.4436  0.6362
   75CHL1   H3' 7960   6.263   3.781   6.473  0.3623 -0.8572  3.1920
   75CHL1    C4 7961   6.383   3.732   6.684  0.7424 -0.4417 -0.6627
   75CHL1   H4A 7962   6.356   3.642   6.626  0.8017 -0.4692 -0.6465
   75CHL1   H4B 7963   6.487   3.759   6.654  0.3022  4.3672  1.2240
   75CHL1    C5 7964   6.373   3.696   6.833  0.2438  0.6716  0.2055
   75CHL1    C6 7965   6.474   3.700   6.916 -0.6088 -0.4499  0.3187
   75CHL1    H6 7966   6.572   3.723   6.872 -1.0362 -1.5196 -1.2556
   75CHL1    C7 7967   6.468   3.670   7.060 -0.5104  0.4983  0.2844
   75CHL1   H7A 7968   6.553   3.606   7.093 -2.8296 -3.0002 -0.0495
   75CHL1   H7B 7969   6.459   3.760   7.125 -2.7141  2.0139 -1.9310
   75CHL1    C8 7970   6.341   3.577   7.088  0.3792  0.0010 -0.3101
   75CHL1    H8 7971   6.365   3.474   7.055  0.7856  0.0194 -0.0885
   75CHL1   C14 7972   6.312   3.558   7.241  0.9107 -0.0284  0.2170
   75CHL1   H14 7973   6.276   3.656   7.279 -1.5721 -0.8218  0.1172
   75CHL1   C15 7974   6.431   3.515   7.330 -0.5618 -0.1870  0.0110
   75CHL1  H15A 7975   6.469   3.416   7.296  1.0960 -0.2563  1.9174
   75CHL1  H15B 7976   6.505   3.596   7.344 -0.2927 -0.5545  0.7294
   75CHL1   C16 7977   6.368   3.479   7.468 -0.0006  0.2154 -0.0622
   75CHL1  H16A 7978   6.406   3.379   7.500  2.5975  0.7215 -1.2385
   75CHL1  H16B 7979   6.397   3.554   7.545 -0.6466 -0.2389  0.6327
   75CHL1   C17 7980   6.213   3.481   7.443  0.0893  0.2867 -0.4927
   75CHL1   H17 7981   6.176   3.581   7.473  0.7357  0.3718  0.0466
   75CHL1   C13 7982   6.203   3.464   7.288  0.0728  0.1652 -0.4695
   75CHL1   C18 7983   6.237   3.320   7.253 -0.1578  0.0022 -0.9361
   75CHL1  H18A 7984   6.320   3.286   7.318 -1.0834  0.4204  0.5047
   75CHL1  H18B 7985   6.141   3.268   7.274 -0.5590  1.2547  0.5268
   75CHL1  H18C 7986   6.263   3.304   7.146 -1.3722  2.6814 -1.7238
   75CHL1   C12 7987   6.069   3.525   7.215 -0.3311 -0.1449 -0.2349
   75CHL1  H12A 7988   5.982   3.457   7.232 -0.4199  0.0159 -0.0371
   75CHL1  H12B 7989   6.040   3.614   7.274 -2.7908 -1.0461  0.0621
   75CHL1   C11 7990   6.089   3.539   7.063 -0.6801  0.3761 -0.0808
   75CHL1  H11A 7991   6.104   3.443   7.010 -1.5356  0.0033  0.3361
   75CHL1  H11B 7992   5.994   3.586   7.029 -0.7142 -0.4562 -1.1590
   75CHL1    C9 7993   6.217   3.629   7.021  0.8381  0.2657 -0.6552
   75CHL1    H9 7994   6.198   3.730   7.062  1.9212  0.2352 -0.0463
   75CHL1   C10 7995   6.229   3.659   6.869  0.0723 -0.4567  0.3307
   75CHL1   C19 7996   6.187   3.533   6.783 -0.6450  0.7240 -0.1132
   75CHL1  H19A 7997   6.196   3.556   6.675  1.1830  1.5254  0.1814
   75CHL1  H19B 7998   6.257   3.450   6.806 -0.2488  1.4132  1.2836
   75CHL1  H19C 7999   6.088   3.492   6.813 -1.2523  3.1109  1.4800
   75CHL1    C1 8000   6.134   3.775   6.836 -0.3411 -0.5557  0.8501
   75CHL1   H1A 8001   6.029   3.746   6.856 -0.2280 -1.9286 -0.4099
   75CHL1   H1B 8002   6.163   3.866   6.893 -1.4497 -0.5435  1.4167
   75CHL1    C2 8003   6.151   3.822   6.688 -0.1429  0.6104 -0.0017
   75CHL1   H2A 8004   6.087   3.912   6.679  0.1483  0.8450  0.2925
   75CHL1   H2B 8005   6.113   3.743   6.619 -0.3026 -1.6455  2.4838
   75CHL1   C20 8006   6.131   3.372   7.528 -0.5392 -1.0454  0.3528
   75CHL1   H20 8007   6.160   3.267   7.507 -1.6199 -1.2698 -0.0778
   75CHL1   C21 8008   5.982   3.393   7.497 -0.4332  0.6595  0.3663
   75CHL1  H21A 8009   5.961   3.347   7.399 -1.5155 -1.0922  1.3588
   75CHL1  H21B 8010   5.948   3.499   7.501 -0.9565  0.5274 -0.5340
   75CHL1  H21C 8011   5.930   3.330   7.573 -1.9951  1.0720 -0.3278
   75CHL1   C22 8012   6.161   3.368   7.676 -0.7589  0.4460 -0.7327
   75CHL1  H22A 8013   6.098   3.286   7.717  0.2792 -0.0941 -0.1926
   75CHL1  H22B 8014   6.266   3.332   7.678  0.3800  3.2712 -2.6428
   75CHL1   C23 8015   6.139   3.493   7.760  0.2481  0.2007  0.3872
   75CHL1  H23A 8016   6.196   3.576   7.713  0.1562  0.8856  1.4409
   75CHL1  H23B 8017   6.030   3.510   7.769  0.1137 -1.2505  1.8925
   75CHL1   C24 8018   6.197   3.484   7.907  0.3766  0.2817  0.8806
   75CHL1  H24A 8019   6.161   3.394   7.961 -1.4392  0.6583  0.3499
   75CHL1  H24B 8020   6.307   3.472   7.893  0.4471  0.2732  1.4088
   75CHL1   C25 8021   6.157   3.604   7.992 -1.0732  0.3312 -0.4418
   75CHL1   H25 8022   6.181   3.698   7.939  1.2690  0.6175  1.0167
   75CHL1   C26 8023   6.009   3.603   8.036  0.1305 -0.5493  0.0870
   75CHL1  H26A 8024   5.991   3.507   8.089  0.6605 -0.6071  0.1716
   75CHL1  H26B 8025   5.979   3.696   8.088  1.2608 -0.6715  1.0070
   75CHL1  H26C 8026   5.952   3.596   7.941 -0.1195 -2.1913  0.3274
   75CHL1   C27 8027   6.249   3.602   8.121 -0.0685 -0.2580  0.8931
   75CHL1  H27A 8028   6.354   3.631   8.097 -0.3012  0.4012  0.6371
   75CHL1  H27B 8029   6.216   3.692   8.177  2.3614  0.1800  1.7422
   75CHL1  H27C 8030   6.240   3.505   8.173 -1.0555 -0.9939 -0.5850
   76CHL1    C3 8031   1.435   4.414   7.014  0.2569  0.7433 -0.4241
   76CHL1    H3 8032   1.542   4.443   7.010  0.4417  0.0875 -0.2964
   76CHL1    O3 8033   1.382   4.427   6.885 -0.0414  0.4065  0.0718
   76CHL1   H3' 8034   1.377   4.523   6.877 -0.8699  0.3370 -0.3814
   76CHL1    C4 8035   1.428   4.265   7.056  0.1961 -0.8425  1.1761
   76CHL1   H4A 8036   1.324   4.228   7.039  1.0036 -2.0668 -1.7617
   76CHL1   H4B 8037   1.492   4.205   6.989  3.9496  2.5608  1.3372
   76CHL1    C5 8038   1.465   4.248   7.200 -0.2307 -0.2673 -1.0798
   76CHL1    C6 8039   1.564   4.165   7.245  0.2973 -0.2518 -0.7487
   76CHL1    H6 8040   1.629   4.119   7.170  0.2841 -2.3885  0.4756
   76CHL1    C7 8041   1.601   4.120   7.379  0.1157  0.4403 -0.2103
   76CHL1   H7A 8042   1.603   4.010   7.393  1.9838  0.1285 -2.3907
   76CHL1   H7B 8043   1.696   4.163   7.416 -1.1274  2.2282  1.0679
   76CHL1    C8 8044   1.497   4.181   7.484 -0.2889 -0.1197  0.7438
   76CHL1    H8 8045   1.409   4.113   7.480  0.1887 -0.7114 -1.4058
   76CHL1   C14 8046   1.559   4.182   7.622 -0.1330  0.1511 -0.1519
   76CHL1   H14 8047   1.648   4.249   7.620  1.3798 -1.7144  1.0209
   76CHL1   C15 8048   1.621   4.050   7.669  0.5624 -0.1087  0.1886
   76CHL1  H15A 8049   1.543   3.971   7.660  0.8489 -0.3957  0.1998
   76CHL1  H15B 8050   1.707   4.005   7.614 -0.7788  1.3969 -3.4723
   76CHL1   C16 8051   1.624   4.072   7.822  0.3774  0.0366  0.1188
   76CHL1  H16A 8052   1.576   3.987   7.875 -2.2906 -0.2244 -2.4703
   76CHL1  H16B 8053   1.727   4.076   7.864 -0.2272  2.3177  1.5645
   76CHL1   C17 8054   1.547   4.203   7.857  0.1147  0.0633  0.5383
   76CHL1   H17 8055   1.628   4.280   7.862  0.6320 -0.4613  0.3552
   76CHL1   C13 8056   1.464   4.235   7.731 -0.1698  0.6129  0.1859
   76CHL1   C18 8057   1.344   4.145   7.738 -1.0831 -0.2611 -0.1867
   76CHL1  H18A 8058   1.295   4.128   7.640  0.9608 -0.4606 -1.2324
   76CHL1  H18B 8059   1.352   4.043   7.781  1.7345 -0.6086 -1.2784
   76CHL1  H18C 8060   1.265   4.192   7.800  3.0831  2.2090  3.9866
   76CHL1   C12 8061   1.429   4.372   7.697  0.4255  0.7090  0.1626
   76CHL1  H12A 8062   1.362   4.423   7.769  3.2010  3.7898  0.8251
   76CHL1  H12B 8063   1.525   4.429   7.697  1.4863 -0.9669  1.7725
   76CHL1   C11 8064   1.361   4.380   7.555  0.1455 -0.4454  0.8543
   76CHL1  H11A 8065   1.265   4.323   7.558  0.7706 -1.5001  1.0459
   76CHL1  H11B 8066   1.347   4.485   7.522  0.9244 -1.2616 -2.4646
   76CHL1    C9 8067   1.452   4.318   7.442  0.2572 -0.2115  0.4429
   76CHL1    H9 8068   1.538   4.389   7.448  2.8437 -3.2575  3.1881
   76CHL1   C10 8069   1.386   4.329   7.301  0.6442 -0.0027 -0.1385
   76CHL1   C19 8070   1.234   4.293   7.307 -0.4332  0.0686  0.0059
   76CHL1  H19A 8071   1.186   4.385   7.346 -2.0279  0.1286 -1.9878
   76CHL1  H19B 8072   1.189   4.281   7.206  1.6314 -0.1550 -0.9452
   76CHL1  H19C 8073   1.223   4.203   7.372 -1.1172  0.1597  0.0224
   76CHL1    C1 8074   1.410   4.474   7.254  0.2586 -0.2301  0.6283
   76CHL1   H1A 8075   1.362   4.545   7.325 -0.1955 -0.0916  0.1881
   76CHL1   H1B 8076   1.519   4.493   7.256  0.2412 -0.0545 -0.0705
   76CHL1    C2 8077   1.366   4.501   7.111  0.2736  0.0008  0.0192
   76CHL1   H2A 8078   1.397   4.605   7.088  3.6205 -0.5960  1.3198
   76CHL1   H2B 8079   1.255   4.494   7.100  0.0042 -0.0682  2.2439
   76CHL1   C20 8080   1.482   4.200   7.998 -0.1996  0.6551 -0.4097
   76CHL1   H20 8081   1.402   4.123   7.995 -1.3827  1.8699 -0.8592
   76CHL1   C21 8082   1.411   4.336   8.016 -0.2295 -0.1400  0.0598
   76CHL1  H21A 8083   1.385   4.348   8.123 -0.9940  1.4798 -0.2760
   76CHL1  H21B 8084   1.311   4.339   7.968 -0.2020 -1.9482 -0.2000
   76CHL1  H21C 8085   1.476   4.419   7.981 -1.4082  0.0902 -1.7102
   76CHL1   C22 8086   1.582   4.165   8.110 -0.0208  0.5911 -0.1690
   76CHL1  H22A 8087   1.618   4.061   8.092 -1.3110 -0.3463  2.1797
   76CHL1  H22B 8088   1.662   4.239   8.132 -2.3769  3.6241 -1.1200
   76CHL1   C23 8089   1.506   4.137   8.242 -0.4632 -0.0157  0.4596
   76CHL1  H23A 8090   1.445   4.223   8.278 -1.8595  1.1461 -4.0279
   76CHL1  H23B 8091   1.430   4.062   8.211  0.3575  0.2633 -2.4683
   76CHL1   C24 8092   1.596   4.076   8.356 -0.3846  0.9385  0.5184
   76CHL1  H24A 8093   1.638   3.981   8.315 -1.9551  0.4145  0.0548
   76CHL1  H24B 8094   1.691   4.131   8.372  1.1820 -1.0885 -1.0855
   76CHL1   C25 8095   1.523   4.050   8.493 -0.0163  0.2335 -0.0365
   76CHL1   H25 8096   1.440   3.978   8.481 -0.1268 -0.0992  2.2786
   76CHL1   C26 8097   1.615   3.982   8.603 -0.2728 -0.0815  0.7587
   76CHL1  H26A 8098   1.653   3.886   8.564  0.4711  0.2909  0.5406
   76CHL1  H26B 8099   1.703   4.050   8.612 -1.1219  0.8969  1.9909
   76CHL1  H26C 8100   1.564   3.954   8.698 -0.7792 -2.3920 -0.1394
   76CHL1   C27 8101   1.463   4.175   8.552  0.2323 -0.6093 -0.1557
   76CHL1  H27A 8102   1.401   4.153   8.641  0.1771  0.2427  0.0281
   76CHL1  H27B 8103   1.528   4.264   8.570 -0.8451  0.0275  0.6858
   76CHL1  H27C 8104   1.384   4.213   8.483  0.1172  0.0062  0.3046
   77CHL1    C3 8105   3.808   2.185   6.712 -0.0371 -0.3588 -0.6308
   77CHL1    H3 8106   3.742   2.103   6.750 -1.3521  0.9075 -0.0803
   77CHL1    O3 8107   3.815   2.174   6.575 -0.4888 -0.3133 -0.2969
   77CHL1   H3' 8108   3.734   2.199   6.530  0.7698  1.1529 -1.8936
   77CHL1    C4 8109   3.750   2.322   6.754  0.0784  0.1618 -0.4817
   77CHL1   H4A 8110   3.820   2.401   6.718  0.3337  0.5897  0.8791
   77CHL1   H4B 8111   3.657   2.332   6.695  0.4534  2.3482 -0.7996
   77CHL1    C5 8112   3.745   2.356   6.905  0.2527  0.1237 -0.8598
   77CHL1    C6 8113   3.627   2.386   6.969 -0.3806 -0.2937 -0.5034
   77CHL1    H6 8114   3.533   2.405   6.915 -0.4956  0.1590 -0.1448
   77CHL1    C7 8115   3.614   2.405   7.117  0.2120  0.2322  0.3463
   77CHL1   H7A 8116   3.561   2.501   7.135  2.9172  2.1637 -1.2397
   77CHL1   H7B 8117   3.563   2.311   7.147  0.7037 -0.6874 -1.5169
   77CHL1    C8 8118   3.751   2.403   7.191  0.1318 -0.2570 -0.3875
   77CHL1    H8 8119   3.787   2.507   7.179 -0.7032  0.0744 -0.0695
   77CHL1   C14 8120   3.732   2.378   7.337  0.2926 -0.4455 -0.9487
   77CHL1   H14 8121   3.683   2.278   7.345  1.0343 -0.8104 -0.8776
   77CHL1   C15 8122   3.631   2.476   7.406  0.1613 -0.3676 -0.5698
   77CHL1  H15A 8123   3.655   2.579   7.372 -0.1071  0.0615  0.5081
   77CHL1  H15B 8124   3.527   2.447   7.379 -0.9657 -0.1474  3.0908
   77CHL1   C16 8125   3.661   2.465   7.551 -0.1793 -0.1108  0.3578
   77CHL1  H16A 8126   3.692   2.567   7.585  1.3930 -0.0575 -1.0937
   77CHL1  H16B 8127   3.584   2.416   7.615 -0.9644 -1.4870 -1.5608
   77CHL1   C17 8128   3.785   2.368   7.565 -0.8124 -0.4610  0.3733
   77CHL1   H17 8129   3.749   2.263   7.576  0.7054 -1.0307  0.1688
   77CHL1   C13 8130   3.857   2.375   7.428 -0.2875 -0.6183 -0.2777
   77CHL1   C18 8131   3.935   2.507   7.413  0.3388  0.7779 -0.1967
   77CHL1  H18A 8132   3.875   2.586   7.464 -1.2695 -1.6907  1.9780
   77CHL1  H18B 8133   4.032   2.508   7.466  0.5103 -0.0253 -0.4903
   77CHL1  H18C 8134   3.960   2.534   7.308  0.2742  0.9249 -0.1751
   77CHL1   C12 8135   3.942   2.259   7.379 -0.0012  0.1767 -0.1125
   77CHL1  H12A 8136   4.043   2.250   7.424 -0.6389  0.3426  1.4312
   77CHL1  H12B 8137   3.879   2.171   7.405  0.7602 -0.1249  0.7827
   77CHL1   C11 8138   3.971   2.271   7.218  0.0018  0.2655 -0.4494
   77CHL1  H11A 8139   4.034   2.363   7.212  0.7013 -0.1270  0.5512
   77CHL1  H11B 8140   4.032   2.181   7.198  1.9383  1.5630 -0.6217
   77CHL1    C9 8141   3.842   2.296   7.136  0.2701 -0.0460  0.6895
   77CHL1    H9 8142   3.773   2.211   7.155 -0.9311  1.3796  3.1316
   77CHL1   C10 8143   3.869   2.320   6.987  0.0268  0.0604  0.6740
   77CHL1   C19 8144   3.960   2.442   6.963  0.1357 -0.0299 -0.4285
   77CHL1  H19A 8145   4.057   2.428   7.014  0.1180 -1.9074 -0.8314
   77CHL1  H19B 8146   3.995   2.449   6.858  1.9799 -1.3681  0.0482
   77CHL1  H19C 8147   3.905   2.529   7.004 -0.0996 -1.3526  2.2756
   77CHL1    C1 8148   3.937   2.187   6.932  0.7090 -0.1497 -0.1306
   77CHL1   H1A 8149   4.036   2.189   6.981  0.6840 -0.4559 -0.0665
   77CHL1   H1B 8150   3.872   2.108   6.974  1.5984 -0.0236  1.5416
   77CHL1    C2 8151   3.948   2.162   6.778  0.0340  0.1829  0.6827
   77CHL1   H2A 8152   4.005   2.070   6.751  0.7325  0.8170 -0.0292
   77CHL1   H2B 8153   4.012   2.238   6.729 -0.8250  0.3336 -0.2336
   77CHL1   C20 8154   3.864   2.388   7.692  0.5379  0.8997 -1.0476
   77CHL1   H20 8155   3.895   2.494   7.706 -1.0193  1.0781  1.4904
   77CHL1   C21 8156   3.986   2.297   7.691 -0.1206 -0.2062  0.3502
   77CHL1  H21A 8157   4.036   2.282   7.789  1.8394 -1.2449 -0.7614
   77CHL1  H21B 8158   4.061   2.341   7.621  0.1960  0.6039  1.1751
   77CHL1  H21C 8159   3.948   2.199   7.655 -0.8620  0.6362 -1.2776
   77CHL1   C22 8160   3.783   2.365   7.823  0.4299 -0.4955 -0.2488
   77CHL1  H22A 8161   3.690   2.425   7.818  1.7463  1.8281  1.3183
   77CHL1  H22B 8162   3.756   2.257   7.828  0.5256 -0.4679  1.0227
   77CHL1   C23 8163   3.843   2.426   7.948  0.3058  0.2262  0.1353
   77CHL1  H23A 8164   3.952   2.405   7.959  0.0424 -2.0801 -0.9676
   77CHL1  H23B 8165   3.838   2.537   7.946 -2.4659  0.2046  1.6120
   77CHL1   C24 8166   3.764   2.379   8.080  0.4434 -0.4700  0.8742
   77CHL1  H24A 8167   3.655   2.390   8.065  0.7913  0.2886 -1.5670
   77CHL1  H24B 8168   3.786   2.270   8.073 -0.3213 -0.5324 -1.3005
   77CHL1   C25 8169   3.814   2.453   8.204 -0.2989  0.1462  0.5010
   77CHL1   H25 8170   3.746   2.540   8.212 -1.0917 -0.2142 -1.6548
   77CHL1   C26 8171   3.802   2.353   8.320  0.2353 -0.0652  0.0164
   77CHL1  H26A 8172   3.867   2.395   8.399 -1.4203  0.0499  1.3814
   77CHL1  H26B 8173   3.696   2.356   8.353 -0.2507  2.6041 -1.4287
   77CHL1  H26C 8174   3.829   2.247   8.299  1.0658 -0.4493  2.6660
   77CHL1   C27 8175   3.956   2.515   8.207  0.3743  0.1452  0.1815
   77CHL1  H27A 8176   4.044   2.448   8.206  0.9034  0.6641  2.8050
   77CHL1  H27B 8177   3.977   2.597   8.135 -2.2176  1.3029  0.6012
   77CHL1  H27C 8178   3.962   2.561   8.309  2.0224  0.4555 -0.0306
   78CHL1    C3 8179   3.846   0.170   6.923 -1.0573 -0.3599  0.1418
   78CHL1    H3 8180   3.908   0.084   6.890  0.3857  0.1491  1.4015
   78CHL1    O3 8181   3.765   0.217   6.817  0.4833 -0.4445  0.0192
   78CHL1   H3' 8182   3.736   0.307   6.835  1.7338 -0.1138  0.4788
   78CHL1    C4 8183   3.746   0.131   7.040 -0.5244 -0.4074  0.5151
   78CHL1   H4A 8184   3.668   0.209   7.055 -0.2739 -0.5324  2.8773
   78CHL1   H4B 8185   3.681   0.051   6.999 -2.7144  1.7352 -0.4681
   78CHL1    C5 8186   3.807   0.093   7.174 -0.0254 -0.7043  0.8393
   78CHL1    C6 8187   3.790  -0.027   7.239 -0.5029  0.4759 -0.2518
   78CHL1    H6 8188   3.714  -0.100   7.206  0.4528 -1.2521  1.2270
   78CHL1    C7 8189   3.861  -0.072   7.356  0.0424 -0.7589 -0.0281
   78CHL1   H7A 8190   3.787  -0.103   7.433 -0.0797 -2.0314 -0.6314
   78CHL1   H7B 8191   3.930  -0.157   7.339  0.8174  0.1610 -1.7117
   78CHL1    C8 8192   3.943   0.050   7.422 -0.5734 -0.4894  0.0772
   78CHL1    H8 8193   3.872   0.119   7.473  0.1683  0.6877 -0.4426
   78CHL1   C14 8194   4.045  -0.004   7.522  0.2696 -0.7172 -0.4573
   78CHL1   H14 8195   4.113  -0.072   7.466 -0.2641 -1.5623 -0.1075
   78CHL1   C15 8196   3.985  -0.088   7.631  0.3936  0.6950 -0.3037
   78CHL1  H15A 8197   3.895  -0.043   7.678  0.6241 -0.3374  1.1734
   78CHL1  H15B 8198   3.936  -0.183   7.603 -0.0024  0.3971  1.3003
   78CHL1   C16 8199   4.102  -0.111   7.737  0.5588 -0.6898  0.9181
   78CHL1  H16A 8200   4.075  -0.124   7.844  0.5547 -0.0791  0.9934
   78CHL1  H16B 8201   4.140  -0.210   7.702  1.9566 -0.5085  1.8312
   78CHL1   C17 8202   4.218  -0.008   7.697  0.7003  0.9580 -0.5990
   78CHL1   H17 8203   4.287  -0.068   7.635 -2.5826 -5.0250  0.7466
   78CHL1   C13 8204   4.136   0.093   7.597  0.0928  0.1684 -0.1719
   78CHL1   C18 8205   4.048   0.188   7.682  0.2134  0.6449 -0.1800
   78CHL1  H18A 8206   3.980   0.240   7.612 -0.1022  0.4046 -0.0527
   78CHL1  H18B 8207   4.002   0.127   7.762 -2.0041  0.4833 -1.4947
   78CHL1  H18C 8208   4.109   0.268   7.729 -0.3033  0.2115  1.3001
   78CHL1   C12 8209   4.219   0.164   7.495 -0.3697  0.5180 -0.9198
   78CHL1  H12A 8210   4.279   0.251   7.530 -1.7490  1.3077 -0.4482
   78CHL1  H12B 8211   4.290   0.086   7.462  0.2521  0.3879  0.6260
   78CHL1   C11 8212   4.128   0.226   7.385 -0.6563  0.0561 -0.2677
   78CHL1  H11A 8213   4.081   0.323   7.410  0.3565  0.1472  1.4384
   78CHL1  H11B 8214   4.205   0.254   7.309 -1.4205 -1.2170 -1.5609
   78CHL1    C9 8215   4.023   0.133   7.323  0.5889  0.1525 -0.3098
   78CHL1    H9 8216   4.083   0.055   7.272  1.6184  1.6609 -1.4978
   78CHL1   C10 8217   3.926   0.192   7.218  0.2722  0.1491 -0.1146
   78CHL1   C19 8218   3.848   0.310   7.280  1.0275  0.2099  0.1131
   78CHL1  H19A 8219   3.932   0.377   7.310  0.2928  2.7081 -2.8930
   78CHL1  H19B 8220   3.786   0.370   7.210 -0.1837 -1.8242 -0.6473
   78CHL1  H19C 8221   3.781   0.286   7.365 -1.8146  0.2264 -1.9734
   78CHL1    C1 8222   4.020   0.230   7.096  0.1665 -0.2356  0.2061
   78CHL1   H1A 8223   4.088   0.315   7.116  0.3680  0.0749 -1.6553
   78CHL1   H1B 8224   4.076   0.139   7.067  2.0627  1.0635 -0.3828
   78CHL1    C2 8225   3.939   0.278   6.973  0.4143 -0.6031  0.1459
   78CHL1   H2A 8226   4.000   0.323   6.892  2.3201 -0.2239  1.7149
   78CHL1   H2B 8227   3.875   0.357   7.018  1.6506  0.2902  0.4011
   78CHL1   C20 8228   4.284   0.060   7.821  0.2996 -0.7863 -0.2006
   78CHL1   H20 8229   4.202   0.097   7.886  0.2759 -2.3524  0.7056
   78CHL1   C21 8230   4.372   0.181   7.778  0.3797 -0.2042  0.0622
   78CHL1  H21A 8231   4.447   0.170   7.696  1.0908  0.7094  0.5588
   78CHL1  H21B 8232   4.426   0.235   7.859  2.0860 -0.8800 -0.5767
   78CHL1  H21C 8233   4.305   0.258   7.734 -0.0172  0.9508  2.5396
   78CHL1   C22 8234   4.366  -0.030   7.916 -0.2346 -0.0635  0.5462
   78CHL1  H22A 8235   4.317  -0.128   7.933  2.2497 -1.2465  1.4513
   78CHL1  H22B 8236   4.460  -0.056   7.862 -1.0377 -0.3199 -0.7501
   78CHL1   C23 8237   4.401   0.024   8.050  0.3188 -0.1792 -0.7937
   78CHL1  H23A 8238   4.464   0.113   8.028 -0.8177  1.0858  0.7561
   78CHL1  H23B 8239   4.309   0.065   8.099  1.1670 -0.2112  0.8850
   78CHL1   C24 8240   4.475  -0.077   8.141 -0.7544 -0.6144 -0.2858
   78CHL1  H24A 8241   4.523  -0.158   8.083 -0.4782 -1.2790  0.8515
   78CHL1  H24B 8242   4.551  -0.017   8.195  0.1594 -0.6659 -1.4835
   78CHL1   C25 8243   4.381  -0.161   8.239  0.6723 -0.0829  0.2127
   78CHL1   H25 8244   4.296  -0.186   8.172 -0.5838 -2.7490  2.5863
   78CHL1   C26 8245   4.445  -0.293   8.297  0.3316  0.0907  0.2780
   78CHL1  H26A 8246   4.512  -0.271   8.383  0.0811 -0.7792  0.7185
   78CHL1  H26B 8247   4.361  -0.350   8.343 -0.9731  1.4049 -0.4014
   78CHL1  H26C 8248   4.485  -0.353   8.213 -0.7866  0.4668 -0.5540
   78CHL1   C27 8249   4.331  -0.079   8.356 -0.3456 -0.4045 -0.8580
   78CHL1  H27A 8250   4.287   0.013   8.313  1.3509  0.5452 -0.6686
   78CHL1  H27B 8251   4.263  -0.147   8.412 -1.4823 -0.0904 -1.8248
   78CHL1  H27C 8252   4.417  -0.044   8.417  0.8623  0.3315 -2.8952
   79CHL1    C3 8253   1.065   4.904   7.210 -0.1769 -0.0452 -0.5512
   79CHL1    H3 8254   1.099   5.006   7.241 -0.4816  0.5142 -2.0181
   79CHL1    O3 8255   1.059   4.891   7.071 -0.6102 -0.4942 -0.0499
   79CHL1   H3' 8256   1.012   4.809   7.055  0.0606 -0.8837 -0.0559
   79CHL1    C4 8257   1.168   4.800   7.260  0.3975  0.0563 -0.3933
   79CHL1   H4A 8258   1.133   4.697   7.238  0.0985  0.3883 -1.5233
   79CHL1   H4B 8259   1.269   4.810   7.215  0.9291 -0.4188  0.6689
   79CHL1    C5 8260   1.179   4.803   7.412 -1.1065 -0.1938 -0.1185
   79CHL1    C6 8261   1.292   4.844   7.477  0.2185 -0.1289 -0.4100
   79CHL1    H6 8262   1.387   4.857   7.424  0.7223  0.8886  0.6751
   79CHL1    C7 8263   1.322   4.840   7.629 -0.0878 -0.5081  0.6108
   79CHL1   H7A 8264   1.409   4.774   7.650 -0.5258 -0.5099  2.6668
   79CHL1   H7B 8265   1.334   4.943   7.669 -0.0929 -0.3036  0.0878
   79CHL1    C8 8266   1.197   4.771   7.702 -0.7109 -0.3582 -0.2939
   79CHL1    H8 8267   1.206   4.661   7.688 -0.2830 -0.4924  0.8969
   79CHL1   C14 8268   1.200   4.794   7.853 -0.4319  0.7028 -0.1167
   79CHL1   H14 8269   1.188   4.903   7.871 -1.1603  0.3396  1.8521
   79CHL1   C15 8270   1.330   4.755   7.929 -0.2033  0.5119  0.2713
   79CHL1  H15A 8271   1.377   4.667   7.878 -0.2785  1.3377 -1.2975
   79CHL1  H15B 8272   1.412   4.829   7.921  1.4604 -1.4124 -2.0879
   79CHL1   C16 8273   1.287   4.728   8.070 -0.3958 -0.0648 -0.6208
   79CHL1  H16A 8274   1.320   4.624   8.095 -0.6453 -0.5137 -2.0600
   79CHL1  H16B 8275   1.339   4.807   8.129  0.4008 -0.4066 -0.8536
   79CHL1   C17 8276   1.131   4.738   8.066 -0.6503 -0.7055 -0.2653
   79CHL1   H17 8277   1.111   4.845   8.087  0.6875 -0.1102 -1.8969
   79CHL1   C13 8278   1.084   4.715   7.922 -0.2033  0.1450 -0.2668
   79CHL1   C18 8279   1.094   4.561   7.901  0.0620  0.0208 -0.0999
   79CHL1  H18A 8280   1.189   4.524   7.946 -0.4234  0.4495  1.3217
   79CHL1  H18B 8281   1.017   4.506   7.959 -0.6324  0.6539 -0.4119
   79CHL1  H18C 8282   1.105   4.534   7.794  0.8864 -0.2391  0.0396
   79CHL1   C12 8283   0.953   4.784   7.876 -0.1617 -0.4980  0.1503
   79CHL1  H12A 8284   0.863   4.740   7.923  0.4582 -1.3370  0.5739
   79CHL1  H12B 8285   0.953   4.893   7.898  0.6414 -0.6708  1.1035
   79CHL1   C11 8286   0.931   4.772   7.720 -0.4694 -0.1455 -0.1366
   79CHL1  H11A 8287   0.927   4.662   7.700  0.9255 -0.3306  0.4941
   79CHL1  H11B 8288   0.828   4.803   7.695  0.0266  1.5218 -0.2048
   79CHL1    C9 8289   1.062   4.818   7.636  0.5001  0.0812 -0.1014
   79CHL1    H9 8290   1.058   4.929   7.644 -1.2308  0.0663 -0.3011
   79CHL1   C10 8291   1.052   4.780   7.486  0.1754 -0.2801 -0.7818
   79CHL1   C19 8292   1.015   4.631   7.477 -0.6423 -0.3836  0.1462
   79CHL1  H19A 8293   1.081   4.576   7.547  1.1625 -1.3326 -2.1503
   79CHL1  H19B 8294   0.908   4.615   7.502 -0.6751  0.1524  0.3622
   79CHL1  H19C 8295   1.021   4.591   7.374 -0.6112 -1.3636  0.5207
   79CHL1    C1 8296   0.938   4.865   7.430  0.0128  0.3561 -0.4752
   79CHL1   H1A 8297   0.840   4.835   7.473  0.1196 -2.4711 -1.9714
   79CHL1   H1B 8298   0.958   4.970   7.461  0.2305  0.3971 -0.7484
   79CHL1    C2 8299   0.931   4.868   7.275  0.3380 -0.0025  0.2271
   79CHL1   H2A 8300   0.850   4.933   7.237 -0.7061 -2.6379 -2.4922
   79CHL1   H2B 8301   0.894   4.768   7.243  1.3745 -0.0826 -0.7777
   79CHL1   C20 8302   1.065   4.658   8.176  0.4517  0.1383 -0.0958
   79CHL1   H20 8303   1.059   4.549   8.152 -1.7007 -0.5874  3.0862
   79CHL1   C21 8304   0.910   4.684   8.196  0.7224  0.5053  0.2704
   79CHL1  H21A 8305   0.864   4.625   8.278  1.6624  2.0814  2.0111
   79CHL1  H21B 8306   0.860   4.652   8.102  2.1368  0.9736 -0.6815
   79CHL1  H21C 8307   0.911   4.795   8.198 -0.3188  0.6204 -2.4369
   79CHL1   C22 8308   1.134   4.673   8.312 -0.2361 -0.7741  0.1687
   79CHL1  H22A 8309   1.106   4.605   8.395 -0.2558 -1.3720 -0.3198
   79CHL1  H22B 8310   1.245   4.663   8.318 -0.2377 -0.1066  2.0692
   79CHL1   C23 8311   1.123   4.816   8.380  0.4062  0.2736  0.8825
   79CHL1  H23A 8312   1.170   4.898   8.322  1.2053 -0.5190  0.3838
   79CHL1  H23B 8313   1.013   4.823   8.390  0.4740 -0.2510  2.3117
   79CHL1   C24 8314   1.173   4.827   8.521  0.1612 -0.5547 -0.3419
   79CHL1  H24A 8315   1.153   4.926   8.566 -0.3009 -0.7701 -0.0652
   79CHL1  H24B 8316   1.111   4.749   8.570 -1.5590 -0.4277 -2.2058
   79CHL1   C25 8317   1.321   4.801   8.565 -0.0837 -0.5797 -0.2138
   79CHL1   H25 8318   1.354   4.700   8.532  2.9175  0.2504 -0.0167
   79CHL1   C26 8319   1.421   4.902   8.516  0.4535 -0.2580 -0.0837
   79CHL1  H26A 8320   1.422   5.009   8.547  2.0613  0.2394 -1.6834
   79CHL1  H26B 8321   1.515   4.866   8.564  0.4691  1.2362  1.1012
   79CHL1  H26C 8322   1.438   4.906   8.406 -1.0984 -0.3823 -0.3431
   79CHL1   C27 8323   1.322   4.811   8.719 -0.7320 -0.4393  0.5172
   79CHL1  H27A 8324   1.283   4.904   8.765 -0.5118 -0.7654  1.3920
   79CHL1  H27B 8325   1.267   4.725   8.763 -0.4147 -1.6686 -1.3816
   79CHL1  H27C 8326   1.428   4.799   8.750 -0.1676  1.7121 -0.4451
   80CHL1    C3 8327   2.938   0.770   6.958  0.1951 -0.4535  0.2064
   80CHL1    H3 8328   2.997   0.699   6.896 -0.7655 -0.0657 -1.1997
   80CHL1    O3 8329   2.875   0.843   6.853 -0.1006  0.5266  0.0124
   80CHL1   H3' 8330   2.789   0.869   6.886 -0.7295 -1.8159  0.3612
   80CHL1    C4 8331   2.825   0.705   7.035 -0.5196 -0.0070 -0.1392
   80CHL1   H4A 8332   2.749   0.780   7.068  0.0045  0.8520 -0.8406
   80CHL1   H4B 8333   2.782   0.635   6.960  1.0760 -1.6564  0.4135
   80CHL1    C5 8334   2.867   0.629   7.157  0.0485  0.6688  0.2057
   80CHL1    C6 8335   2.833   0.501   7.183 -0.1405 -0.2572  0.8225
   80CHL1    H6 8336   2.774   0.452   7.104 -0.7691 -1.4058  1.9624
   80CHL1    C7 8337   2.873   0.428   7.307 -0.6187  0.2366  0.1631
   80CHL1   H7A 8338   2.785   0.368   7.339 -0.8743  0.1460 -0.6811
   80CHL1   H7B 8339   2.955   0.357   7.283  1.4287  2.8799 -1.2621
   80CHL1    C8 8340   2.928   0.515   7.418  0.0474 -0.4863  0.3121
   80CHL1    H8 8341   2.844   0.571   7.465 -0.0594 -1.4353  1.3082
   80CHL1   C14 8342   3.005   0.439   7.525 -0.6944  0.2839 -0.4017
   80CHL1   H14 8343   3.094   0.406   7.468 -0.3086  0.9899 -0.2159
   80CHL1   C15 8344   2.937   0.311   7.579 -0.3903  0.3084  0.0300
   80CHL1  H15A 8345   2.836   0.321   7.624 -0.0691  0.2761  0.7757
   80CHL1  H15B 8346   2.930   0.219   7.517 -2.4866 -1.0558  2.1328
   80CHL1   C16 8347   3.021   0.273   7.705  0.1912  0.1022 -0.1093
   80CHL1  H16A 8348   2.958   0.263   7.795  0.2360  0.8413  0.0113
   80CHL1  H16B 8349   3.069   0.178   7.673 -0.0145  0.2545 -0.9031
   80CHL1   C17 8350   3.122   0.395   7.720  0.4676  0.1351 -0.0892
   80CHL1   H17 8351   3.215   0.369   7.665  0.6271  0.4425  0.0326
   80CHL1   C13 8352   3.066   0.515   7.646 -0.3042  0.4192  0.1059
   80CHL1   C18 8353   2.951   0.579   7.728 -0.6065 -0.7330 -0.1938
   80CHL1  H18A 8354   3.002   0.644   7.803  1.5808 -0.5576 -1.7529
   80CHL1  H18B 8355   2.895   0.643   7.657  0.4085 -2.1751 -2.3916
   80CHL1  H18C 8356   2.897   0.492   7.771 -0.0737 -1.0982 -0.2670
   80CHL1   C12 8357   3.166   0.609   7.587  0.3324 -0.5485 -0.3165
   80CHL1  H12A 8358   3.212   0.676   7.662 -1.6633  0.6593 -0.1247
   80CHL1  H12B 8359   3.243   0.556   7.526  0.0529 -2.4762  0.9162
   80CHL1   C11 8360   3.091   0.699   7.475 -0.0063 -0.1275  0.6983
   80CHL1  H11A 8361   3.015   0.752   7.536 -0.0112 -1.8920  2.3096
   80CHL1  H11B 8362   3.167   0.768   7.432  0.2353  0.9413  2.7398
   80CHL1    C9 8363   3.015   0.618   7.357  0.3491 -0.4295 -0.6594
   80CHL1    H9 8364   3.099   0.565   7.307 -0.9943 -3.1521 -0.2022
   80CHL1   C10 8365   2.952   0.710   7.253  0.9672 -0.4043 -0.3895
   80CHL1   C19 8366   2.860   0.817   7.319  0.0007 -0.2025  0.3334
   80CHL1  H19A 8367   2.926   0.888   7.374  0.5681 -0.3682 -0.1285
   80CHL1  H19B 8368   2.810   0.869   7.234 -0.6211 -4.1130 -1.9355
   80CHL1  H19C 8369   2.788   0.764   7.384 -1.1649 -1.3307 -1.7665
   80CHL1    C1 8370   3.060   0.786   7.171  0.9222 -0.1178  0.0147
   80CHL1   H1A 8371   3.129   0.847   7.233  0.5720  0.6069 -0.2946
   80CHL1   H1B 8372   3.123   0.705   7.129  0.2411 -1.7659  2.0341
   80CHL1    C2 8373   3.010   0.866   7.047 -0.3029 -0.2601 -0.1526
   80CHL1   H2A 8374   3.089   0.909   6.981 -2.0952 -0.8191 -2.7874
   80CHL1   H2B 8375   2.959   0.953   7.093  0.2076  0.1181 -0.2940
   80CHL1   C20 8376   3.164   0.425   7.866 -0.2080 -0.0372  0.2820
   80CHL1   H20 8377   3.074   0.456   7.923  0.4593  1.7035  0.4657
   80CHL1   C21 8378   3.251   0.551   7.879 -0.1148  0.2298  0.2609
   80CHL1  H21A 8379   3.320   0.563   7.792 -2.1454 -0.9487 -1.6105
   80CHL1  H21B 8380   3.314   0.545   7.970  0.2757  1.5654  0.1026
   80CHL1  H21C 8381   3.187   0.641   7.889 -0.5456 -0.1384  0.8708
   80CHL1   C22 8382   3.222   0.300   7.932  0.6921 -0.1746  0.1429
   80CHL1  H22A 8383   3.145   0.220   7.926  0.1833  0.1085  2.0996
   80CHL1  H22B 8384   3.312   0.258   7.882 -0.0864 -1.8532  0.0760
   80CHL1   C23 8385   3.254   0.316   8.081 -0.1539 -0.1806  0.3049
   80CHL1  H23A 8386   3.280   0.211   8.104 -1.0039 -0.8082 -1.4395
   80CHL1  H23B 8387   3.349   0.373   8.089  0.9311 -1.6584 -1.2969
   80CHL1   C24 8388   3.134   0.350   8.166 -0.2859 -0.3267 -0.0640
   80CHL1  H24A 8389   3.084   0.448   8.152  1.0783  0.5305  0.8462
   80CHL1  H24B 8390   3.065   0.264   8.150  1.3336 -1.5514 -0.7119
   80CHL1   C25 8391   3.157   0.324   8.324 -0.3412 -0.1843  0.0982
   80CHL1   H25 8392   3.212   0.228   8.321  0.6414  0.2960  1.4694
   80CHL1   C26 8393   3.261   0.419   8.385 -0.1335 -0.0062 -1.3703
   80CHL1  H26A 8394   3.209   0.516   8.403 -0.4791 -0.3725 -0.3378
   80CHL1  H26B 8395   3.278   0.389   8.490  1.0342  2.4213 -0.7922
   80CHL1  H26C 8396   3.351   0.427   8.321  1.5591 -2.3949  0.5675
   80CHL1   C27 8397   3.029   0.313   8.403  0.2170  0.0265  0.4737
   80CHL1  H27A 8398   3.059   0.296   8.508  0.0928 -0.3192  0.4520
   80CHL1  H27B 8399   2.976   0.411   8.404  0.6831  0.2843  0.5349
   80CHL1  H27C 8400   2.958   0.235   8.370 -0.5555  1.2529 -0.9008
   81CHL1    C3 8401   4.803   2.232   6.881  0.5680  0.0417  0.5044
   81CHL1    H3 8402   4.742   2.160   6.939  1.4823 -1.3076 -0.1503
   81CHL1    O3 8403   4.775   2.210   6.738  0.6864 -0.6033  0.5542
   81CHL1   H3' 8404   4.839   2.265   6.692  1.5561 -2.9533 -1.2433
   81CHL1    C4 8405   4.765   2.370   6.918 -0.3974  0.5869  0.4496
   81CHL1   H4A 8406   4.813   2.445   6.852 -1.2191  2.0818  1.4761
   81CHL1   H4B 8407   4.654   2.378   6.911 -0.5918 -2.0218 -0.1540
   81CHL1    C5 8408   4.800   2.416   7.060  0.5020 -0.0884 -0.4890
   81CHL1    C6 8409   4.716   2.472   7.153  0.3162 -0.5826 -0.4824
   81CHL1    H6 8410   4.610   2.484   7.128  0.0476  0.3341  1.0196
   81CHL1    C7 8411   4.745   2.522   7.294  0.4033  0.6056 -0.0740
   81CHL1   H7A 8412   4.687   2.616   7.306 -0.9651 -0.1520 -0.4785
   81CHL1   H7B 8413   4.691   2.453   7.362  0.9526 -0.8946 -1.0964
   81CHL1    C8 8414   4.900   2.521   7.327  0.1964  1.0778  0.3305
   81CHL1    H8 8415   4.940   2.607   7.269 -0.9334  0.4264 -1.4921
   81CHL1   C14 8416   4.926   2.533   7.475 -0.1269  0.5020  0.0580
   81CHL1   H14 8417   4.894   2.433   7.512  0.5441  0.6861  1.1685
   81CHL1   C15 8418   4.845   2.628   7.560  0.0333  0.0626  0.4292
   81CHL1  H15A 8419   4.827   2.730   7.520  3.4730  0.1087 -1.4354
   81CHL1  H15B 8420   4.749   2.579   7.586 -0.2573  0.3766 -0.0277
   81CHL1   C16 8421   4.931   2.649   7.685 -0.3442  0.4605  0.3083
   81CHL1  H16A 8422   4.968   2.753   7.690 -0.1233  0.6597 -3.0246
   81CHL1  H16B 8423   4.868   2.625   7.772 -0.5427  1.4129  0.4343
   81CHL1   C17 8424   5.053   2.548   7.674 -0.1211 -0.0854 -0.1356
   81CHL1   H17 8425   5.020   2.447   7.705  2.7838 -0.6117  1.5472
   81CHL1   C13 8426   5.076   2.533   7.517  0.7561  0.6875 -0.5937
   81CHL1   C18 8427   5.154   2.656   7.465  0.4107  0.0275 -0.9141
   81CHL1  H18A 8428   5.100   2.741   7.510  1.1697 -0.0356  0.1712
   81CHL1  H18B 8429   5.259   2.658   7.503  0.1476 -1.8033  0.0436
   81CHL1  H18C 8430   5.152   2.671   7.355  3.4616  1.3773 -0.8881
   81CHL1   C12 8431   5.134   2.404   7.464  0.4649  0.6265  0.0212
   81CHL1  H12A 8432   5.244   2.399   7.476  0.4667 -0.0229 -0.2396
   81CHL1  H12B 8433   5.093   2.317   7.520  0.5076 -0.9333 -2.2330
   81CHL1   C11 8434   5.113   2.382   7.310  0.1615  0.8767 -0.5141
   81CHL1  H11A 8435   5.177   2.449   7.248  2.1245 -2.2318 -2.0976
   81CHL1  H11B 8436   5.160   2.286   7.281  2.3166  1.2109  1.5782
   81CHL1    C9 8437   4.969   2.399   7.259  0.3268 -0.0348  0.4217
   81CHL1    H9 8438   4.916   2.309   7.298 -0.4077 -1.2675 -3.0841
   81CHL1   C10 8439   4.939   2.377   7.102 -0.8033 -0.2029 -0.1711
   81CHL1   C19 8440   5.020   2.484   7.024 -0.5229 -0.2983  0.0589
   81CHL1  H19A 8441   4.995   2.586   7.060 -2.1953 -0.6423 -0.0801
   81CHL1  H19B 8442   5.127   2.470   7.054  0.1691  1.7974 -1.2514
   81CHL1  H19C 8443   5.022   2.478   6.914  0.1850  1.0779 -0.0321
   81CHL1    C1 8444   4.975   2.232   7.062  0.4169 -0.3874  0.2777
   81CHL1   H1A 8445   5.082   2.202   7.068 -0.2228 -4.2494 -3.3656
   81CHL1   H1B 8446   4.912   2.158   7.116 -0.9994  2.0967  2.2800
   81CHL1    C2 8447   4.942   2.205   6.910 -0.4737 -0.8372 -0.0337
   81CHL1   H2A 8448   4.965   2.098   6.889  0.4515 -0.3015 -1.9620
   81CHL1   H2B 8449   5.018   2.258   6.850 -1.0988 -0.4073 -0.4559
   81CHL1   C20 8450   5.164   2.581   7.781  0.3045  0.4454  0.7624
   81CHL1   H20 8451   5.211   2.680   7.765 -0.1117  0.5806  0.3818
   81CHL1   C21 8452   5.258   2.460   7.773 -0.7968  0.2356 -0.3216
   81CHL1  H21A 8453   5.324   2.483   7.686 -1.3494 -0.5424 -0.9588
   81CHL1  H21B 8454   5.212   2.363   7.746  0.4552  0.5566 -4.2123
   81CHL1  H21C 8455   5.318   2.447   7.866 -0.5116 -0.5109 -0.6034
   81CHL1   C22 8456   5.114   2.599   7.923 -0.1967 -0.4036 -0.5021
   81CHL1  H22A 8457   5.043   2.684   7.921 -2.3532 -2.0934  0.5044
   81CHL1  H22B 8458   5.049   2.516   7.958  1.5853 -1.5170  0.3191
   81CHL1   C23 8459   5.214   2.639   8.041  0.2652 -0.2763 -0.7257
   81CHL1  H23A 8460   5.274   2.550   8.068 -1.8449 -1.2054  1.2386
   81CHL1  H23B 8461   5.280   2.724   8.013  0.5995  0.3851  1.7886
   81CHL1   C24 8462   5.140   2.680   8.170  0.2941 -0.4528 -0.8746
   81CHL1  H24A 8463   5.199   2.737   8.244 -2.3059  1.7716 -0.3765
   81CHL1  H24B 8464   5.057   2.745   8.137 -0.6152 -0.6098  0.9937
   81CHL1   C25 8465   5.077   2.558   8.244  0.0037 -0.0923 -0.5936
   81CHL1   H25 8466   5.008   2.514   8.169 -1.3181 -1.7979  1.4923
   81CHL1   C26 8467   5.158   2.436   8.288 -0.2571 -0.1220 -0.5178
   81CHL1  H26A 8468   5.192   2.382   8.197 -3.0247 -0.2458 -1.5736
   81CHL1  H26B 8469   5.241   2.451   8.361  0.3224  1.2181 -1.4198
   81CHL1  H26C 8470   5.092   2.358   8.333  1.8587 -0.6671  1.9027
   81CHL1   C27 8471   4.990   2.625   8.351  0.6639 -0.4337 -0.5535
   81CHL1  H27A 8472   5.053   2.641   8.440 -1.3644 -0.7335  0.9995
   81CHL1  H27B 8473   4.941   2.717   8.311 -1.1804 -1.2857 -0.3523
   81CHL1  H27C 8474   4.908   2.560   8.388 -1.7160  3.5561  1.9938
   82CHL1    C3 8475   1.036   4.043   6.963  0.3773 -0.4689  0.0499
   82CHL1    H3 8476   1.044   4.149   6.997  2.8734 -0.3949 -0.5657
   82CHL1    O3 8477   1.053   4.053   6.822  0.0568 -0.3899  0.4557
   82CHL1   H3' 8478   1.089   3.969   6.792 -0.6173 -0.3640 -0.4454
   82CHL1    C4 8479   1.133   3.950   7.030  0.2695 -0.1851 -0.1637
   82CHL1   H4A 8480   1.130   3.848   6.984  0.3961 -1.3090  2.1543
   82CHL1   H4B 8481   1.237   3.989   7.024  0.6936 -1.3540 -0.8369
   82CHL1    C5 8482   1.089   3.929   7.179 -0.7395 -0.3746  0.0515
   82CHL1    C6 8483   1.164   3.969   7.285  0.1152 -0.3257  0.4832
   82CHL1    H6 8484   1.265   4.008   7.263 -0.8675  0.9748 -2.2255
   82CHL1    C7 8485   1.120   3.946   7.431  0.2073 -0.3881  0.4605
   82CHL1   H7A 8486   1.205   3.909   7.494  1.0564  1.1747  0.2931
   82CHL1   H7B 8487   1.101   4.047   7.473  0.7766  2.0116 -4.3730
   82CHL1    C8 8488   1.001   3.853   7.451  0.6233 -0.4713 -0.6755
   82CHL1    H8 8489   1.038   3.748   7.448 -0.4102 -0.9543  1.4827
   82CHL1   C14 8490   0.940   3.873   7.599 -0.4555 -0.2224 -0.0684
   82CHL1   H14 8491   0.904   3.978   7.607  3.6770  1.2627  2.9611
   82CHL1   C15 8492   1.035   3.865   7.723 -1.0758  0.5577  0.2201
   82CHL1  H15A 8493   1.103   3.778   7.714 -1.3738  0.3534 -0.0450
   82CHL1  H15B 8494   1.090   3.962   7.729  1.3231 -0.8031  2.7678
   82CHL1   C16 8495   0.935   3.851   7.836 -0.4673  1.1386 -0.1120
   82CHL1  H16A 8496   0.976   3.761   7.887 -0.6588  0.2559 -1.4657
   82CHL1  H16B 8497   0.918   3.941   7.899 -0.0910  1.4130 -0.3984
   82CHL1   C17 8498   0.797   3.818   7.772  0.6250 -0.3150 -0.2097
   82CHL1   H17 8499   0.742   3.913   7.754  1.3306  0.0488 -0.4806
   82CHL1   C13 8500   0.826   3.778   7.627 -0.1667  0.2773  0.5600
   82CHL1   C18 8501   0.877   3.628   7.624 -0.3561 -0.3366  0.5851
   82CHL1  H18A 8502   0.906   3.595   7.522 -0.6358 -1.3232  0.8054
   82CHL1  H18B 8503   0.967   3.606   7.686  0.3883  1.6563  0.2595
   82CHL1  H18C 8504   0.787   3.564   7.643 -2.6094  2.8116  1.2823
   82CHL1   C12 8505   0.720   3.807   7.517  1.2202 -0.3240  0.6885
   82CHL1  H12A 8506   0.632   3.743   7.539 -2.0146  2.7931 -1.9293
   82CHL1  H12B 8507   0.679   3.908   7.534  2.2990  0.5985 -1.6744
   82CHL1   C11 8508   0.768   3.801   7.367 -1.3855  0.5138 -0.7034
   82CHL1  H11A 8509   0.781   3.693   7.345  3.2893  0.8907 -0.7368
   82CHL1  H11B 8510   0.681   3.836   7.308 -1.9476  1.4280  0.6292
   82CHL1    C9 8511   0.894   3.884   7.343 -0.2075  0.6917  0.2635
   82CHL1    H9 8512   0.864   3.985   7.379  0.4902  0.4380  1.6407
   82CHL1   C10 8513   0.944   3.884   7.200  0.1131 -0.4343 -0.3727
   82CHL1   C19 8514   0.932   3.741   7.131 -0.1185 -1.2563 -0.7434
   82CHL1  H19A 8515   0.967   3.728   7.026  2.4965 -2.6281  0.2081
   82CHL1  H19B 8516   0.994   3.681   7.201  0.6054  0.8534  0.5259
   82CHL1  H19C 8517   0.826   3.711   7.142 -1.4174  2.8378 -0.3589
   82CHL1    C1 8518   0.845   3.974   7.121  0.2397 -0.0050 -0.2684
   82CHL1   H1A 8519   0.738   3.944   7.126 -0.1581  1.5430  1.8044
   82CHL1   H1B 8520   0.847   4.073   7.170 -3.1296 -0.7243  1.6443
   82CHL1    C2 8521   0.892   3.995   6.975  0.3321  0.1826  0.7139
   82CHL1   H2A 8522   0.818   4.064   6.928  0.3667 -0.5357 -0.4395
   82CHL1   H2B 8523   0.886   3.901   6.916  2.1070  0.0138  0.7465
   82CHL1   C20 8524   0.706   3.721   7.861  0.4355  0.6259  0.0804
   82CHL1   H20 8525   0.756   3.621   7.854  1.8619  1.3294 -0.2949
   82CHL1   C21 8526   0.557   3.718   7.815 -0.0816  0.0834 -0.1190
   82CHL1  H21A 8527   0.543   3.682   7.711  1.2859 -0.0824 -0.2627
   82CHL1  H21B 8528   0.516   3.821   7.812 -1.1425 -0.2759  1.2116
   82CHL1  H21C 8529   0.499   3.657   7.887 -2.8849  3.0804  0.3756
   82CHL1   C22 8530   0.712   3.764   8.009 -0.6594 -0.4635 -0.4022
   82CHL1  H22A 8531   0.815   3.782   8.047 -0.1825 -1.3180 -1.2618
   82CHL1  H22B 8532   0.647   3.854   8.020  0.9863  0.6184  0.9513
   82CHL1   C23 8533   0.646   3.663   8.115 -0.5513 -0.4566 -0.1938
   82CHL1  H23A 8534   0.537   3.677   8.127 -0.0463  4.0761  1.0439
   82CHL1  H23B 8535   0.676   3.564   8.075  1.0278  0.4998 -1.5260
   82CHL1   C24 8536   0.714   3.685   8.253 -0.0958  0.2344 -0.0583
   82CHL1  H24A 8537   0.825   3.690   8.259 -0.0950 -0.5707  0.9296
   82CHL1  H24B 8538   0.684   3.785   8.289  1.7393  0.8831 -0.2185
   82CHL1   C25 8539   0.671   3.586   8.372 -0.3777  0.7421  0.1007
   82CHL1   H25 8540   0.565   3.612   8.393 -0.3192  1.4471 -0.4480
   82CHL1   C26 8541   0.676   3.440   8.337 -0.0103  0.1634  0.1830
   82CHL1  H26A 8542   0.602   3.411   8.259  0.5482  1.1109 -0.7291
   82CHL1  H26B 8543   0.774   3.426   8.286 -0.2042  2.8040 -1.0787
   82CHL1  H26C 8544   0.666   3.375   8.426 -2.2894 -1.7447 -1.3501
   82CHL1   C27 8545   0.754   3.614   8.496 -0.2364 -1.1476 -0.6220
   82CHL1  H27A 8546   0.860   3.609   8.465  0.3213  0.0337  0.9582
   82CHL1  H27B 8547   0.740   3.715   8.540 -1.0764 -1.8131  0.7195
   82CHL1  H27C 8548   0.737   3.540   8.577  0.4730  1.0316  1.6461
   83CHL1    C3 8549   4.065   4.431   7.129  0.4266  0.6516 -0.2247
   83CHL1    H3 8550   4.157   4.376   7.155  0.9397  0.8508 -1.5529
   83CHL1    O3 8551   4.070   4.457   6.992  0.2853 -0.6732  0.4579
   83CHL1   H3' 8552   3.988   4.507   6.988  1.0971  0.8259  1.7433
   83CHL1    C4 8553   3.928   4.369   7.165 -0.6452 -0.5003  0.4543
   83CHL1   H4A 8554   3.847   4.436   7.131 -0.5641 -1.2651 -1.3673
   83CHL1   H4B 8555   3.920   4.273   7.109 -0.2418  0.9123 -2.1632
   83CHL1    C5 8556   3.914   4.339   7.311 -0.1770  0.6689  0.7607
   83CHL1    C6 8557   3.904   4.219   7.365 -0.0094  0.7242  0.2053
   83CHL1    H6 8558   3.887   4.140   7.290 -0.1038  1.4799 -0.5892
   83CHL1    C7 8559   3.894   4.185   7.512  0.6048  0.4517  0.3095
   83CHL1   H7A 8560   3.815   4.110   7.533 -0.7633  1.6000 -0.5220
   83CHL1   H7B 8561   3.993   4.138   7.530 -0.5881 -1.2226  3.1085
   83CHL1    C8 8562   3.882   4.312   7.605 -0.1826  0.4761  0.1429
   83CHL1    H8 8563   3.778   4.352   7.605 -0.9675 -1.4487  0.0248
   83CHL1   C14 8564   3.926   4.278   7.749 -0.9300 -0.4338 -0.0956
   83CHL1   H14 8565   4.032   4.245   7.743 -0.5293  0.9545 -1.1420
   83CHL1   C15 8566   3.844   4.173   7.817  0.4584  0.2532 -0.0816
   83CHL1  H15A 8567   3.738   4.203   7.815  0.6936  1.0630 -0.6526
   83CHL1  H15B 8568   3.859   4.073   7.770  0.2568  0.7268 -1.1664
   83CHL1   C16 8569   3.884   4.189   7.968 -0.0572  0.3269 -0.5607
   83CHL1  H16A 8570   3.795   4.188   8.034  2.2984 -0.1761  2.8399
   83CHL1  H16B 8571   3.952   4.105   7.995 -2.1756 -1.2522  0.0821
   83CHL1   C17 8572   3.955   4.327   7.977 -0.0159  0.0060 -0.5238
   83CHL1   H17 8573   4.063   4.303   7.979  0.5836  2.4372  0.1202
   83CHL1   C13 8574   3.933   4.403   7.843 -0.0152  0.3430 -0.4362
   83CHL1   C18 8575   3.804   4.477   7.855  0.2954  0.3203  0.8671
   83CHL1  H18A 8576   3.811   4.566   7.921  1.0121  1.4570 -0.6899
   83CHL1  H18B 8577   3.764   4.509   7.757  2.7719 -0.2754 -0.4319
   83CHL1  H18C 8578   3.732   4.407   7.902 -1.1220  0.2730 -1.2679
   83CHL1   C12 8579   4.048   4.483   7.791  0.5294  0.7085  0.1949
   83CHL1  H12A 8580   4.071   4.564   7.863  1.7632 -0.1510  0.7949
   83CHL1  H12B 8581   4.140   4.422   7.782 -0.5710 -0.8469 -1.2163
   83CHL1   C11 8582   4.021   4.529   7.650 -0.0036  0.4729 -0.1186
   83CHL1  H11A 8583   3.942   4.607   7.663 -1.1888 -0.6149 -0.5864
   83CHL1  H11B 8584   4.115   4.574   7.613  0.2075  2.1713  2.3045
   83CHL1    C9 8585   3.979   4.410   7.547 -0.2974 -0.1512 -0.1001
   83CHL1    H9 8586   4.071   4.349   7.541 -0.9474 -1.0059 -2.8228
   83CHL1   C10 8587   3.946   4.464   7.403  0.1718  0.0899  0.6159
   83CHL1   C19 8588   3.827   4.565   7.404 -0.4118  0.8107  0.2047
   83CHL1  H19A 8589   3.855   4.661   7.451  2.5928  0.5818 -0.9273
   83CHL1  H19B 8590   3.794   4.580   7.299  2.5358  1.4967 -0.7162
   83CHL1  H19C 8591   3.734   4.527   7.452  0.4134  2.0010  2.9725
   83CHL1    C1 8592   4.079   4.524   7.351  0.4047 -0.1254 -0.9253
   83CHL1   H1A 8593   4.083   4.618   7.409  0.1960 -1.0398  0.6263
   83CHL1   H1B 8594   4.165   4.459   7.379 -0.2407 -0.3811  0.5339
   83CHL1    C2 8595   4.083   4.562   7.203  0.6735 -0.0974 -0.2699
   83CHL1   H2A 8596   4.168   4.627   7.172  0.5356  1.0819  1.6644
   83CHL1   H2B 8597   3.996   4.628   7.183 -0.9951 -2.2668 -0.5453
   83CHL1   C20 8598   3.929   4.415   8.103  0.4956 -0.0025 -0.5452
   83CHL1   H20 8599   3.822   4.443   8.090  0.4082 -1.2385 -3.0823
   83CHL1   C21 8600   4.019   4.541   8.121 -0.5775  0.1296  0.0623
   83CHL1  H21A 8601   4.000   4.620   8.046 -0.5828  1.4449  1.4115
   83CHL1  H21B 8602   4.123   4.502   8.117 -0.5896  0.0668  0.3378
   83CHL1  H21C 8603   4.022   4.587   8.222 -3.3579 -0.8584  0.6757
   83CHL1   C22 8604   3.949   4.321   8.226  0.2208  0.6769 -0.5393
   83CHL1  H22A 8605   3.901   4.222   8.214 -0.8758  1.0539  0.4729
   83CHL1  H22B 8606   4.055   4.294   8.246  0.4343  1.4980 -0.5353
   83CHL1   C23 8607   3.872   4.369   8.357  0.6140 -0.3414 -0.1386
   83CHL1  H23A 8608   3.890   4.316   8.453 -0.4512 -0.6797 -0.1166
   83CHL1  H23B 8609   3.911   4.468   8.388  1.3964 -0.9518  0.9194
   83CHL1   C24 8610   3.718   4.379   8.337  0.3881 -0.0435 -0.5169
   83CHL1  H24A 8611   3.690   4.450   8.256  1.9779  2.5654  1.0618
   83CHL1  H24B 8612   3.671   4.280   8.321 -1.8821  1.0652 -1.0645
   83CHL1   C25 8613   3.659   4.459   8.459 -0.2893  0.5074  0.5799
   83CHL1   H25 8614   3.721   4.549   8.481 -0.6980  0.5856  1.4844
   83CHL1   C26 8615   3.516   4.501   8.422  0.1675 -0.0459 -0.6320
   83CHL1  H26A 8616   3.470   4.401   8.406 -0.4905  0.0713  0.4255
   83CHL1  H26B 8617   3.464   4.552   8.506  0.5751  2.4218 -1.7816
   83CHL1  H26C 8618   3.503   4.551   8.324  0.0555 -0.2365 -0.7156
   83CHL1   C27 8619   3.651   4.369   8.586 -0.0671 -0.2434  0.1219
   83CHL1  H27A 8620   3.554   4.316   8.590 -0.8990  1.2432  0.2740
   83CHL1  H27B 8621   3.741   4.304   8.582  0.5990  0.6745 -0.3530
   83CHL1  H27C 8622   3.656   4.435   8.675 -2.1533  0.9915 -0.6190
   84CHL1    C3 8623   5.518   1.207   6.847 -0.2298  0.9179 -0.0743
   84CHL1    H3 8624   5.621   1.240   6.874  0.5579 -1.0798 -0.4223
   84CHL1    O3 8625   5.486   1.214   6.707 -0.4999  0.0543  0.4113
   84CHL1   H3' 8626   5.549   1.156   6.663  0.6944  0.0534  2.0545
   84CHL1    C4 8627   5.480   1.075   6.904  0.3847  0.4784 -0.5769
   84CHL1   H4A 8628   5.376   1.065   6.869  0.3383 -0.0751 -0.2921
   84CHL1   H4B 8629   5.542   0.999   6.852  1.6430  1.1895 -0.1697
   84CHL1    C5 8630   5.492   1.075   7.060 -0.3021  0.6289 -0.2676
   84CHL1    C6 8631   5.578   0.988   7.112 -0.4068  0.2696 -0.7560
   84CHL1    H6 8632   5.624   0.909   7.051  1.2631  0.9908 -0.4940
   84CHL1    C7 8633   5.595   0.972   7.261 -0.0405 -0.3718 -0.6589
   84CHL1   H7A 8634   5.603   0.869   7.300  0.9083  0.0733  0.3809
   84CHL1   H7B 8635   5.693   1.018   7.287 -0.2606 -0.5325  0.4935
   84CHL1    C8 8636   5.500   1.054   7.336 -0.2869 -0.5118  0.3146
   84CHL1    H8 8637   5.404   0.998   7.337  0.3200 -1.7895 -2.6216
   84CHL1   C14 8638   5.562   1.073   7.478 -0.1142  0.5810  0.0320
   84CHL1   H14 8639   5.649   1.139   7.458  0.7422  0.5692  3.1704
   84CHL1   C15 8640   5.605   0.951   7.552 -0.6373 -0.5892  0.2162
   84CHL1  H15A 8641   5.523   0.876   7.553  0.7960 -2.2455 -0.6219
   84CHL1  H15B 8642   5.694   0.911   7.498 -1.0909  2.3686 -3.1053
   84CHL1   C16 8643   5.633   1.011   7.690 -0.2255  0.2994  0.0884
   84CHL1  H16A 8644   5.597   0.935   7.762 -3.2258  0.9136 -0.6210
   84CHL1  H16B 8645   5.738   1.032   7.720  0.2464  0.3978 -1.5838
   84CHL1   C17 8646   5.555   1.142   7.703 -0.1447 -0.1875 -0.4536
   84CHL1   H17 8647   5.621   1.231   7.703 -1.4984  0.8585  0.0858
   84CHL1   C13 8648   5.473   1.156   7.570  0.2685 -0.6658  0.2961
   84CHL1   C18 8649   5.330   1.094   7.585  0.5160  0.4257 -0.0068
   84CHL1  H18A 8650   5.344   0.997   7.637 -1.5789  0.2346  0.3156
   84CHL1  H18B 8651   5.261   1.150   7.651 -0.8614 -0.2947 -0.7747
   84CHL1  H18C 8652   5.265   1.100   7.495 -1.5896  2.2136  1.5172
   84CHL1   C12 8653   5.468   1.306   7.515 -0.8125  0.1192  0.3853
   84CHL1  H12A 8654   5.393   1.368   7.569  0.4965  2.4332 -0.3190
   84CHL1  H12B 8655   5.572   1.345   7.508 -0.2368 -1.5107 -0.5971
   84CHL1   C11 8656   5.407   1.298   7.377  0.4071  0.1462  0.0951
   84CHL1  H11A 8657   5.297   1.282   7.388  0.6223 -3.1546 -1.3535
   84CHL1  H11B 8658   5.417   1.398   7.331 -0.3909  2.0648  3.6929
   84CHL1    C9 8659   5.473   1.201   7.279 -1.3915  0.3879  0.1251
   84CHL1    H9 8660   5.577   1.238   7.264 -0.6968 -0.6209  2.0389
   84CHL1   C10 8661   5.426   1.193   7.132 -0.5723 -0.0308  0.2425
   84CHL1   C19 8662   5.271   1.196   7.134  0.0531  0.3151 -0.6449
   84CHL1  H19A 8663   5.232   1.297   7.160 -1.8359 -0.8806  1.4695
   84CHL1  H19B 8664   5.223   1.166   7.038 -0.2786  2.5928 -1.2539
   84CHL1  H19C 8665   5.226   1.128   7.209 -0.1178 -1.1592 -2.0231
   84CHL1    C1 8666   5.467   1.328   7.057 -0.5376  0.3251  0.6499
   84CHL1   H1A 8667   5.420   1.417   7.105 -1.6970  1.4987 -2.4240
   84CHL1   H1B 8668   5.577   1.342   7.067 -0.6291  1.3078  0.4449
   84CHL1    C2 8669   5.435   1.323   6.912  0.1911 -0.1842 -0.0334
   84CHL1   H2A 8670   5.476   1.417   6.870  0.3926  0.2749  1.1480
   84CHL1   H2B 8671   5.326   1.311   6.894 -0.0575 -1.8999  2.1665
   84CHL1   C20 8672   5.479   1.156   7.841 -1.0219 -0.1204 -0.5840
   84CHL1   H20 8673   5.404   1.077   7.858 -0.9588  0.4138  2.8098
   84CHL1   C21 8674   5.416   1.302   7.854  0.1543  0.1602  0.0660
   84CHL1  H21A 8675   5.323   1.325   7.799  0.0263  1.3536  0.7333
   84CHL1  H21B 8676   5.486   1.380   7.818  0.0590 -0.8694 -2.5299
   84CHL1  H21C 8677   5.376   1.318   7.956 -0.1902 -2.0689  0.3322
   84CHL1   C22 8678   5.576   1.138   7.960 -0.7440 -0.2725 -0.1610
   84CHL1  H22A 8679   5.638   1.046   7.957  1.8703  1.4145 -1.2370
   84CHL1  H22B 8680   5.649   1.221   7.965  0.1498 -0.9248 -1.6139
   84CHL1   C23 8681   5.499   1.110   8.093  0.3936  0.2857 -0.6238
   84CHL1  H23A 8682   5.449   1.206   8.115  0.7877  0.3411  0.0495
   84CHL1  H23B 8683   5.420   1.033   8.075  0.4031  0.3198 -0.8147
   84CHL1   C24 8684   5.582   1.072   8.215 -0.2223 -0.5649  0.1149
   84CHL1  H24A 8685   5.667   1.010   8.180  1.0076  1.6124 -0.9408
   84CHL1  H24B 8686   5.629   1.159   8.266  2.2157 -1.3863 -0.5952
   84CHL1   C25 8687   5.498   1.004   8.325 -0.1123  0.2930  0.5052
   84CHL1   H25 8688   5.444   0.921   8.274  1.3733 -0.1545 -0.4175
   84CHL1   C26 8689   5.582   0.955   8.438  0.2311  0.8318 -0.1437
   84CHL1  H26A 8690   5.522   0.905   8.518  0.6160 -0.0627 -0.4011
   84CHL1  H26B 8691   5.661   0.885   8.403 -0.2645 -0.3557  0.9986
   84CHL1  H26C 8692   5.620   1.046   8.489  1.0485 -0.8326  2.4234
   84CHL1   C27 8693   5.385   1.090   8.366 -0.6126  0.1040 -0.0750
   84CHL1  H27A 8694   5.314   1.109   8.283 -0.3366  0.2287 -0.2813
   84CHL1  H27B 8695   5.324   1.043   8.446  1.2052  0.8133  1.8144
   84CHL1  H27C 8696   5.416   1.189   8.407 -1.9084  0.1114  0.9698
   85CHL1    C3 8697   4.180   5.822   6.694  0.3228 -0.3597  0.1213
   85CHL1    H3 8698   4.198   5.715   6.720 -2.3495 -0.3357  2.5629
   85CHL1    O3 8699   4.175   5.830   6.553 -0.0797  0.2335 -0.7418
   85CHL1   H3' 8700   4.180   5.923   6.527  0.0610  0.1794 -0.9083
   85CHL1    C4 8701   4.051   5.872   6.754  0.2021  0.3579  1.2608
   85CHL1   H4A 8702   4.020   5.972   6.717  3.8684  1.1185 -0.1351
   85CHL1   H4B 8703   3.977   5.805   6.704  1.9376 -1.7629  1.3597
   85CHL1    C5 8704   4.043   5.875   6.909  0.4550  0.1051 -0.2317
   85CHL1    C6 8705   3.947   5.804   6.980 -0.1856 -0.0768 -0.0050
   85CHL1    H6 8706   3.871   5.753   6.919  0.3914  1.7757 -2.4933
   85CHL1    C7 8707   3.950   5.805   7.133 -0.5543 -0.4320  0.0290
   85CHL1   H7A 8708   3.851   5.845   7.164 -0.4864  0.1092 -0.4298
   85CHL1   H7B 8709   3.956   5.699   7.166  0.9039 -0.2787  0.3413
   85CHL1    C8 8710   4.053   5.890   7.206  0.2139 -0.3257  0.1518
   85CHL1    H8 8711   4.003   5.989   7.207  1.2105  0.2404  2.7715
   85CHL1   C14 8712   4.077   5.853   7.349  0.8436  0.3994 -0.1289
   85CHL1   H14 8713   4.117   5.750   7.354  1.9883  0.7796 -0.9915
   85CHL1   C15 8714   3.963   5.851   7.455 -0.3608 -0.1241 -1.0454
   85CHL1  H15A 8715   3.895   5.938   7.446 -1.4003 -0.6942  0.8795
   85CHL1  H15B 8716   3.896   5.762   7.459  0.2660 -0.5716 -0.3869
   85CHL1   C16 8717   4.042   5.856   7.589 -0.5906 -0.0703 -0.0414
   85CHL1  H16A 8718   4.003   5.934   7.659 -1.7255  0.0488 -0.7689
   85CHL1  H16B 8719   4.025   5.762   7.645  0.0194  1.9530  3.8756
   85CHL1   C17 8720   4.190   5.870   7.555 -0.1980  0.3163 -0.0160
   85CHL1   H17 8721   4.239   5.771   7.544  1.1310  0.9120  0.3322
   85CHL1   C13 8722   4.197   5.929   7.411  0.6940  0.3912  0.2226
   85CHL1   C18 8723   4.176   6.082   7.414  0.9969 -0.2337 -0.0048
   85CHL1  H18A 8724   4.114   6.122   7.497  2.1936  0.8673  0.4028
   85CHL1  H18B 8725   4.271   6.132   7.442  1.5409 -0.2112 -1.7477
   85CHL1  H18C 8726   4.148   6.129   7.318 -0.1840  0.2365  0.5548
   85CHL1   C12 8727   4.330   5.892   7.338  0.2497  0.1884  0.0157
   85CHL1  H12A 8728   4.410   5.938   7.399  1.4112 -0.6087 -0.8591
   85CHL1  H12B 8729   4.344   5.782   7.346  0.0611  0.1319 -0.3924
   85CHL1   C11 8730   4.314   5.946   7.202 -0.2733  0.2555  0.1870
   85CHL1  H11A 8731   4.307   6.057   7.195  0.1215  0.2289 -0.9587
   85CHL1  H11B 8732   4.410   5.910   7.159 -0.2451 -1.8569  1.8856
   85CHL1    C9 8733   4.185   5.893   7.128 -0.1141  0.3443 -0.0377
   85CHL1    H9 8734   4.207   5.784   7.118 -2.6816 -0.1576 -0.8678
   85CHL1   C10 8735   4.165   5.942   6.980  0.0231 -0.2570  0.3964
   85CHL1   C19 8736   4.143   6.094   6.975  0.3492 -0.0454  0.4614
   85CHL1  H19A 8737   4.242   6.138   6.995 -0.2404  1.8014 -0.5320
   85CHL1  H19B 8738   4.114   6.135   6.876  1.3417  0.0408  0.2027
   85CHL1  H19C 8739   4.080   6.137   7.056 -2.2234  1.0694 -1.9677
   85CHL1    C1 8740   4.304   5.898   6.908  1.3017 -0.2280 -0.7183
   85CHL1   H1A 8741   4.382   5.968   6.944  0.2850 -0.1704  1.5482
   85CHL1   H1B 8742   4.342   5.796   6.931 -0.5151 -0.4145  1.8957
   85CHL1    C2 8743   4.296   5.903   6.756  1.2864  0.3255  0.2366
   85CHL1   H2A 8744   4.393   5.868   6.715 -0.0587 -0.9756 -2.0858
   85CHL1   H2B 8745   4.275   6.008   6.725  0.8562 -0.5688 -2.8558
   85CHL1   C20 8746   4.267   5.935   7.671  0.6336  0.0520  0.3440
   85CHL1   H20 8747   4.199   6.018   7.701  0.7509  0.4070 -0.3725
   85CHL1   C21 8748   4.408   5.988   7.649 -0.0711 -0.1684 -0.6454
   85CHL1  H21A 8749   4.485   5.909   7.636  0.5534  0.0941  1.1203
   85CHL1  H21B 8750   4.435   6.052   7.736 -0.2242 -2.1397  0.9168
   85CHL1  H21C 8751   4.413   6.065   7.569  3.1441 -0.1895 -0.6164
   85CHL1   C22 8752   4.277   5.843   7.800  0.1638 -0.4064 -0.2570
   85CHL1  H22A 8753   4.308   5.917   7.878 -0.2060  0.3153 -0.7843
   85CHL1  H22B 8754   4.176   5.807   7.831 -0.7350  1.0932 -1.3219
   85CHL1   C23 8755   4.386   5.730   7.796  0.2360 -0.4176 -0.1641
   85CHL1  H23A 8756   4.390   5.674   7.700  3.6805 -1.8696  0.6888
   85CHL1  H23B 8757   4.480   5.789   7.792 -1.6325  2.8356  0.4823
   85CHL1   C24 8758   4.371   5.623   7.911 -0.1891 -0.6660  0.1194
   85CHL1  H24A 8759   4.296   5.544   7.886  2.2325 -2.7060 -1.0857
   85CHL1  H24B 8760   4.469   5.572   7.912 -0.1032 -0.4933  1.1927
   85CHL1   C25 8761   4.361   5.692   8.056  0.0482  0.1638  0.1370
   85CHL1   H25 8762   4.275   5.762   8.052  0.0784  0.1536 -2.5264
   85CHL1   C26 8763   4.333   5.584   8.161  0.0453  0.2172  0.8315
   85CHL1  H26A 8764   4.235   5.535   8.144 -0.9927  1.9979  1.3591
   85CHL1  H26B 8765   4.417   5.511   8.161  1.7842  2.0841 -0.2449
   85CHL1  H26C 8766   4.342   5.632   8.261  2.2052 -1.7659  1.6767
   85CHL1   C27 8767   4.492   5.759   8.109  0.0423 -0.7455  0.1904
   85CHL1  H27A 8768   4.520   5.845   8.044  1.2624 -1.2950 -0.0492
   85CHL1  H27B 8769   4.474   5.784   8.215 -3.2513  1.1710 -0.6877
   85CHL1  H27C 8770   4.582   5.695   8.094  0.9271 -0.0153  2.1689
   86CHL1    C3 8771   3.603   0.884   6.886 -0.2634  0.2703 -0.9777
   86CHL1    H3 8772   3.694   0.823   6.897 -0.4687  0.2383  0.7318
   86CHL1    O3 8773   3.554   0.886   6.754 -0.6607  0.5488 -0.4600
   86CHL1   H3' 8774   3.469   0.931   6.757 -0.4522  0.9090  1.2528
   86CHL1    C4 8775   3.487   0.820   6.977  0.3249 -0.2119  0.2110
   86CHL1   H4A 8776   3.391   0.867   6.947 -0.4117 -2.1530 -0.6840
   86CHL1   H4B 8777   3.488   0.715   6.939  0.8881 -0.8658  1.9118
   86CHL1    C5 8778   3.503   0.828   7.125 -0.5370 -0.3664 -0.2036
   86CHL1    C6 8779   3.509   0.717   7.195 -0.0719  0.2606 -0.3448
   86CHL1    H6 8780   3.469   0.631   7.140 -1.0616  1.7472 -2.0716
   86CHL1    C7 8781   3.520   0.710   7.345  1.3424  0.3038  0.8249
   86CHL1   H7A 8782   3.436   0.648   7.382  0.2488  0.7246 -0.8558
   86CHL1   H7B 8783   3.614   0.654   7.364  2.1532  0.2525 -2.7249
   86CHL1    C8 8784   3.512   0.852   7.415 -0.5713  0.3340  0.4467
   86CHL1    H8 8785   3.404   0.878   7.417 -0.3016  1.6547 -0.7105
   86CHL1   C14 8786   3.568   0.848   7.552  0.4150 -0.2407  0.8033
   86CHL1   H14 8787   3.676   0.825   7.543  0.2464 -0.4565 -1.1726
   86CHL1   C15 8788   3.509   0.735   7.631 -0.3861  0.1810  0.6682
   86CHL1  H15A 8789   3.401   0.728   7.604 -0.1702  0.5905 -0.3463
   86CHL1  H15B 8790   3.556   0.637   7.612 -2.2488 -0.3674 -1.5617
   86CHL1   C16 8791   3.515   0.783   7.780 -0.5688  0.2035 -0.8591
   86CHL1  H16A 8792   3.412   0.789   7.823 -0.4696  1.1377 -0.7298
   86CHL1  H16B 8793   3.570   0.707   7.839 -0.2209  1.3394  0.3494
   86CHL1   C17 8794   3.578   0.925   7.781 -0.1596 -0.2962  0.7633
   86CHL1   H17 8795   3.687   0.903   7.786  0.3867  2.3239  2.4974
   86CHL1   C13 8796   3.543   0.977   7.633 -0.4474  0.4923  0.1523
   86CHL1   C18 8797   3.391   1.019   7.629 -0.7916 -1.5249 -0.2435
   86CHL1  H18A 8798   3.358   1.039   7.525 -0.8962 -1.9962 -0.3003
   86CHL1  H18B 8799   3.328   0.945   7.682 -0.1186 -2.5394 -0.8263
   86CHL1  H18C 8800   3.392   1.117   7.683 -4.0136 -1.2756 -0.4886
   86CHL1   C12 8801   3.638   1.072   7.573 -0.3629 -0.1297  0.3502
   86CHL1  H12A 8802   3.625   1.175   7.612 -1.0004  0.1295 -0.5063
   86CHL1  H12B 8803   3.745   1.045   7.588 -0.2817 -0.4566 -0.7306
   86CHL1   C11 8804   3.613   1.088   7.417  0.0391 -0.3874  0.1285
   86CHL1  H11A 8805   3.524   1.154   7.409  0.0875 -0.4088 -0.7289
   86CHL1  H11B 8806   3.701   1.141   7.372  2.2461 -2.4982  1.7459
   86CHL1    C9 8807   3.588   0.954   7.336 -0.3343  0.3373 -0.5388
   86CHL1    H9 8808   3.689   0.908   7.335 -1.6314 -2.8576  1.4282
   86CHL1   C10 8809   3.551   0.969   7.182  0.3065  0.1040  0.2240
   86CHL1   C19 8810   3.420   1.057   7.177  0.2756  0.2703  0.2378
   86CHL1  H19A 8811   3.374   1.049   7.076  1.2996  0.1501 -0.2347
   86CHL1  H19B 8812   3.361   1.037   7.268  1.0522  1.6151  1.0743
   86CHL1  H19C 8813   3.445   1.164   7.196  0.2660 -0.3388  4.7374
   86CHL1    C1 8814   3.664   1.027   7.089  0.0059 -0.1449 -0.3562
   86CHL1   H1A 8815   3.677   1.130   7.130  0.8255 -0.7820  1.0420
   86CHL1   H1B 8816   3.762   0.976   7.093 -0.3564 -0.7757  1.4733
   86CHL1    C2 8817   3.632   1.024   6.935 -0.2732 -0.2312 -0.3378
   86CHL1   H2A 8818   3.723   1.065   6.885 -1.2678  1.2701 -0.9897
   86CHL1   H2B 8819   3.548   1.094   6.914  0.0714  0.3713  0.2310
   86CHL1   C20 8820   3.537   1.011   7.899  0.1996 -0.3337 -0.1331
   86CHL1   H20 8821   3.427   1.023   7.895  0.3019  1.1895  0.9198
   86CHL1   C21 8822   3.605   1.156   7.876  0.3046 -0.0354 -0.0461
   86CHL1  H21A 8823   3.595   1.202   7.976  0.6956 -0.9889  0.4470
   86CHL1  H21B 8824   3.558   1.226   7.803  0.3288  2.6686  2.3762
   86CHL1  H21C 8825   3.712   1.130   7.864  0.5676  1.5619 -1.4294
   86CHL1   C22 8826   3.582   0.943   8.036  0.3469  0.3655 -0.0991
   86CHL1  H22A 8827   3.542   0.840   8.030  3.0754 -0.6934 -3.7260
   86CHL1  H22B 8828   3.688   0.912   8.034 -0.5218 -2.9788 -0.8979
   86CHL1   C23 8829   3.547   1.014   8.166 -0.0751  0.2669 -0.2206
   86CHL1  H23A 8830   3.608   1.107   8.169  0.2549  0.1370 -1.8939
   86CHL1  H23B 8831   3.442   1.049   8.168  0.2034  1.1076  0.2972
   86CHL1   C24 8832   3.559   0.914   8.280 -0.1420 -0.2871 -0.4830
   86CHL1  H24A 8833   3.531   0.812   8.246 -0.2285  0.0136 -1.3267
   86CHL1  H24B 8834   3.661   0.910   8.324 -0.0850  0.3908 -0.5558
   86CHL1   C25 8835   3.467   0.953   8.398 -0.2741  0.1030  0.2670
   86CHL1   H25 8836   3.364   0.965   8.358  0.2242  2.0880 -0.5733
   86CHL1   C26 8837   3.462   0.836   8.509 -0.0875  0.1008 -0.0890
   86CHL1  H26A 8838   3.560   0.833   8.563 -0.3235  0.8751  0.3968
   86CHL1  H26B 8839   3.380   0.859   8.580 -0.8403  0.5318 -1.0731
   86CHL1  H26C 8840   3.419   0.743   8.466  0.2343  0.0621 -0.3328
   86CHL1   C27 8841   3.492   1.085   8.458  0.7407 -0.7729  0.6121
   86CHL1  H27A 8842   3.413   1.096   8.536  0.5983  0.5985  0.3017
   86CHL1  H27B 8843   3.594   1.095   8.501  0.7845  2.3942  0.0363
   86CHL1  H27C 8844   3.473   1.173   8.393 -1.7269 -0.3564  1.7624
   87CHL1    C3 8845   0.341   1.838   6.962 -0.5073  0.4899 -0.2377
   87CHL1    H3 8846   0.337   1.944   6.994  1.9727  0.9005 -1.0390
   87CHL1    O3 8847   0.296   1.829   6.831  1.0476  0.6778 -0.0871
   87CHL1   H3' 8848   0.302   1.734   6.817 -0.8762  0.4470  0.3496
   87CHL1    C4 8849   0.487   1.800   6.970 -0.2819 -0.3545 -0.2991
   87CHL1   H4A 8850   0.482   1.691   6.951 -3.9593 -0.4485  0.3591
   87CHL1   H4B 8851   0.541   1.855   6.890  0.1401  0.0064  0.2275
   87CHL1    C5 8852   0.528   1.823   7.111  0.2273 -0.9491 -0.3297
   87CHL1    C6 8853   0.627   1.913   7.141 -0.1818 -0.0249  0.7407
   87CHL1    H6 8854   0.659   1.983   7.063 -1.9664 -0.3660 -0.3746
   87CHL1    C7 8855   0.675   1.927   7.281 -0.3313 -0.1653 -0.1086
   87CHL1   H7A 8856   0.786   1.932   7.274 -0.1360 -1.1590  1.7786
   87CHL1   H7B 8857   0.642   2.024   7.325  1.2772  1.5413 -2.3834
   87CHL1    C8 8858   0.632   1.819   7.379  1.0504 -0.0864  0.0293
   87CHL1    H8 8859   0.690   1.727   7.358  1.7288  0.6915 -1.6736
   87CHL1   C14 8860   0.665   1.867   7.522 -0.6248 -0.5058 -0.1474
   87CHL1   H14 8861   0.601   1.955   7.542 -1.2773 -0.7412 -1.1275
   87CHL1   C15 8862   0.807   1.902   7.547 -0.0921  0.3231 -0.0224
   87CHL1  H15A 8863   0.870   1.815   7.517 -0.8172 -0.4404  0.6497
   87CHL1  H15B 8864   0.851   1.984   7.485  2.4652 -0.5198  0.5763
   87CHL1   C16 8865   0.812   1.918   7.700  0.3226  0.7465 -0.2218
   87CHL1  H16A 8866   0.905   1.884   7.749 -1.1103 -1.8825  0.9196
   87CHL1  H16B 8867   0.794   2.021   7.737  0.7495  0.5583  0.5273
   87CHL1   C17 8868   0.684   1.846   7.759 -0.0973  0.5380  0.2457
   87CHL1   H17 8869   0.610   1.919   7.796  0.1742  1.9733 -1.8746
   87CHL1   C13 8870   0.626   1.772   7.633 -0.0552  1.0362 -0.2311
   87CHL1   C18 8871   0.707   1.641   7.614 -0.2248 -0.0148 -0.5727
   87CHL1  H18A 8872   0.683   1.597   7.515 -0.1781 -0.0250 -0.5798
   87CHL1  H18B 8873   0.817   1.658   7.621 -0.4094  0.5153  2.1212
   87CHL1  H18C 8874   0.688   1.569   7.697  0.7014  2.0993  1.6104
   87CHL1   C12 8875   0.478   1.738   7.624 -0.3233 -0.3008  0.1494
   87CHL1  H12A 8876   0.450   1.672   7.709 -0.6179  1.1635  1.2333
   87CHL1  H12B 8877   0.425   1.834   7.642 -0.5517 -0.6413  1.4198
   87CHL1   C11 8878   0.433   1.693   7.478  0.2166 -0.4073  0.3463
   87CHL1  H11A 8879   0.464   1.589   7.453 -1.4359 -0.8627  0.0670
   87CHL1  H11B 8880   0.322   1.689   7.482  0.0973  2.1967  0.9371
   87CHL1    C9 8881   0.482   1.788   7.366  0.2902 -0.3468 -0.3422
   87CHL1    H9 8882   0.438   1.887   7.389  1.4958  0.0830  0.1870
   87CHL1   C10 8883   0.448   1.744   7.219 -0.2777 -0.4240 -0.0255
   87CHL1   C19 8884   0.482   1.594   7.197 -0.0455  0.9315 -0.0402
   87CHL1  H19A 8885   0.490   1.563   7.090 -3.8260 -0.9793  0.0525
   87CHL1  H19B 8886   0.583   1.574   7.238  0.8230  0.8327 -2.1075
   87CHL1  H19C 8887   0.410   1.522   7.242 -1.5912  1.0920 -2.0660
   87CHL1    C1 8888   0.299   1.770   7.198 -0.1358  0.3587  0.2463
   87CHL1   H1A 8889   0.236   1.712   7.268 -1.2197 -0.5086 -1.3959
   87CHL1   H1B 8890   0.284   1.877   7.224 -0.4404  1.0064 -2.3277
   87CHL1    C2 8891   0.254   1.749   7.051  0.5522  0.0843  0.2011
   87CHL1   H2A 8892   0.152   1.788   7.033  0.5471 -0.0779 -0.1444
   87CHL1   H2B 8893   0.262   1.640   7.028  1.8017 -0.9726  4.7066
   87CHL1   C20 8894   0.715   1.770   7.890 -0.1329  0.1615  0.0720
   87CHL1   H20 8895   0.771   1.680   7.856 -0.4675  1.3462 -4.0849
   87CHL1   C21 8896   0.581   1.735   7.953  0.4973  0.0604  0.2562
   87CHL1  H21A 8897   0.518   1.822   7.983 -1.1606 -1.5146  1.5379
   87CHL1  H21B 8898   0.609   1.690   8.050 -1.2095  1.1310  1.2994
   87CHL1  H21C 8899   0.529   1.654   7.898  1.3863 -0.8789  0.7645
   87CHL1   C22 8900   0.807   1.843   7.997 -0.1528 -0.4164 -0.7145
   87CHL1  H22A 8901   0.825   1.778   8.085 -0.2243 -0.0479 -0.4239
   87CHL1  H22B 8902   0.902   1.873   7.949 -0.6843 -0.8356 -2.0828
   87CHL1   C23 8903   0.748   1.970   8.061  0.7502 -0.3280  0.3208
   87CHL1  H23A 8904   0.711   2.044   7.987 -0.4773 -2.0666 -0.8858
   87CHL1  H23B 8905   0.653   1.943   8.113 -0.1292  1.8077 -0.0743
   87CHL1   C24 8906   0.834   2.039   8.173 -0.1654 -0.4561  0.3029
   87CHL1  H24A 8907   0.863   1.956   8.241  0.9657 -0.6528 -0.3795
   87CHL1  H24B 8908   0.923   2.086   8.124  0.0080 -1.1402 -0.0477
   87CHL1   C25 8909   0.758   2.144   8.257 -0.5237  0.6873 -0.2403
   87CHL1   H25 8910   0.826   2.189   8.332  1.5789 -0.0548 -1.6052
   87CHL1   C26 8911   0.708   2.264   8.174 -0.0215  0.4555  0.0641
   87CHL1  H26A 8912   0.646   2.324   8.244 -4.3436 -1.0187 -2.1410
   87CHL1  H26B 8913   0.782   2.331   8.126 -1.4152  0.5024 -2.1427
   87CHL1  H26C 8914   0.640   2.229   8.093 -0.5411  0.8049  0.3407
   87CHL1   C27 8915   0.642   2.070   8.327  0.1445 -1.1029 -0.1302
   87CHL1  H27A 8916   0.568   2.028   8.256  0.0307  0.1377 -0.7735
   87CHL1  H27B 8917   0.688   1.991   8.390  1.4395 -0.1359  0.1990
   87CHL1  H27C 8918   0.601   2.147   8.396  2.4630 -1.6142  1.9867
   88CHL1    C3 8919   5.644   4.004   6.760  0.3324  0.0315 -0.0043
   88CHL1    H3 8920   5.550   3.947   6.748 -0.7575  0.9855  3.0047
   88CHL1    O3 8921   5.681   4.060   6.638 -0.5409 -0.4078  0.0920
   88CHL1   H3' 8922   5.775   4.043   6.631 -0.3008  0.2880  1.3216
   88CHL1    C4 8923   5.633   4.114   6.859  0.0707  0.0996 -0.2647
   88CHL1   H4A 8924   5.730   4.168   6.867 -0.1244  0.3340  0.6467
   88CHL1   H4B 8925   5.561   4.192   6.829  0.7275  1.1981  0.9271
   88CHL1    C5 8926   5.590   4.053   6.991 -1.0455 -0.5984  0.0356
   88CHL1    C6 8927   5.472   4.075   7.054 -0.0338  0.1461 -0.2286
   88CHL1    H6 8928   5.404   4.143   7.000 -0.2116 -1.6165 -2.3735
   88CHL1    C7 8929   5.429   4.031   7.194  0.7061  0.4526  0.3589
   88CHL1   H7A 8930   5.376   4.113   7.248  1.2672  1.2120 -0.2336
   88CHL1   H7B 8931   5.359   3.947   7.171  2.9679 -1.6057  0.6280
   88CHL1    C8 8932   5.561   3.976   7.269  0.6043 -0.4012  0.1285
   88CHL1    H8 8933   5.627   4.063   7.293  0.4250  0.2633 -1.6507
   88CHL1   C14 8934   5.525   3.912   7.398  0.8708 -0.5764  0.4350
   88CHL1   H14 8935   5.468   3.820   7.373 -1.8464 -0.5090  5.1762
   88CHL1   C15 8936   5.437   3.984   7.503 -0.3823 -0.3607 -0.6834
   88CHL1  H15A 8937   5.489   4.081   7.523 -1.8092  0.3398 -0.2462
   88CHL1  H15B 8938   5.339   4.006   7.455  1.2972 -0.1600 -4.3674
   88CHL1   C16 8939   5.439   3.899   7.630  0.1831 -0.6761 -0.3338
   88CHL1  H16A 8940   5.447   3.966   7.718  0.9839  0.5911 -1.3350
   88CHL1  H16B 8941   5.342   3.852   7.656 -0.9784  1.6845 -0.1455
   88CHL1   C17 8942   5.561   3.804   7.603 -0.3631 -0.3253  0.1088
   88CHL1   H17 8943   5.525   3.703   7.574  1.6009 -0.5796 -1.7181
   88CHL1   C13 8944   5.638   3.848   7.479  0.4279 -0.4135 -0.2902
   88CHL1   C18 8945   5.745   3.960   7.519 -0.0786  0.1154  0.2116
   88CHL1  H18A 8946   5.820   3.913   7.587 -1.3764 -2.0101  0.2541
   88CHL1  H18B 8947   5.794   4.003   7.429 -1.3192  2.6882  0.6656
   88CHL1  H18C 8948   5.699   4.041   7.580 -0.3648 -0.3256  0.5903
   88CHL1   C12 8949   5.695   3.739   7.383 -0.9379  0.3865 -0.4613
   88CHL1  H12A 8950   5.779   3.686   7.432  0.0138  1.3773 -0.9807
   88CHL1  H12B 8951   5.625   3.653   7.369 -1.2082  0.0153  2.4991
   88CHL1   C11 8952   5.744   3.792   7.242 -0.2392  0.6138 -0.1553
   88CHL1  H11A 8953   5.828   3.860   7.268  0.2900  0.9580 -2.5740
   88CHL1  H11B 8954   5.780   3.705   7.184  0.2462 -0.2518  1.3741
   88CHL1    C9 8955   5.635   3.880   7.177  0.2020  1.1232  0.0776
   88CHL1    H9 8956   5.560   3.803   7.149 -1.3288  2.1922  1.0249
   88CHL1   C10 8957   5.690   3.957   7.050 -0.0960 -0.3583 -0.6395
   88CHL1   C19 8958   5.813   4.040   7.088 -0.4140 -0.8517 -0.0221
   88CHL1  H19A 8959   5.857   4.108   7.012 -0.8754  0.2686  0.6910
   88CHL1  H19B 8960   5.791   4.113   7.168  0.7251  0.7198 -1.0911
   88CHL1  H19C 8961   5.900   3.976   7.114  0.3843  0.5958  0.9761
   88CHL1    C1 8962   5.723   3.850   6.937 -1.4126  0.6058 -0.2405
   88CHL1   H1A 8963   5.800   3.773   6.960  0.1267  2.4746  1.2434
   88CHL1   H1B 8964   5.632   3.788   6.924 -0.5272 -1.0592  1.1493
   88CHL1    C2 8965   5.769   3.905   6.797  0.5252  0.0671 -0.2061
   88CHL1   H2A 8966   5.768   3.814   6.733 -1.0441  0.8157 -1.3241
   88CHL1   H2B 8967   5.865   3.961   6.796  0.0202  1.0385  1.3938
   88CHL1   C20 8968   5.645   3.777   7.735  0.0020  0.0229  0.1734
   88CHL1   H20 8969   5.682   3.877   7.765 -0.3490  0.0312  0.6020
   88CHL1   C21 8970   5.762   3.672   7.714  0.3091  0.1434  0.0221
   88CHL1  H21A 8971   5.832   3.715   7.639  2.3898  0.2103  1.9273
   88CHL1  H21B 8972   5.729   3.570   7.686  1.1624 -0.6135  1.7195
   88CHL1  H21C 8973   5.809   3.676   7.814  0.0990  1.6435  0.0900
   88CHL1   C22 8974   5.549   3.745   7.857 -0.3235  0.5726 -0.6157
   88CHL1  H22A 8975   5.482   3.832   7.872 -2.5940 -1.1414 -0.2663
   88CHL1  H22B 8976   5.487   3.658   7.829  1.7986 -1.3563  0.3012
   88CHL1   C23 8977   5.622   3.720   7.993  0.1481  0.1429 -0.5623
   88CHL1  H23A 8978   5.685   3.629   7.985 -1.1750 -0.7627 -1.0591
   88CHL1  H23B 8979   5.680   3.810   8.024 -0.5773  0.6395 -0.6398
   88CHL1   C24 8980   5.520   3.688   8.105 -0.1145 -0.1684 -0.8756
   88CHL1  H24A 8981   5.473   3.784   8.137 -1.3042 -1.3152  1.0232
   88CHL1  H24B 8982   5.440   3.623   8.066  0.2574 -0.2361 -1.5366
   88CHL1   C25 8983   5.592   3.633   8.230 -0.0513  0.4860  0.2332
   88CHL1   H25 8984   5.690   3.683   8.244  0.3326 -0.3757  0.7515
   88CHL1   C26 8985   5.532   3.661   8.365  1.0164  0.4948 -0.3938
   88CHL1  H26A 8986   5.528   3.771   8.374 -0.8586  0.4764 -0.5479
   88CHL1  H26B 8987   5.429   3.620   8.371  0.2982  1.6108 -3.4880
   88CHL1  H26C 8988   5.589   3.629   8.455 -1.0386  2.0803  1.5595
   88CHL1   C27 8989   5.627   3.480   8.220 -0.1328 -1.3167 -0.2926
   88CHL1  H27A 8990   5.664   3.454   8.119 -0.7461  0.1671 -0.9260
   88CHL1  H27B 8991   5.688   3.448   8.307 -0.8175  2.6109  1.8438
   88CHL1  H27C 8992   5.536   3.421   8.246 -1.6748  0.5677 -1.1251
   89CHL1    C3 8993   1.520   1.793   6.986 -0.1529 -0.7117  0.1974
   89CHL1    H3 8994   1.447   1.869   7.020  1.1549 -0.4425  2.6927
   89CHL1    O3 8995   1.529   1.807   6.848  0.3839 -0.1686 -0.0839
   89CHL1   H3' 8996   1.602   1.866   6.827 -0.2213  1.3595  1.8303
   89CHL1    C4 8997   1.659   1.825   7.042  0.6024 -0.2244 -0.9209
   89CHL1   H4A 8998   1.730   1.754   6.993  0.0394 -0.8666 -0.8070
   89CHL1   H4B 8999   1.684   1.926   7.002 -1.7331  1.1790  0.9150
   89CHL1    C5 9000   1.662   1.811   7.194  0.2753  0.2808 -0.0565
   89CHL1    C6 9001   1.701   1.911   7.274  0.0901  0.2788 -0.2608
   89CHL1    H6 9002   1.725   2.013   7.240 -3.6677  1.9305  1.4809
   89CHL1    C7 9003   1.692   1.909   7.420  0.0739  0.1787 -0.5424
   89CHL1   H7A 9004   1.780   1.963   7.459 -0.0863  1.4033 -1.8012
   89CHL1   H7B 9005   1.595   1.955   7.451 -2.0882 -2.4256 -2.8318
   89CHL1    C8 9006   1.679   1.762   7.476 -0.1870  0.3348  1.0724
   89CHL1    H8 9007   1.779   1.717   7.464  0.7565  2.7137 -0.9269
   89CHL1   C14 9008   1.634   1.767   7.619  0.1399  0.9866 -0.3283
   89CHL1   H14 9009   1.533   1.813   7.623  0.3693  1.5711 -1.1268
   89CHL1   C15 9010   1.715   1.868   7.702  0.2606  0.3206 -0.2657
   89CHL1  H15A 9011   1.825   1.864   7.691  0.5300 -1.0462  2.0349
   89CHL1  H15B 9012   1.686   1.973   7.682 -1.1388 -0.0074 -0.1197
   89CHL1   C16 9013   1.690   1.819   7.849  0.1167  0.8768 -0.1186
   89CHL1  H16A 9014   1.784   1.806   7.906 -0.2549 -0.0630  0.3070
   89CHL1  H16B 9015   1.625   1.887   7.909  0.1211  0.2767  0.5831
   89CHL1   C17 9016   1.621   1.677   7.837 -0.5572 -0.3616  0.0435
   89CHL1   H17 9017   1.514   1.699   7.853 -0.3444 -0.2153  1.3537
   89CHL1   C13 9018   1.634   1.631   7.687  0.4322 -1.0664 -0.4020
   89CHL1   C18 9019   1.770   1.570   7.681 -1.0578  0.0460 -0.2211
   89CHL1  H18A 9020   1.808   1.557   7.577 -0.7652  0.2316 -0.1372
   89CHL1  H18B 9021   1.841   1.641   7.728  0.7597 -0.3308 -2.2248
   89CHL1  H18C 9022   1.787   1.479   7.742  1.1587  0.7580  0.2982
   89CHL1   C12 9023   1.529   1.543   7.620  0.5986  0.7063  0.2562
   89CHL1  H12A 9024   1.527   1.441   7.664 -0.6478  1.2046  1.4393
   89CHL1  H12B 9025   1.429   1.586   7.641  0.5594  1.5396 -1.4958
   89CHL1   C11 9026   1.557   1.534   7.466 -0.4217  0.4779 -0.3319
   89CHL1  H11A 9027   1.647   1.470   7.449 -0.8689  0.0309 -1.0238
   89CHL1  H11B 9028   1.477   1.491   7.403  0.7638 -0.6226 -1.1439
   89CHL1    C9 9029   1.576   1.677   7.400  0.1980  0.1227 -0.3845
   89CHL1    H9 9030   1.478   1.728   7.412 -0.3927 -1.2179  0.7602
   89CHL1   C10 9031   1.598   1.677   7.244 -0.0530 -0.2864  0.1296
   89CHL1   C19 9032   1.704   1.569   7.216 -0.6797 -0.9680  0.0700
   89CHL1  H19A 9033   1.740   1.582   7.112 -0.8858 -0.7230  0.0272
   89CHL1  H19B 9034   1.790   1.593   7.282 -1.0031  0.5340  0.0017
   89CHL1  H19C 9035   1.662   1.468   7.235 -0.8747 -0.7118  1.0785
   89CHL1    C1 9036   1.475   1.634   7.176  0.1771 -0.7315 -0.2980
   89CHL1   H1A 9037   1.450   1.528   7.200 -1.0512 -0.7317 -1.4337
   89CHL1   H1B 9038   1.400   1.695   7.231  1.7159  0.3630  0.6507
   89CHL1    C2 9039   1.477   1.649   7.023 -0.2367  0.2099 -0.3524
   89CHL1   H2A 9040   1.376   1.624   6.984  0.0361  0.6382 -1.3790
   89CHL1   H2B 9041   1.550   1.579   6.977  0.0182 -0.0129  0.3691
   89CHL1   C20 9042   1.657   1.580   7.950  0.9324  0.1641 -0.2558
   89CHL1   H20 9043   1.765   1.554   7.941  1.2062  0.2720  2.1631
   89CHL1   C21 9044   1.580   1.450   7.938  0.1526 -0.3826 -0.4316
   89CHL1  H21A 9045   1.473   1.470   7.916  0.1905  0.4688  0.0986
   89CHL1  H21B 9046   1.572   1.394   8.034  0.1303 -1.1673 -0.8780
   89CHL1  H21C 9047   1.637   1.391   7.864 -2.2414 -0.9713 -1.9016
   89CHL1   C22 9048   1.634   1.643   8.093 -0.1028  0.0938 -0.6916
   89CHL1  H22A 9049   1.671   1.569   8.167  1.5929  1.1864 -0.4011
   89CHL1  H22B 9050   1.696   1.735   8.098 -1.1362  0.7680  0.0315
   89CHL1   C23 9051   1.487   1.678   8.124 -0.5806 -0.6468  0.6120
   89CHL1  H23A 9052   1.457   1.758   8.054  1.2317  1.6362  2.2875
   89CHL1  H23B 9053   1.427   1.584   8.130 -0.8185 -0.4116  3.7654
   89CHL1   C24 9054   1.482   1.742   8.262 -0.0623  0.0859  0.3517
   89CHL1  H24A 9055   1.510   1.663   8.335  1.4001 -0.8871 -1.1789
   89CHL1  H24B 9056   1.562   1.820   8.262  0.8612 -0.7587  2.7250
   89CHL1   C25 9057   1.345   1.820   8.301 -0.0595  0.3490  0.2981
   89CHL1   H25 9058   1.264   1.748   8.279  2.6795 -2.7850 -0.3404
   89CHL1   C26 9059   1.342   1.857   8.450  0.5495  0.7363 -0.3701
   89CHL1  H26A 9060   1.415   1.938   8.466  0.1120  1.0623 -0.0092
   89CHL1  H26B 9061   1.240   1.891   8.478 -0.6119 -2.9111  0.4468
   89CHL1  H26C 9062   1.364   1.771   8.518 -3.3620 -1.3348 -1.4124
   89CHL1   C27 9063   1.327   1.949   8.217  0.1201 -0.0444  0.5601
   89CHL1  H27A 9064   1.412   2.014   8.248 -0.8508  1.1961  0.7086
   89CHL1  H27B 9065   1.346   1.929   8.109  0.1633  0.6630  0.4307
   89CHL1  H27C 9066   1.226   1.994   8.223  0.4765  0.8655 -0.0742
   90CHL1    C3 9067   2.563   2.856   6.868  0.3444 -0.1171 -0.1099
   90CHL1    H3 9068   2.658   2.912   6.874  0.9913 -1.0633 -1.0883
   90CHL1    O3 9069   2.552   2.813   6.737  0.3893 -0.2705  0.2977
   90CHL1   H3' 9070   2.482   2.749   6.727  1.2236 -0.9164 -2.2087
   90CHL1    C4 9071   2.557   2.740   6.967  0.0424  0.5486 -0.5354
   90CHL1   H4A 9072   2.467   2.678   6.948  1.4866 -1.6143 -0.6707
   90CHL1   H4B 9073   2.644   2.679   6.935  0.7550  0.3615  1.5644
   90CHL1    C5 9074   2.576   2.781   7.113  0.3956  0.3642 -0.2477
   90CHL1    C6 9075   2.677   2.735   7.192  0.4644 -0.3445  0.8530
   90CHL1    H6 9076   2.750   2.662   7.155 -0.7666 -0.9057 -0.5823
   90CHL1    C7 9077   2.702   2.775   7.332 -0.3875  0.1488 -0.6199
   90CHL1   H7A 9078   2.715   2.687   7.399 -1.0478  0.5630  0.0789
   90CHL1   H7B 9079   2.793   2.838   7.335 -0.9863  1.0616 -1.0536
   90CHL1    C8 9080   2.583   2.856   7.394 -0.6715 -0.5390 -0.2704
   90CHL1    H8 9081   2.505   2.786   7.430 -0.8141  0.2399  0.9681
   90CHL1   C14 9082   2.638   2.941   7.506  0.1970 -0.1675  0.7090
   90CHL1   H14 9083   2.710   3.009   7.455  1.4142 -2.8492 -1.4263
   90CHL1   C15 9084   2.720   2.865   7.610  0.1270  0.4843 -0.4096
   90CHL1  H15A 9085   2.670   2.773   7.647  0.8480  0.3688  0.3243
   90CHL1  H15B 9086   2.823   2.832   7.583 -0.1078  0.4321 -1.2636
   90CHL1   C16 9087   2.716   2.964   7.729  0.9206 -0.0605 -0.5938
   90CHL1  H16A 9088   2.672   2.901   7.809  3.6934 -0.4258  0.7604
   90CHL1  H16B 9089   2.815   3.006   7.757 -0.8189  4.0536  0.1727
   90CHL1   C17 9090   2.631   3.087   7.688  0.6561  0.0728 -0.5223
   90CHL1   H17 9091   2.704   3.143   7.626  0.3295 -0.8766 -1.8065
   90CHL1   C13 9092   2.536   3.028   7.575 -0.5909 -0.3707  0.0883
   90CHL1   C18 9093   2.434   2.948   7.652 -0.1177 -0.4375  0.0073
   90CHL1  H18A 9094   2.472   2.873   7.725 -2.7530 -1.1510  0.7698
   90CHL1  H18B 9095   2.366   3.011   7.713 -0.5632 -0.9628  0.0575
   90CHL1  H18C 9096   2.362   2.900   7.583 -1.8563  0.9872  0.7419
   90CHL1   C12 9097   2.469   3.126   7.473 -0.1132 -0.0097 -0.6791
   90CHL1  H12A 9098   2.391   3.195   7.514 -1.0251  0.2426 -2.7253
   90CHL1  H12B 9099   2.549   3.184   7.423 -1.7527  1.2162 -1.9801
   90CHL1   C11 9100   2.418   3.048   7.355 -0.1204 -0.1003  0.4698
   90CHL1  H11A 9101   2.325   3.003   7.395 -1.6732  4.4266  2.6892
   90CHL1  H11B 9102   2.401   3.126   7.278  2.5039 -1.2039 -1.3774
   90CHL1    C9 9103   2.526   2.959   7.291 -0.2380  0.0076 -0.4363
   90CHL1    H9 9104   2.611   3.024   7.260 -0.7176  0.9619  0.1805
   90CHL1   C10 9105   2.477   2.895   7.157 -0.4102  0.0567  0.0363
   90CHL1   C19 9106   2.344   2.830   7.171 -0.0662  0.0269  0.2171
   90CHL1  H19A 9107   2.268   2.902   7.209 -1.1157 -1.3945  0.8856
   90CHL1  H19B 9108   2.305   2.797   7.072  0.0823 -1.1718  0.5436
   90CHL1  H19C 9109   2.343   2.739   7.234  0.4831  0.0386  0.2445
   90CHL1    C1 9110   2.463   3.008   7.046 -0.2952  0.0991 -0.3852
   90CHL1   H1A 9111   2.373   3.064   7.077  1.1965  1.1333  2.4642
   90CHL1   H1B 9112   2.549   3.076   7.058  0.9580 -1.2579 -1.2612
   90CHL1    C2 9113   2.456   2.954   6.898  0.1729  0.5965  0.1554
   90CHL1   H2A 9114   2.451   3.034   6.821 -1.0458 -0.5295 -0.9991
   90CHL1   H2B 9115   2.365   2.891   6.882  0.4855  0.2376 -0.2151
   90CHL1   C20 9116   2.580   3.172   7.795  0.1099  0.4703  0.7818
   90CHL1   H20 9117   2.475   3.144   7.815 -0.7443  0.4366 -3.0009
   90CHL1   C21 9118   2.571   3.317   7.738 -0.0377 -0.3003 -0.1482
   90CHL1  H21A 9119   2.543   3.392   7.815 -0.1446  1.7873 -2.1088
   90CHL1  H21B 9120   2.486   3.317   7.667 -0.4394  2.4195  0.2349
   90CHL1  H21C 9121   2.668   3.348   7.693  1.9204 -0.7800  3.3434
   90CHL1   C22 9122   2.664   3.167   7.925 -0.3652  0.0577  0.1091
   90CHL1  H22A 9123   2.712   3.074   7.963  0.4869  0.1860 -0.6074
   90CHL1  H22B 9124   2.755   3.228   7.902 -1.2735  1.3452 -0.1854
   90CHL1   C23 9125   2.593   3.223   8.044  0.1867 -0.8248 -0.0536
   90CHL1  H23A 9126   2.565   3.328   8.019 -1.6254 -1.5955 -1.4863
   90CHL1  H23B 9127   2.497   3.168   8.048 -0.8010  0.7411 -0.8831
   90CHL1   C24 9128   2.667   3.208   8.177 -0.5856 -0.2176  0.4880
   90CHL1  H24A 9129   2.678   3.102   8.211  0.1367 -1.1378 -2.3227
   90CHL1  H24B 9130   2.767   3.247   8.150 -0.6858 -0.8519 -0.8835
   90CHL1   C25 9131   2.601   3.285   8.306 -0.4127  0.3151  1.2895
   90CHL1   H25 9132   2.594   3.392   8.278 -2.1195 -0.4900 -1.9442
   90CHL1   C26 9133   2.459   3.243   8.339 -0.4969 -0.0005  0.1141
   90CHL1  H26A 9134   2.421   3.311   8.418  0.8588  1.6236 -0.5780
   90CHL1  H26B 9135   2.391   3.249   8.251  0.4522  1.0356 -0.5727
   90CHL1  H26C 9136   2.449   3.136   8.368 -1.3722  0.3412  1.1214
   90CHL1   C27 9137   2.680   3.253   8.433  0.8344 -0.1129  0.3922
   90CHL1  H27A 9138   2.673   3.145   8.457 -2.9825  0.2714  1.6396
   90CHL1  H27B 9139   2.785   3.287   8.425  1.3556 -1.0972  2.3434
   90CHL1  H27C 9140   2.641   3.300   8.526 -0.5144 -1.0949  0.3557
   91CHL1    C3 9141   3.223   5.592   7.186  0.2199 -0.3596 -0.4703
   91CHL1    H3 9142   3.115   5.566   7.190 -0.5701  2.7431  0.6266
   91CHL1    O3 9143   3.257   5.652   7.064 -0.2422 -0.5808  0.6390
   91CHL1   H3' 9144   3.195   5.606   7.006  0.4208  0.5295 -1.0185
   91CHL1    C4 9145   3.268   5.681   7.303  0.0839 -0.3557 -0.3088
   91CHL1   H4A 9146   3.377   5.700   7.294  0.0984  2.1497  3.1171
   91CHL1   H4B 9147   3.215   5.778   7.291 -2.2676 -1.2296  2.0887
   91CHL1    C5 9148   3.261   5.622   7.437 -0.0680 -0.6204 -0.0239
   91CHL1    C6 9149   3.187   5.692   7.530  0.0564  0.5428  0.1099
   91CHL1    H6 9150   3.160   5.798   7.518 -0.0855  0.4062 -0.8689
   91CHL1    C7 9151   3.143   5.633   7.658  0.2251 -0.2418  0.0172
   91CHL1   H7A 9152   3.152   5.713   7.735 -1.6059  1.3964 -1.3451
   91CHL1   H7B 9153   3.035   5.606   7.653  0.1729 -0.3192  1.4134
   91CHL1    C8 9154   3.238   5.510   7.696  0.1089 -0.1022 -0.2823
   91CHL1    H8 9155   3.343   5.543   7.706 -0.1319  0.3788  0.7218
   91CHL1   C14 9156   3.183   5.455   7.828  0.6158 -0.3468  0.8368
   91CHL1   H14 9157   3.077   5.438   7.801  0.3654  1.7509  0.3268
   91CHL1   C15 9158   3.179   5.549   7.944  0.6642 -0.6955  0.4396
   91CHL1  H15A 9159   3.280   5.596   7.943  0.3168  0.1238 -1.5121
   91CHL1  H15B 9160   3.102   5.629   7.948  1.1213 -0.2945  2.7790
   91CHL1   C16 9161   3.174   5.457   8.067  0.2520  0.0444 -0.4812
   91CHL1  H16A 9162   3.266   5.473   8.128 -1.2540  2.6266  1.3118
   91CHL1  H16B 9163   3.085   5.472   8.132  1.2576  1.0923  0.7270
   91CHL1   C17 9164   3.177   5.309   8.008  0.4857 -0.6640 -0.0962
   91CHL1   H17 9165   3.071   5.286   7.984  0.8949  0.2466 -3.2906
   91CHL1   C13 9166   3.250   5.328   7.870  0.2408  0.1205  0.6254
   91CHL1   C18 9167   3.404   5.348   7.890  0.2256 -0.1356 -0.3729
   91CHL1  H18A 9168   3.414   5.433   7.961 -0.1993  1.8831 -2.5840
   91CHL1  H18B 9169   3.450   5.252   7.922 -1.0103 -1.1880 -1.6234
   91CHL1  H18C 9170   3.462   5.386   7.803 -1.7832  2.8267 -0.5969
   91CHL1   C12 9171   3.226   5.229   7.752 -0.4782 -0.5419 -1.0626
   91CHL1  H12A 9172   3.263   5.126   7.771  2.7582  1.0097  2.3329
   91CHL1  H12B 9173   3.116   5.232   7.737 -0.4429  0.0350 -1.2180
   91CHL1   C11 9174   3.283   5.269   7.612 -0.3524 -0.5376 -0.0084
   91CHL1  H11A 9175   3.393   5.279   7.614 -0.2163 -1.5661 -1.3111
   91CHL1  H11B 9176   3.247   5.198   7.534 -0.0891 -1.3011  0.5542
   91CHL1    C9 9177   3.236   5.414   7.578  0.2322 -0.4680  0.3910
   91CHL1    H9 9178   3.128   5.405   7.552  0.1431 -0.1128  0.6409
   91CHL1   C10 9179   3.302   5.476   7.454  0.9576  0.5704  0.2087
   91CHL1   C19 9180   3.454   5.486   7.465 -1.4595  0.2028  0.0095
   91CHL1  H19A 9181   3.495   5.531   7.372  0.6155  1.0154  1.2661
   91CHL1  H19B 9182   3.497   5.549   7.546 -0.0455  1.0907 -1.3730
   91CHL1  H19C 9183   3.506   5.389   7.481 -0.1360  1.0359  0.9688
   91CHL1    C1 9184   3.282   5.393   7.324  0.4344  0.1380 -0.2651
   91CHL1   H1A 9185   3.341   5.301   7.342 -0.8353 -0.4715  1.0919
   91CHL1   H1B 9186   3.177   5.356   7.326 -0.3459  2.1627  1.9175
   91CHL1    C2 9187   3.304   5.463   7.191 -0.2225  0.3348 -0.3952
   91CHL1   H2A 9188   3.274   5.402   7.103 -1.6626  1.9038 -1.0729
   91CHL1   H2B 9189   3.412   5.478   7.171  0.4832  0.3270  2.8858
   91CHL1   C20 9190   3.227   5.197   8.102  0.0139 -0.4551  0.3353
   91CHL1   H20 9191   3.337   5.212   8.106 -0.0075  1.1202 -2.3378
   91CHL1   C21 9192   3.199   5.065   8.049  0.7176 -0.2295 -0.0671
   91CHL1  H21A 9193   3.250   5.043   7.953  1.8618  0.3064  0.3990
   91CHL1  H21B 9194   3.090   5.044   8.052  0.0728  2.8046  0.9968
   91CHL1  H21C 9195   3.249   4.984   8.107 -0.1055 -1.1813 -0.6582
   91CHL1   C22 9196   3.182   5.207   8.251 -0.1448  0.3429 -1.0431
   91CHL1  H22A 9197   3.234   5.123   8.303  0.4821  1.4365  0.1635
   91CHL1  H22B 9198   3.223   5.305   8.287 -1.8164  0.4534  0.7131
   91CHL1   C23 9199   3.028   5.186   8.265 -0.7522 -0.2156 -0.0007
   91CHL1  H23A 9200   2.989   5.260   8.191 -1.2026 -0.7755 -0.3339
   91CHL1  H23B 9201   3.006   5.080   8.238  0.4702 -0.5353  0.2361
   91CHL1   C24 9202   2.968   5.221   8.397 -0.2928  0.4998 -0.2358
   91CHL1  H24A 9203   2.857   5.215   8.395 -0.2761  0.3907 -1.0065
   91CHL1  H24B 9204   3.011   5.158   8.478 -0.2205  0.4242 -0.3325
   91CHL1   C25 9205   2.993   5.372   8.438 -0.4441  0.1882 -0.4952
   91CHL1   H25 9206   3.096   5.401   8.408 -0.5512  1.9193  0.6517
   91CHL1   C26 9207   2.903   5.479   8.373  0.5774  0.0154  0.1460
   91CHL1  H26A 9208   2.925   5.584   8.399 -1.1726  0.6352 -0.7415
   91CHL1  H26B 9209   2.909   5.472   8.262  1.6709  1.3748  0.0933
   91CHL1  H26C 9210   2.799   5.468   8.409 -0.1414  0.7211 -1.6340
   91CHL1   C27 9211   2.963   5.383   8.584  0.3342  0.0445 -0.4878
   91CHL1  H27A 9212   3.036   5.312   8.630 -0.0243 -1.0552 -1.5326
   91CHL1  H27B 9213   2.982   5.477   8.639 -2.7379  0.5896 -0.2363
   91CHL1  H27C 9214   2.863   5.348   8.615  0.9832 -1.1678  0.3337
   92CHL1    C3 9215   4.140   0.781   6.956  0.7496 -0.3551  0.6095
   92CHL1    H3 9216   4.240   0.830   6.966  1.2037 -0.8190 -1.2318
   92CHL1    O3 9217   4.109   0.756   6.818  0.0722 -0.3816  0.9414
   92CHL1   H3' 9218   4.021   0.717   6.821 -0.7696  1.4214  1.2048
   92CHL1    C4 9219   4.140   0.648   7.031 -0.1012  0.3890 -0.1808
   92CHL1   H4A 9220   4.051   0.586   7.011  0.2841 -0.1854 -0.1374
   92CHL1   H4B 9221   4.221   0.587   6.986 -0.3825  0.0024 -0.1615
   92CHL1    C5 9222   4.158   0.658   7.174 -0.0667 -0.0568 -0.4434
   92CHL1    C6 9223   4.253   0.599   7.246  0.4443  0.4539 -0.1190
   92CHL1    H6 9224   4.328   0.542   7.189 -2.1930 -1.4646 -1.9418
   92CHL1    C7 9225   4.261   0.597   7.395  0.6350  0.3207 -0.1527
   92CHL1   H7A 9226   4.281   0.492   7.426  0.1226 -0.6660 -2.9249
   92CHL1   H7B 9227   4.355   0.653   7.416  1.1064 -1.7396  4.4135
   92CHL1    C8 9228   4.138   0.656   7.466  0.4816 -0.4613  0.3231
   92CHL1    H8 9229   4.053   0.586   7.466  1.6265 -1.9401  1.8819
   92CHL1   C14 9230   4.169   0.684   7.611  0.2486 -0.6403  0.6880
   92CHL1   H14 9231   4.249   0.761   7.607 -0.2759 -0.1187  0.0452
   92CHL1   C15 9232   4.217   0.572   7.695  0.2556  0.3075 -0.6003
   92CHL1  H15A 9233   4.154   0.481   7.706 -1.0373  1.2205 -0.2416
   92CHL1  H15B 9234   4.315   0.542   7.654  0.5268 -1.4292  1.1546
   92CHL1   C16 9235   4.231   0.640   7.837  1.1678  0.2232  0.3807
   92CHL1  H16A 9236   4.186   0.577   7.917 -1.4990  3.2496  1.4725
   92CHL1  H16B 9237   4.332   0.668   7.872  1.7294 -1.4300  0.1971
   92CHL1   C17 9238   4.141   0.766   7.827  0.2347 -0.5573  0.5211
   92CHL1   H17 9239   4.208   0.852   7.809  0.8770 -1.4077 -1.5513
   92CHL1   C13 9240   4.059   0.749   7.694 -0.4109 -0.4359 -0.5326
   92CHL1   C18 9241   3.942   0.650   7.725  0.2619 -0.1508  0.1068
   92CHL1  H18A 9242   3.913   0.595   7.633 -0.1233 -1.0499  0.7475
   92CHL1  H18B 9243   3.975   0.577   7.802 -0.3734  0.1299  0.6543
   92CHL1  H18C 9244   3.848   0.694   7.765  0.3830 -1.1409  1.5471
   92CHL1   C12 9245   4.009   0.876   7.621  0.2381  0.9357 -0.0799
   92CHL1  H12A 9246   3.918   0.907   7.676 -0.6540  0.0988 -1.0423
   92CHL1  H12B 9247   4.081   0.961   7.625  1.4908 -0.1043  0.0045
   92CHL1   C11 9248   3.970   0.837   7.480  0.1328 -0.0766  0.4338
   92CHL1  H11A 9249   3.885   0.766   7.485 -1.4101  1.6729  0.2612
   92CHL1  H11B 9250   3.931   0.924   7.423 -0.5525 -1.5901 -1.4993
   92CHL1    C9 9251   4.088   0.779   7.393 -0.6102 -0.4083  0.4335
   92CHL1    H9 9252   4.176   0.846   7.404  1.4790 -2.8898 -0.1095
   92CHL1   C10 9253   4.050   0.747   7.241  0.2278 -0.8450 -0.1184
   92CHL1   C19 9254   3.908   0.684   7.252  0.3957 -0.5054 -0.3704
   92CHL1  H19A 9255   3.922   0.598   7.321  0.3543 -1.5961 -1.6810
   92CHL1  H19B 9256   3.838   0.759   7.295  0.6386  0.1255 -1.0455
   92CHL1  H19C 9257   3.860   0.637   7.163 -1.2529 -0.0801  0.2449
   92CHL1    C1 9258   4.040   0.885   7.164  0.1307  0.8207  0.1628
   92CHL1   H1A 9259   3.953   0.947   7.196  0.7887  1.5311  0.5970
   92CHL1   H1B 9260   4.137   0.934   7.186 -0.2481  1.3179  0.7659
   92CHL1    C2 9261   4.029   0.872   7.011 -0.7138 -0.0160  0.4084
   92CHL1   H2A 9262   4.032   0.972   6.961  0.4783 -0.5381 -0.6096
   92CHL1   H2B 9263   3.928   0.831   6.989 -1.1902  0.6946  1.2140
   92CHL1   C20 9264   4.062   0.801   7.953 -0.8163 -0.1272 -0.5898
   92CHL1   H20 9265   3.990   0.720   7.976  0.5892 -1.4236 -0.5958
   92CHL1   C21 9266   3.980   0.928   7.933  0.3151  0.0009 -0.3087
   92CHL1  H21A 9267   3.956   0.967   8.034  2.5994  1.2106 -0.1703
   92CHL1  H21B 9268   3.881   0.893   7.895  0.5872 -3.2001  1.5785
   92CHL1  H21C 9269   4.039   1.000   7.872  1.0703 -0.0285  0.3732
   92CHL1   C22 9270   4.169   0.834   8.070  0.7123  0.4732  0.4151
   92CHL1  H22A 9271   4.245   0.754   8.083  0.1999  0.1482  1.5580
   92CHL1  H22B 9272   4.211   0.934   8.047  1.2916  0.5467  1.6662
   92CHL1   C23 9273   4.102   0.842   8.214 -0.1180  0.2630  0.3692
   92CHL1  H23A 9274   3.996   0.814   8.200  0.3559 -0.7130 -1.7340
   92CHL1  H23B 9275   4.156   0.767   8.276  1.2746  0.6775 -0.2932
   92CHL1   C24 9276   4.125   0.982   8.272 -0.6213 -0.1661 -0.4199
   92CHL1  H24A 9277   4.234   1.002   8.281 -0.9712  1.4482  0.7034
   92CHL1  H24B 9278   4.102   1.063   8.200  2.2878 -0.4881 -1.8514
   92CHL1   C25 9279   4.071   1.013   8.416  0.4611 -0.8305 -0.8325
   92CHL1   H25 9280   4.083   1.120   8.443  0.1908 -1.0561  0.2311
   92CHL1   C26 9281   3.922   0.972   8.417 -0.2661  0.1554  0.1043
   92CHL1  H26A 9282   3.919   0.861   8.415  0.9859  0.0940 -2.2758
   92CHL1  H26B 9283   3.884   0.999   8.518 -0.0252  0.4101  0.1294
   92CHL1  H26C 9284   3.871   1.031   8.338 -0.7753 -1.8551 -1.1576
   92CHL1   C27 9285   4.156   0.947   8.526  0.1608  0.0999  0.8301
   92CHL1  H27A 9286   4.111   0.951   8.628  0.8361  1.6729  1.0931
   92CHL1  H27B 9287   4.162   0.841   8.494  1.0787  0.1833  0.7042
   92CHL1  H27C 9288   4.264   0.971   8.534  0.5359 -1.8266  2.4464
   93CHL1    C3 9289   3.223   4.602   6.707 -0.9560 -0.1941  0.2731
   93CHL1    H3 9290   3.212   4.713   6.714 -2.7216 -0.1110 -2.2456
   93CHL1    O3 9291   3.264   4.578   6.573  0.3426  0.1519  0.4291
   93CHL1   H3' 9292   3.199   4.629   6.524  0.4707 -0.7688 -0.7440
   93CHL1    C4 9293   3.327   4.541   6.802 -0.0496 -0.2305  0.6785
   93CHL1   H4A 9294   3.318   4.433   6.777 -3.4806 -0.4447  2.2624
   93CHL1   H4B 9295   3.421   4.591   6.771 -0.5501  0.1442 -0.2697
   93CHL1    C5 9296   3.290   4.554   6.951 -0.0562  0.3843 -0.9010
   93CHL1    C6 9297   3.373   4.593   7.050  0.1800 -1.0591  0.3527
   93CHL1    H6 9298   3.472   4.624   7.012 -0.4177 -0.8607 -1.1222
   93CHL1    C7 9299   3.326   4.622   7.192 -0.0101  0.8463  0.4620
   93CHL1   H7A 9300   3.402   4.567   7.252 -3.1784 -2.5257  1.8288
   93CHL1   H7B 9301   3.332   4.731   7.213 -0.5610  1.1333 -0.8037
   93CHL1    C8 9302   3.190   4.568   7.231 -0.1592  0.2397  0.4497
   93CHL1    H8 9303   3.204   4.459   7.243 -1.0227  0.0939  0.1266
   93CHL1   C14 9304   3.142   4.636   7.363  0.6037 -0.0079  0.5934
   93CHL1   H14 9305   3.130   4.744   7.340  0.7297 -0.3567 -1.1902
   93CHL1   C15 9306   3.243   4.639   7.475  0.7655 -0.8953  0.4481
   93CHL1  H15A 9307   3.296   4.547   7.506  2.5099  0.1163  0.5893
   93CHL1  H15B 9308   3.318   4.719   7.459  0.5506 -1.0013 -1.2821
   93CHL1   C16 9309   3.148   4.682   7.592 -0.4733  0.3682 -0.2094
   93CHL1  H16A 9310   3.166   4.626   7.686  3.2264  2.7264  0.6796
   93CHL1  H16B 9311   3.170   4.787   7.620  1.9813 -0.3044  0.6091
   93CHL1   C17 9312   3.000   4.673   7.542  0.0177  0.7313 -0.0582
   93CHL1   H17 9313   2.968   4.769   7.496 -2.3001 -1.2729 -3.0539
   93CHL1   C13 9314   3.013   4.580   7.415  0.1873 -0.2654  0.2247
   93CHL1   C18 9315   3.020   4.438   7.464 -0.6229 -0.1180 -0.3200
   93CHL1  H18A 9316   2.917   4.402   7.483 -0.6863 -0.8618 -1.9355
   93CHL1  H18B 9317   3.064   4.374   7.385 -0.8131 -2.4590  1.3561
   93CHL1  H18C 9318   3.081   4.419   7.556 -2.5107  0.4230  1.1083
   93CHL1   C12 9319   2.914   4.608   7.304  0.2507  0.1918  0.4077
   93CHL1  H12A 9320   2.826   4.561   7.353  0.2721 -0.3301 -0.0370
   93CHL1  H12B 9321   2.906   4.717   7.285  1.3877  0.6226  2.1375
   93CHL1   C11 9322   2.947   4.528   7.172 -0.6998 -0.5919 -0.4543
   93CHL1  H11A 9323   2.929   4.421   7.197 -1.4389 -0.1765  0.8213
   93CHL1  H11B 9324   2.871   4.550   7.094 -2.2493  0.1352  1.2067
   93CHL1    C9 9325   3.085   4.580   7.118  0.0824 -0.1273  0.1380
   93CHL1    H9 9326   3.081   4.690   7.106 -0.1148 -0.0508  0.8682
   93CHL1   C10 9327   3.140   4.525   6.984  0.5240  0.0452 -0.8831
   93CHL1   C19 9328   3.112   4.369   6.984  0.0418 -0.0884 -0.2934
   93CHL1  H19A 9329   3.005   4.341   6.972  0.4537 -1.8658 -0.1520
   93CHL1  H19B 9330   3.169   4.319   6.902  0.3428  3.0156 -2.1410
   93CHL1  H19C 9331   3.149   4.335   7.083  0.5566 -0.6139 -0.6663
   93CHL1    C1 9332   3.042   4.580   6.870 -0.1652  0.6078 -0.5746
   93CHL1   H1A 9333   2.938   4.549   6.894  0.0409 -0.6585 -1.1844
   93CHL1   H1B 9334   3.042   4.691   6.873 -0.4059  0.5926  0.0786
   93CHL1    C2 9335   3.081   4.548   6.725  0.5550 -0.2575  0.0640
   93CHL1   H2A 9336   3.017   4.593   6.647 -1.0346 -2.3991  0.0615
   93CHL1   H2B 9337   3.091   4.439   6.708  1.2711 -0.2683  0.5011
   93CHL1   C20 9338   2.907   4.636   7.660 -0.0320  0.2435  0.1386
   93CHL1   H20 9339   2.942   4.542   7.708  0.0742  0.5736  0.7215
   93CHL1   C21 9340   2.764   4.627   7.609  0.4726 -0.3787 -0.0232
   93CHL1  H21A 9341   2.687   4.646   7.687 -0.1870  1.0194 -0.9687
   93CHL1  H21B 9342   2.747   4.529   7.559 -0.3444 -1.5611  2.3965
   93CHL1  H21C 9343   2.731   4.708   7.540 -0.4096 -2.3850 -2.1231
   93CHL1   C22 9344   2.918   4.741   7.777 -0.4505 -0.5485  0.0128
   93CHL1  H22A 9345   2.871   4.703   7.870 -0.4635  2.2097  1.2150
   93CHL1  H22B 9346   3.025   4.760   7.802 -0.8717  2.4633 -0.0569
   93CHL1   C23 9347   2.850   4.880   7.747  0.4373  1.0520  0.5111
   93CHL1  H23A 9348   2.903   4.930   7.663  0.0703  0.3781 -0.1372
   93CHL1  H23B 9349   2.742   4.866   7.723  0.4107  2.3289 -0.2085
   93CHL1   C24 9350   2.846   4.981   7.866 -0.3404  0.1807 -0.6444
   93CHL1  H24A 9351   2.818   4.925   7.958 -2.1694 -0.3634 -1.4969
   93CHL1  H24B 9352   2.950   5.019   7.879 -0.4752  0.9652 -1.7255
   93CHL1   C25 9353   2.743   5.100   7.841 -0.0926 -0.3936 -0.0106
   93CHL1   H25 9354   2.660   5.039   7.800  0.1251 -1.1201  0.5993
   93CHL1   C26 9355   2.689   5.168   7.971  0.2555  0.7848 -0.0513
   93CHL1  H26A 9356   2.754   5.258   7.982 -0.8659  1.4694  1.2394
   93CHL1  H26B 9357   2.581   5.193   7.970  0.1038  0.7048  3.1815
   93CHL1  H26C 9358   2.717   5.104   8.057  2.0258 -1.2466 -2.0086
   93CHL1   C27 9359   2.807   5.207   7.749 -0.0877  0.2065 -0.2048
   93CHL1  H27A 9360   2.853   5.169   7.655  1.9714  1.0535  0.4095
   93CHL1  H27B 9361   2.730   5.281   7.717 -0.6630 -0.0585  0.5425
   93CHL1  H27C 9362   2.890   5.252   7.806  0.4211 -0.5358 -0.3520
   94CHL1    C3 9363   4.702   3.398   6.779 -1.1843 -0.6096 -0.2868
   94CHL1    H3 9364   4.614   3.331   6.792  0.5391 -2.9449 -0.0749
   94CHL1    O3 9365   4.747   3.408   6.644 -0.5875  0.1637  0.4952
   94CHL1   H3' 9366   4.808   3.481   6.641 -2.7385  2.0652  0.4794
   94CHL1    C4 9367   4.642   3.541   6.822 -0.5145 -0.1778 -0.7890
   94CHL1   H4A 9368   4.720   3.617   6.798  1.4011 -1.1965  1.6947
   94CHL1   H4B 9369   4.550   3.575   6.769  0.2698  1.8967 -0.9414
   94CHL1    C5 9370   4.623   3.555   6.976  0.4390  0.4387  0.2590
   94CHL1    C6 9371   4.505   3.594   7.020 -0.0275  0.1346  0.2587
   94CHL1    H6 9372   4.435   3.635   6.946  1.2963  2.4415  0.1935
   94CHL1    C7 9373   4.467   3.614   7.162 -0.4261 -0.1372  0.3059
   94CHL1   H7A 9374   4.432   3.719   7.162 -0.6080 -0.1649 -1.5316
   94CHL1   H7B 9375   4.372   3.561   7.186 -2.3563  1.7860 -2.3869
   94CHL1    C8 9376   4.580   3.605   7.257 -0.2257  0.6076  0.1245
   94CHL1    H8 9377   4.633   3.702   7.250 -0.1657  0.4749 -3.0910
   94CHL1   C14 9378   4.533   3.573   7.395  0.1116 -0.3212 -0.0297
   94CHL1   H14 9379   4.493   3.470   7.399  0.6145 -0.5732 -1.2296
   94CHL1   C15 9380   4.425   3.666   7.455  0.2710 -0.1184  0.0526
   94CHL1  H15A 9381   4.461   3.770   7.441  0.6996 -0.4937 -2.1328
   94CHL1  H15B 9382   4.326   3.650   7.407 -1.0049  0.4392  2.3904
   94CHL1   C16 9383   4.427   3.632   7.608 -0.2564 -0.0319 -0.1711
   94CHL1  H16A 9384   4.438   3.726   7.666 -0.5202 -1.0115  1.5550
   94CHL1  H16B 9385   4.341   3.573   7.646  1.2749 -0.6983  2.6199
   94CHL1   C17 9386   4.556   3.548   7.631  0.1520  0.4780  0.0565
   94CHL1   H17 9387   4.522   3.443   7.644 -0.3837  0.7492  0.9214
   94CHL1   C13 9388   4.643   3.570   7.504  0.2587  0.3787  0.6233
   94CHL1   C18 9389   4.709   3.706   7.519  0.5848  0.2361  0.2677
   94CHL1  H18A 9390   4.751   3.740   7.422  0.7760 -1.1722 -0.1597
   94CHL1  H18B 9391   4.636   3.783   7.550  2.1428  2.6657 -1.7275
   94CHL1  H18C 9392   4.795   3.701   7.589  2.0863 -0.6419 -1.5651
   94CHL1   C12 9393   4.733   3.456   7.455  0.4716 -0.5118  0.3524
   94CHL1  H12A 9394   4.821   3.437   7.521  0.7645 -0.3354  0.0097
   94CHL1  H12B 9395   4.674   3.362   7.448 -2.3023  1.2533 -2.7839
   94CHL1   C11 9396   4.794   3.476   7.311  0.4729 -0.4658 -0.1956
   94CHL1  H11A 9397   4.855   3.568   7.321  0.1397 -0.3266  0.6554
   94CHL1  H11B 9398   4.858   3.387   7.293  1.1128 -0.2962  1.1185
   94CHL1    C9 9399   4.682   3.493   7.208  0.5103  0.8078 -0.3059
   94CHL1    H9 9400   4.625   3.397   7.210 -2.8556  2.6349  0.2875
   94CHL1   C10 9401   4.740   3.508   7.069  0.1715 -0.6590  0.1608
   94CHL1   C19 9402   4.847   3.616   7.064  0.0315  0.2399  0.5499
   94CHL1  H19A 9403   4.935   3.586   7.125  1.1665 -1.0727 -1.5875
   94CHL1  H19B 9404   4.881   3.641   6.961  0.2657  0.8396  0.7706
   94CHL1  H19C 9405   4.812   3.712   7.107  0.7403  0.7416  0.0420
   94CHL1    C1 9406   4.800   3.373   7.018  0.8848 -0.5014 -0.1696
   94CHL1   H1A 9407   4.895   3.353   7.074 -0.0139  0.6590  1.8926
   94CHL1   H1B 9408   4.727   3.296   7.052  0.3760 -0.7148 -1.6824
   94CHL1    C2 9409   4.822   3.350   6.870 -0.0160  0.2765 -0.0459
   94CHL1   H2A 9410   4.854   3.245   6.852  0.2278 -0.6088  4.5375
   94CHL1   H2B 9411   4.912   3.406   6.836 -0.3024  0.5194 -0.4081
   94CHL1   C20 9412   4.617   3.582   7.767 -0.6614 -0.6633  0.5221
   94CHL1   H20 9413   4.651   3.687   7.780  0.7812 -0.9476 -0.7465
   94CHL1   C21 9414   4.742   3.496   7.793 -0.5596  0.3122  0.1920
   94CHL1  H21A 9415   4.820   3.514   7.716 -0.9418  2.1984  0.2140
   94CHL1  H21B 9416   4.718   3.388   7.803 -0.6804  0.4274  1.3119
   94CHL1  H21C 9417   4.806   3.526   7.879 -0.6921 -0.4517  0.5710
   94CHL1   C22 9418   4.514   3.581   7.884  0.4974  0.5200  0.4568
   94CHL1  H22A 9419   4.448   3.668   7.864  0.1367  0.5068  1.4917
   94CHL1  H22B 9420   4.456   3.487   7.870  1.2682  0.1623 -0.3922
   94CHL1   C23 9421   4.572   3.592   8.029 -0.5315 -0.0679 -0.1404
   94CHL1  H23A 9422   4.641   3.508   8.053 -0.5818  0.0299  0.3482
   94CHL1  H23B 9423   4.633   3.686   8.027 -0.6249  0.1464  2.9679
   94CHL1   C24 9424   4.464   3.586   8.139 -0.1634  0.4591 -0.7502
   94CHL1  H24A 9425   4.372   3.645   8.119 -2.0239 -2.1307 -0.2802
   94CHL1  H24B 9426   4.429   3.482   8.127  0.7449  0.2008 -1.2625
   94CHL1   C25 9427   4.527   3.624   8.278 -0.2212 -0.4902 -0.0704
   94CHL1   H25 9428   4.558   3.730   8.267 -0.4814 -0.2575  1.2648
   94CHL1   C26 9429   4.428   3.616   8.392  0.0649 -0.7960  0.8401
   94CHL1  H26A 9430   4.329   3.652   8.356  0.5614  0.0796  0.2954
   94CHL1  H26B 9431   4.404   3.509   8.411  1.1868 -1.2911 -0.3898
   94CHL1  H26C 9432   4.465   3.668   8.482 -0.8344 -0.7394  1.1918
   94CHL1   C27 9433   4.650   3.532   8.302 -0.0832 -0.6952  0.2651
   94CHL1  H27A 9434   4.608   3.430   8.294  1.0510 -1.0869 -0.8140
   94CHL1  H27B 9435   4.731   3.554   8.230 -1.5980  1.0300 -1.0136
   94CHL1  H27C 9436   4.686   3.545   8.406  0.3402 -2.4469  0.3628
   95CHL1    C3 9437   4.595   6.308   6.839 -0.7771  0.4178 -0.2213
   95CHL1    H3 9438   4.495   6.329   6.884 -1.8666 -1.2681 -1.7341
   95CHL1    O3 9439   4.586   6.320   6.695  0.0354  0.0328 -0.5323
   95CHL1   H3' 9440   4.493   6.300   6.679  0.4949 -0.9186 -2.3572
   95CHL1    C4 9441   4.704   6.399   6.893  0.3831  0.0977 -0.9003
   95CHL1   H4A 9442   4.795   6.386   6.831  0.5164  0.9319 -0.8870
   95CHL1   H4B 9443   4.665   6.500   6.869  1.3014  1.0051  1.1625
   95CHL1    C5 9444   4.731   6.380   7.041  0.3269  0.4142  0.4376
   95CHL1    C6 9445   4.726   6.469   7.135  0.2274 -0.3930 -0.5372
   95CHL1    H6 9446   4.698   6.574   7.117  1.3957 -0.3337 -2.2109
   95CHL1    C7 9447   4.732   6.459   7.285  0.0810 -0.0763 -0.0913
   95CHL1   H7A 9448   4.793   6.542   7.326 -0.2136  0.2754 -0.3578
   95CHL1   H7B 9449   4.628   6.469   7.321  0.9879 -0.9790  3.0549
   95CHL1    C8 9450   4.789   6.332   7.336  0.7050  0.6227 -0.0564
   95CHL1    H8 9451   4.900   6.336   7.328  1.0408 -1.0934  2.6347
   95CHL1   C14 9452   4.752   6.301   7.482  0.2719 -0.1979 -0.7974
   95CHL1   H14 9453   4.642   6.294   7.488  0.1714 -1.6804 -3.1091
   95CHL1   C15 9454   4.793   6.410   7.585 -0.1046 -0.4781 -0.4361
   95CHL1  H15A 9455   4.885   6.460   7.546 -0.0773  0.0372  0.2716
   95CHL1  H15B 9456   4.706   6.478   7.595 -0.3576 -0.7295 -0.9121
   95CHL1   C16 9457   4.815   6.332   7.717 -0.2096  0.3241 -0.1566
   95CHL1  H16A 9458   4.916   6.338   7.764 -0.2485 -1.1339  0.1524
   95CHL1  H16B 9459   4.749   6.362   7.800  0.9998 -0.7776  1.2634
   95CHL1   C17 9460   4.780   6.183   7.694  0.7346  0.4584  0.1184
   95CHL1   H17 9461   4.669   6.181   7.697  0.6229  3.0828 -0.3299
   95CHL1   C13 9462   4.814   6.170   7.542  0.2009  0.5371 -0.3436
   95CHL1   C18 9463   4.973   6.172   7.530  0.1529 -0.2564 -0.2813
   95CHL1  H18A 9464   5.012   6.080   7.578 -1.2018 -0.4565  0.5122
   95CHL1  H18B 9465   4.995   6.166   7.421 -1.0243  2.4996 -0.7617
   95CHL1  H18C 9466   5.025   6.260   7.574  0.7127 -0.7963  0.1463
   95CHL1   C12 9467   4.761   6.055   7.461 -0.4527 -0.7001  0.8661
   95CHL1  H12A 9468   4.799   5.951   7.471 -1.9774 -1.9092 -3.4072
   95CHL1  H12B 9469   4.655   6.044   7.491 -0.7912 -1.3536 -0.4571
   95CHL1   C11 9470   4.776   6.070   7.308  0.2966  0.1213 -0.5491
   95CHL1  H11A 9471   4.887   6.073   7.298  0.5843 -0.1274  1.9772
   95CHL1  H11B 9472   4.734   5.987   7.248 -2.0430  0.5645  0.3725
   95CHL1    C9 9473   4.732   6.211   7.255 -0.3820  0.1768  0.2883
   95CHL1    H9 9474   4.623   6.207   7.275 -0.9516  2.4683 -1.7969
   95CHL1   C10 9475   4.746   6.226   7.091 -0.1437 -0.6487  0.2747
   95CHL1   C19 9476   4.878   6.165   7.051 -0.9193 -0.3524 -0.0790
   95CHL1  H19A 9477   4.962   6.212   7.106  0.2808 -1.2730 -1.0601
   95CHL1  H19B 9478   4.881   6.054   7.058 -2.1297 -0.3905  0.1804
   95CHL1  H19C 9479   4.906   6.207   6.952  1.2632  0.1072  0.6771
   95CHL1    C1 9480   4.625   6.142   7.029  0.1622  0.6547 -0.0344
   95CHL1   H1A 9481   4.637   6.036   7.061 -0.8150  0.9207  1.3351
   95CHL1   H1B 9482   4.523   6.168   7.065 -0.4030  0.5924 -1.5316
   95CHL1    C2 9483   4.620   6.157   6.876  0.1621 -0.1969  0.2086
   95CHL1   H2A 9484   4.543   6.088   6.836 -0.7187 -0.9077  2.8888
   95CHL1   H2B 9485   4.723   6.146   6.838  0.4258  0.5966  0.6757
   95CHL1   C20 9486   4.847   6.090   7.797  0.5671 -0.2759  0.1764
   95CHL1   H20 9487   4.957   6.096   7.789  0.7452 -3.4723 -1.1093
   95CHL1   C21 9488   4.798   5.939   7.786  0.0166 -0.1299  1.0363
   95CHL1  H21A 9489   4.810   5.910   7.679 -0.1828  0.3876  0.8666
   95CHL1  H21B 9490   4.690   5.944   7.814 -0.0747  0.3152  0.6399
   95CHL1  H21C 9491   4.843   5.862   7.851 -2.4561 -1.1362  1.6950
   95CHL1   C22 9492   4.817   6.139   7.943 -0.4080  0.2707  0.1689
   95CHL1  H22A 9493   4.852   6.243   7.956 -0.5664  0.3295  0.1188
   95CHL1  H22B 9494   4.708   6.147   7.961 -0.6004  0.4516 -1.0137
   95CHL1   C23 9495   4.881   6.055   8.050 -0.2217  0.4383 -0.0885
   95CHL1  H23A 9496   4.840   5.953   8.065 -1.3523  0.7676 -0.8417
   95CHL1  H23B 9497   4.986   6.036   8.017 -1.0670 -1.3183 -1.9996
   95CHL1   C24 9498   4.881   6.134   8.177 -0.7045  0.1271  0.5254
   95CHL1  H24A 9499   4.913   6.240   8.166 -1.9143  0.8525  3.0445
   95CHL1  H24B 9500   4.780   6.147   8.221 -1.0841 -0.5979 -0.1177
   95CHL1   C25 9501   4.959   6.086   8.298 -0.3200  0.9291 -0.8925
   95CHL1   H25 9502   5.062   6.063   8.261  0.1857  0.7110  0.5871
   95CHL1   C26 9503   4.961   6.189   8.411 -0.2425 -0.7126 -0.1122
   95CHL1  H26A 9504   4.996   6.151   8.509 -1.6843  0.8152  1.0372
   95CHL1  H26B 9505   5.031   6.272   8.387 -1.6364  0.0005 -1.9063
   95CHL1  H26C 9506   4.862   6.236   8.426 -0.3997 -1.6345  2.0105
   95CHL1   C27 9507   4.891   5.965   8.360  0.4194  0.1814 -0.5425
   95CHL1  H27A 9508   4.789   5.984   8.401 -0.1101  0.1921 -1.8167
   95CHL1  H27B 9509   4.882   5.885   8.283  1.1401 -0.8899  0.4577
   95CHL1  H27C 9510   4.965   5.934   8.437  0.5008  2.0875  0.1916
   96CHL1    C3 9511   5.122   5.231   6.627  0.4734  0.3349  0.0583
   96CHL1    H3 9512   5.018   5.193   6.639  0.6956  0.2869  2.2061
   96CHL1    O3 9513   5.161   5.251   6.492 -0.2505  0.0656 -0.4281
   96CHL1   H3' 9514   5.257   5.247   6.500 -0.2511  1.6156  1.0065
   96CHL1    C4 9515   5.136   5.361   6.712  0.0698  0.6181  0.0158
   96CHL1   H4A 9516   5.239   5.398   6.694  0.7245  0.3552  2.7390
   96CHL1   H4B 9517   5.069   5.438   6.669 -1.2275 -1.0654 -1.1445
   96CHL1    C5 9518   5.128   5.338   6.860  0.3809  0.2322 -0.5527
   96CHL1    C6 9519   5.046   5.403   6.940 -0.2651  0.1683  0.5004
   96CHL1    H6 9520   4.981   5.478   6.892  0.6717  1.0489  0.5753
   96CHL1    C7 9521   5.044   5.397   7.088  0.3189 -0.5749 -0.2400
   96CHL1   H7A 9522   5.046   5.504   7.118 -0.5567 -0.8354  0.8250
   96CHL1   H7B 9523   4.942   5.367   7.119  0.4039 -0.3082  0.3041
   96CHL1    C8 9524   5.153   5.315   7.153  0.4248  0.7524  0.1264
   96CHL1    H8 9525   5.251   5.368   7.155  0.7431  0.1579  0.5284
   96CHL1   C14 9526   5.115   5.271   7.292 -0.4766 -0.3808 -0.7051
   96CHL1   H14 9527   5.017   5.220   7.279 -0.5518 -0.4700  0.1399
   96CHL1   C15 9528   5.086   5.380   7.395 -0.3366 -0.1479  0.1136
   96CHL1  H15A 9529   5.167   5.455   7.397 -1.7397  1.4472 -0.5612
   96CHL1  H15B 9530   4.997   5.436   7.358  0.1991 -0.6795 -2.1156
   96CHL1   C16 9531   5.081   5.300   7.523  0.4592  0.7763 -0.8370
   96CHL1  H16A 9532   5.144   5.349   7.601 -0.4046  0.1876  0.2545
   96CHL1  H16B 9533   4.979   5.292   7.566 -1.0185  2.2118 -3.7936
   96CHL1   C17 9534   5.136   5.164   7.494  0.1077  0.0196 -0.3736
   96CHL1   H17 9535   5.054   5.091   7.485  2.3982 -3.1482  2.1606
   96CHL1   C13 9536   5.204   5.166   7.353 -0.3687 -0.4389  0.1053
   96CHL1   C18 9537   5.354   5.223   7.367 -0.2519  0.0355 -0.8520
   96CHL1  H18A 9538   5.404   5.250   7.272  1.1008  1.0528  0.1079
   96CHL1  H18B 9539   5.347   5.305   7.441 -0.7707  0.2913 -1.1859
   96CHL1  H18C 9540   5.427   5.153   7.415  0.2411  0.5522 -0.8341
   96CHL1   C12 9541   5.212   5.035   7.268  0.2343  0.2704 -0.5701
   96CHL1  H12A 9542   5.296   4.979   7.315 -1.3110  0.2372  2.3941
   96CHL1  H12B 9543   5.124   4.968   7.265  1.6502 -1.7043  0.0355
   96CHL1   C11 9544   5.258   5.069   7.125 -0.1389 -0.0224 -0.2225
   96CHL1  H11A 9545   5.363   5.105   7.128 -0.3276  0.5270 -0.1350
   96CHL1  H11B 9546   5.263   4.977   7.062 -1.5333 -0.8334  0.7752
   96CHL1    C9 9547   5.172   5.190   7.062 -0.1554  0.4310  0.2226
   96CHL1    H9 9548   5.071   5.144   7.074 -0.0516  0.2966  0.5883
   96CHL1   C10 9549   5.212   5.224   6.917  0.7624  0.6918  0.2490
   96CHL1   C19 9550   5.359   5.263   6.923 -1.0674 -0.3696 -0.2291
   96CHL1  H19A 9551   5.382   5.351   6.988  0.0416 -1.6053  1.1059
   96CHL1  H19B 9552   5.424   5.184   6.965 -1.5104 -1.1717 -1.0360
   96CHL1  H19C 9553   5.393   5.293   6.822  0.4476  0.2668  0.4351
   96CHL1    C1 9554   5.205   5.093   6.824  0.3561 -0.1252  0.5851
   96CHL1   H1A 9555   5.291   5.032   6.858  1.5420 -0.0724 -2.0504
   96CHL1   H1B 9556   5.107   5.042   6.836  0.1809  0.0713  0.0503
   96CHL1    C2 9557   5.221   5.124   6.674  0.4158 -0.0454  0.1294
   96CHL1   H2A 9558   5.218   5.031   6.613  1.5875  0.4048 -0.6626
   96CHL1   H2B 9559   5.326   5.159   6.660  0.4042  0.7818  1.8577
   96CHL1   C20 9560   5.226   5.122   7.612 -0.4388 -0.1222 -0.3048
   96CHL1   H20 9561   5.311   5.194   7.620 -0.5147 -0.0405 -0.2367
   96CHL1   C21 9562   5.282   4.983   7.590 -0.4435 -0.1632  0.1692
   96CHL1  H21A 9563   5.201   4.909   7.573  0.5782 -1.4408  0.6864
   96CHL1  H21B 9564   5.340   4.936   7.672 -0.8050 -1.4252 -0.2681
   96CHL1  H21C 9565   5.354   4.974   7.506 -3.3844 -0.7385 -2.5004
   96CHL1   C22 9566   5.158   5.129   7.749  0.4869  0.4804  0.1579
   96CHL1  H22A 9567   5.102   5.224   7.757  0.8046  0.4886  3.4765
   96CHL1  H22B 9568   5.086   5.045   7.748  1.0565 -0.0239 -0.4844
   96CHL1   C23 9569   5.247   5.120   7.869 -0.4671 -1.1463  0.5945
   96CHL1  H23A 9570   5.308   5.028   7.860  1.4051  0.2239 -2.0202
   96CHL1  H23B 9571   5.322   5.202   7.864 -0.8975 -0.8049 -0.4992
   96CHL1   C24 9572   5.191   5.147   8.005 -0.0385  0.2209 -0.2752
   96CHL1  H24A 9573   5.103   5.213   7.988 -0.4800 -0.6932 -1.8434
   96CHL1  H24B 9574   5.150   5.056   8.054 -0.5203  0.7194  0.2615
   96CHL1   C25 9575   5.289   5.204   8.116  0.5675  0.3655  0.1744
   96CHL1   H25 9576   5.326   5.306   8.090 -0.7641  1.0173  0.7172
   96CHL1   C26 9577   5.229   5.215   8.252 -1.0202  0.2455  0.9512
   96CHL1  H26A 9578   5.293   5.276   8.320 -2.3340 -1.1424  3.5822
   96CHL1  H26B 9579   5.129   5.263   8.244 -0.9253  0.1655 -1.1659
   96CHL1  H26C 9580   5.234   5.116   8.301  0.4250  0.6475  1.6893
   96CHL1   C27 9581   5.411   5.108   8.132 -0.3815  0.2367 -0.1201
   96CHL1  H27A 9582   5.451   5.076   8.033 -0.9904  2.1104 -1.0139
   96CHL1  H27B 9583   5.481   5.160   8.201  0.9938 -1.8423  0.1622
   96CHL1  H27C 9584   5.374   5.012   8.173 -0.4793  0.3631  0.0884
   97OSM      N 9585   2.821   2.137  11.089  0.2666 -0.1905  0.0250
   97OSM    C15 9586   2.736   2.109  11.204  0.0979  0.0667  0.4202
   97OSM   H15A 9587   2.692   2.010  11.208 -0.6647  0.2372 -1.9509
   97OSM   H15B 9588   2.655   2.180  11.203 -0.0123 -0.0543 -0.7240
   97OSM   H15C 9589   2.789   2.115  11.297  0.3499  0.1189  0.2736
   97OSM    C14 9590   2.729   2.115  10.969  0.3849 -0.0754  0.0097
   97OSM   H14A 9591   2.777   2.126  10.873 -0.5614 -3.0743 -0.9554
   97OSM   H14B 9592   2.637   2.171  10.971 -0.9599 -2.1347  1.4758
   97OSM   H14C 9593   2.694   2.012  10.966 -2.1250  0.7082 -0.3114
   97OSM    C13 9594   2.858   2.281  11.088 -0.3697 -0.0542  0.4592
   97OSM   H13A 9595   2.885   2.307  11.189  1.5167  0.3179 -0.1125
   97OSM   H13B 9596   2.769   2.335  11.058 -1.1570 -2.0720 -1.1167
   97OSM   H13C 9597   2.942   2.295  11.022 -0.3248  1.5318  0.8347
   97OSM    C12 9598   2.941   2.050  11.087 -0.3284  0.7635 -0.3486
   97OSM   H12A 9599   2.918   1.944  11.086  0.0809  0.6741 -0.3401
   97OSM   H12B 9600   2.986   2.065  11.184  0.2045  1.3932 -0.6841
   97OSM    C11 9601   3.045   2.049  10.975 -0.4689 -0.7514 -0.7677
   97OSM   H11A 9602   2.987   2.034  10.882 -3.6613  2.0867  0.5675
   97OSM   H11B 9603   3.117   1.967  10.992  0.4408  0.7058  3.6977
   97OSM      P 9604   3.262   2.201  11.009 -0.1325 -0.4035  0.4988
   97OSM    O13 9605   3.293   2.345  11.008  0.2091  0.7291  0.2385
   97OSM    O14 9606   3.288   2.123  11.133  0.1422 -0.2383  0.1717
   97OSM    O11 9607   3.338   2.128  10.886 -0.0503  0.0560  0.2311
   97OSM    O12 9608   3.111   2.177  10.971  0.3024 -0.0646 -0.3041
   97OSM    C1S 9609   3.284   2.154  10.755  0.0770  0.3223  0.2884
   97OSM    H1S 9610   3.273   2.263  10.735 -1.1693  0.1254 -0.1949
   97OSM    H1T 9611   3.181   2.113  10.753 -0.1420  0.8590  0.6513
   97OSM     NF 9612   3.275   2.086  10.517 -0.2454 -0.1257 -0.1555
   97OSM    HNF 9613   3.211   2.012  10.499  0.8848 -0.9622 -0.9042
   97OSM    C2S 9614   3.355   2.070  10.641  0.3862  0.5521  0.2937
   97OSM    H2S 9615   3.456   2.116  10.627  0.6096  0.8364  2.3778
   97OSM    C3S 9616   3.373   1.918  10.686  0.8097  0.5412  0.2027
   97OSM    H3S 9617   3.276   1.877  10.723  0.6718 -0.0189 -0.7606
   97OSM     O3 9618   3.447   1.896  10.804  0.0132  0.4101  0.1254
   97OSM    HO3 9619   3.446   1.981  10.849  1.2619 -1.1045  3.2681
   97OSM    C4S 9620   3.418   1.830  10.572 -0.3055 -0.0194  0.3590
   97OSM    H4S 9621   3.350   1.828  10.485 -1.7652 -0.5090  1.4691
   97OSM    C5S 9622   3.523   1.748  10.554 -0.2846 -0.2156 -0.2261
   97OSM    H5S 9623   3.594   1.733  10.637 -0.8878 -1.7477  0.0386
   97OSM    C6S 9624   3.553   1.662  10.429  0.2059 -0.2461  0.4299
   97OSM    H6S 9625   3.548   1.556  10.462 -1.5764 -0.0109  1.0021
   97OSM    H6T 9626   3.656   1.684  10.394 -0.0401 -0.7188 -0.6055
   97OSM    C7S 9627   3.462   1.675  10.304 -0.7456 -0.3577  0.2635
   97OSM    H7S 9628   3.452   1.785  10.296 -0.4312 -0.3522 -0.0860
   97OSM    H7T 9629   3.362   1.629  10.319 -0.3105 -0.9635  1.4605
   97OSM    C8S 9630   3.530   1.603  10.184  0.0151  0.5729  0.2059
   97OSM    H8S 9631   3.529   1.500  10.224  0.4722  1.3201  2.2233
   97OSM    H8T 9632   3.636   1.636  10.176 -0.0298  0.6521 -0.0867
   97OSM    C9S 9633   3.462   1.625  10.040 -0.5251 -0.0654 -0.5755
   97OSM    H9S 9634   3.466   1.732  10.010  0.2419  0.1993  0.4027
   97OSM    H9T 9635   3.354   1.602  10.044 -0.8755  1.4844 -0.5399
   97OSM   C10S 9636   3.527   1.559   9.913  0.5686  0.2367  0.0476
   97OSM   H10S 9637   3.561   1.457   9.939 -0.9477 -0.1283  0.7173
   97OSM   H10T 9638   3.618   1.612   9.879 -0.8984  1.6260 -1.8883
   97OSM   C11S 9639   3.438   1.546   9.799  0.1386 -0.5733  0.7069
   97OSM   H11S 9640   3.401   1.645   9.766  2.4942  0.4607  0.9571
   97OSM   H11T 9641   3.357   1.476   9.829 -1.5371 -0.6045 -3.2684
   97OSM   C12S 9642   3.504   1.480   9.673  0.7641 -0.8421 -0.3542
   97OSM   H12S 9643   3.557   1.385   9.695  0.4691 -0.7530  0.8123
   97OSM   H12T 9644   3.579   1.551   9.631 -0.2325  0.7706  0.4644
   97OSM   C13S 9645   3.401   1.438   9.579 -0.5568  0.1007  0.4819
   97OSM   H13S 9646   3.311   1.502   9.592  2.7865  5.4813  0.1312
   97OSM   H13T 9647   3.353   1.340   9.602 -1.5430 -0.0092 -1.8064
   97OSM   C14S 9648   3.434   1.429   9.432  0.8138 -0.0023  0.4761
   97OSM   H14S 9649   3.341   1.408   9.375  1.0666  1.6500 -0.6115
   97OSM   H14T 9650   3.504   1.344   9.414 -0.0977 -0.9156  1.1323
   97OSM   C15S 9651   3.489   1.562   9.378  0.3376 -0.1476 -0.2164
   97OSM   H15S 9652   3.509   1.558   9.269  0.5237  0.7394 -0.2268
   97OSM   H15T 9653   3.581   1.601   9.426  1.1535 -0.1550 -1.7324
   97OSM   C16S 9654   3.394   1.686   9.367  0.2633 -0.0042  0.1750
   97OSM   H16S 9655   3.383   1.740   9.464 -0.5743 -0.7601  0.5205
   97OSM   H16T 9656   3.291   1.649   9.347  0.2132  0.5263 -0.5857
   97OSM   C17S 9657   3.414   1.788   9.256  0.2183 -0.5450  0.7430
   97OSM   H17S 9658   3.523   1.810   9.249  0.0128  0.2640 -0.0571
   97OSM   H17T 9659   3.349   1.875   9.282 -0.9742 -0.5860 -1.7990
   97OSM   C18S 9660   3.366   1.744   9.110  0.3164  0.1887 -0.1926
   97OSM   H18S 9661   3.365   1.836   9.048 -0.9168  0.3015 -0.0357
   97OSM   H18T 9662   3.264   1.698   9.106  0.7043 -1.4279  3.5785
   97OSM   H18U 9663   3.438   1.674   9.063  0.3694  0.2144 -0.1486
   97OSM    C1F 9664   3.272   2.193  10.441 -0.4101  0.3679  0.5047
   97OSM     OF 9665   3.343   2.285  10.473  0.1306  0.0838 -0.2838
   97OSM    C2F 9666   3.192   2.187  10.313 -0.6215 -0.9045 -0.1714
   97OSM    H2F 9667   3.090   2.143  10.311  0.3195 -3.2239 -0.2475
   97OSM    H2G 9668   3.248   2.115  10.249  2.6949  1.8970 -0.6812
   97OSM    C3F 9669   3.193   2.321  10.239  0.2208 -0.1927  0.4685
   97OSM    H3F 9670   3.288   2.366  10.200 -0.9190  1.4066 -0.6095
   97OSM    H3G 9671   3.154   2.403  10.303  0.1454 -0.0372  0.2266
   97OSM    C4F 9672   3.089   2.322  10.110  0.0050 -0.6554 -0.3712
   97OSM    H4F 9673   3.073   2.427  10.078  2.7748 -0.2273 -0.6210
   97OSM    H4G 9674   2.987   2.290  10.140 -0.3474 -0.5179 -1.4069
   97OSM    C5F 9675   3.132   2.236   9.993  0.3979  0.2006 -0.4541
   97OSM    H5F 9676   3.151   2.135  10.036 -2.4229  0.0232  0.5762
   97OSM    H5G 9677   3.221   2.281   9.945  0.7626  0.4468  0.4472
   97OSM    C6F 9678   3.033   2.218   9.878  0.3731 -0.3945  0.5967
   97OSM    H6F 9679   2.933   2.199   9.922 -1.4738  3.9460 -1.0919
   97OSM    H6G 9680   3.053   2.125   9.820  2.0624  0.7164 -0.7195
   97OSM    C7F 9681   3.036   2.348   9.787  0.1166 -0.6398  0.2487
   97OSM    H7F 9682   3.131   2.362   9.731  0.8766 -2.4037  1.0172
   97OSM    H7G 9683   3.019   2.435   9.854  0.9107  0.1424 -0.5254
   97OSM    C8F 9684   2.926   2.341   9.677 -0.6553 -0.2897  0.7951
   97OSM    H8F 9685   2.912   2.441   9.631 -0.6202 -0.6528 -0.0174
   97OSM    H8G 9686   2.828   2.321   9.725 -1.1271  1.9861  0.8968
   97OSM    C9F 9687   2.930   2.229   9.569 -0.7774  0.0861  0.0439
   97OSM    H9F 9688   2.908   2.127   9.605  0.5374 -0.0587  0.4795
   97OSM   C10F 9689   2.976   2.239   9.438 -0.7373 -1.1823  0.2580
   97OSM   H10F 9690   2.981   2.151   9.371  1.0663 -1.1737  0.3214
   97OSM   C11F 9691   3.034   2.363   9.376  0.5180 -0.3990  0.2524
   97OSM   H11F 9692   3.133   2.334   9.335 -0.7323  0.3399 -3.6554
   97OSM   H11G 9693   3.054   2.449   9.443 -1.4533  0.9462 -0.8144
   97OSM   C12F 9694   2.935   2.407   9.264  0.0153  1.0066  0.4596
   97OSM   H12F 9695   2.979   2.488   9.203  1.2516 -0.3113 -0.4815
   97OSM   H12G 9696   2.834   2.432   9.302 -1.0721 -1.5513 -0.4899
   97OSM   C13F 9697   2.914   2.309   9.143 -0.0495  0.0601 -0.1614
   97OSM   H13F 9698   2.862   2.365   9.063 -0.2438  1.1567  0.6933
   97OSM   H13G 9699   2.844   2.223   9.152  0.4994 -0.3848 -0.1086
   97OSM   C14F 9700   3.050   2.255   9.096  0.3008  0.4645  0.0779
   97OSM   H14F 9701   3.069   2.159   9.149  0.1766  0.8115  0.7724
   97OSM   H14G 9702   3.138   2.322   9.104  0.4228  0.6499 -2.1611
   97OSM   C15F 9703   3.034   2.235   8.943 -0.9041  0.0982 -0.5766
   97OSM   H15F 9704   3.043   2.333   8.892  0.8456  1.0495  1.3818
   97OSM   H15G 9705   2.933   2.190   8.933 -0.8012 -0.0645 -0.8912
   97OSM   C16F 9706   3.138   2.127   8.894  0.5437 -1.0111  0.8841
   97OSM   H16F 9707   3.132   2.120   8.783 -1.6012  1.0736  0.7877
   97OSM   H16G 9708   3.111   2.023   8.922 -1.6163 -1.2376 -1.5659
   97OSM   C17F 9709   3.288   2.146   8.923 -0.2199  0.0123 -0.1590
   97OSM   H17F 9710   3.347   2.059   8.885  1.1657  1.2526 -0.9638
   97OSM   H17G 9711   3.304   2.158   9.032  1.2156 -1.3144 -0.1888
   97OSM   C18F 9712   3.358   2.266   8.858  0.3128  0.2211  1.1200
   97OSM   H18F 9713   3.313   2.365   8.877 -0.6696  0.0891 -0.4011
   97OSM   H18G 9714   3.333   2.250   8.751 -2.3527  0.5538  1.6356
   97OSM   H18H 9715   3.468   2.266   8.873  0.3209  2.6182  1.4683
   98OSM      N 9716   3.280   1.714  11.181 -0.5042  0.3266 -0.2140
   98OSM    C15 9717   3.422   1.719  11.228 -0.1278 -0.0792 -0.2623
   98OSM   H15A 9718   3.474   1.625  11.219  2.3586  1.2389 -0.6189
   98OSM   H15B 9719   3.426   1.757  11.329  0.6013 -1.7354  0.3730
   98OSM   H15C 9720   3.476   1.790  11.167 -0.1651  1.4270  1.3563
   98OSM    C14 9721   3.208   1.602  11.255  0.6655 -0.0533 -0.0611
   98OSM   H14A 9722   3.103   1.624  11.255  0.6752 -0.0104 -0.3929
   98OSM   H14B 9723   3.237   1.595  11.359  0.1067  2.5533  0.3174
   98OSM   H14C 9724   3.223   1.509  11.202  2.5442  0.5649 -0.6931
   98OSM    C13 9725   3.209   1.840  11.200  0.7360 -0.0065 -0.6236
   98OSM   H13A 9726   3.198   1.867  11.304 -1.1127  0.6349 -0.9434
   98OSM   H13B 9727   3.114   1.846  11.148  0.7831  0.6117 -0.6502
   98OSM   H13C 9728   3.273   1.919  11.164  0.3968  0.5855  0.0394
   98OSM    C12 9729   3.283   1.676  11.034  0.8155  0.3483  0.0255
   98OSM   H12A 9730   3.353   1.739  10.981  1.6224  1.0420  1.8324
   98OSM   H12B 9731   3.185   1.696  10.994  1.6183  4.4762 -0.2690
   98OSM    C11 9732   3.323   1.535  10.992 -0.9571 -0.6408 -0.4205
   98OSM   H11A 9733   3.419   1.503  11.038 -1.9279 -0.9979  1.4407
   98OSM   H11B 9734   3.337   1.530  10.882  0.0926 -0.2717 -0.3176
   98OSM      P 9735   3.246   1.291  10.993 -0.0327 -0.4570  0.0631
   98OSM    O13 9736   3.308   1.236  11.113 -0.3104  0.3147 -0.5134
   98OSM    O14 9737   3.110   1.239  10.958 -0.7279  0.7440  0.5616
   98OSM    O11 9738   3.338   1.279  10.867 -0.0074  0.2197  0.0269
   98OSM    O12 9739   3.226   1.447  11.027 -0.0031  0.1861  0.3229
   98OSM    C1S 9740   3.411   1.161  10.833 -0.2969 -0.1129 -0.3156
   98OSM    H1S 9741   3.349   1.073  10.860 -1.4444  1.5357  3.0247
   98OSM    H1T 9742   3.501   1.162  10.899 -1.0143 -0.7741  0.6889
   98OSM     NF 9743   3.438   1.007  10.631  0.5793 -0.5329 -0.0478
   98OSM    HNF 9744   3.529   0.976  10.604  0.3583 -0.2564 -1.1443
   98OSM    C2S 9745   3.436   1.145  10.677 -0.2313 -0.4610  0.0649
   98OSM    H2S 9746   3.340   1.190  10.643 -0.0884  0.0738  0.3456
   98OSM    C3S 9747   3.562   1.230  10.634  0.5043 -0.0369 -0.7122
   98OSM    H3S 9748   3.649   1.204  10.697  1.4718  2.1458 -1.0661
   98OSM     O3 9749   3.544   1.367  10.677 -0.1805  0.5620  0.3937
   98OSM    HO3 9750   3.468   1.368  10.735 -0.4853  0.8121 -0.0045
   98OSM    C4S 9751   3.581   1.213  10.490  0.4341 -0.2027 -0.2918
   98OSM    H4S 9752   3.666   1.150  10.461  0.2999 -0.8390  0.6400
   98OSM    C5S 9753   3.502   1.263  10.388  0.3627 -0.4700 -0.1234
   98OSM    H5S 9754   3.419   1.329  10.416  0.4690 -0.0281 -0.8180
   98OSM    C6S 9755   3.525   1.229  10.241  0.1727  0.2087  0.3475
   98OSM    H6S 9756   3.588   1.138  10.232 -0.5613 -0.3569  0.7890
   98OSM    H6T 9757   3.593   1.301  10.191  2.0310 -0.1192  2.2911
   98OSM    C7S 9758   3.401   1.213  10.147 -0.1855  0.0147 -0.0857
   98OSM    H7S 9759   3.342   1.307  10.144 -0.8409 -0.3115  1.7906
   98OSM    H7T 9760   3.340   1.135  10.198 -2.9733  1.2784 -1.2851
   98OSM    C8S 9761   3.436   1.169  10.005  1.0204  0.0087 -0.7215
   98OSM    H8S 9762   3.510   1.241   9.963 -0.2118  2.2060  0.6529
   98OSM    H8T 9763   3.344   1.182   9.943  1.7844  1.1972 -1.6521
   98OSM    C9S 9764   3.481   1.023  10.005 -0.9792  0.2757 -0.4494
   98OSM    H9S 9765   3.392   0.957  10.012 -0.7356 -0.1550 -1.2904
   98OSM    H9T 9766   3.560   1.003  10.080 -1.1419  2.7299  0.4958
   98OSM   C10S 9767   3.541   0.981   9.874  0.2048 -0.2678 -0.3849
   98OSM   H10S 9768   3.586   0.879   9.880 -0.1285 -0.4754 -1.2481
   98OSM   H10T 9769   3.622   1.052   9.849 -1.6360  1.3584 -2.1362
   98OSM   C11S 9770   3.424   0.973   9.765 -0.0459 -0.0997  0.0864
   98OSM   H11S 9771   3.340   1.034   9.804  0.4052 -1.7587  4.1596
   98OSM   H11T 9772   3.388   0.868   9.758 -1.4583  0.4067 -0.6061
   98OSM   C12S 9773   3.497   0.997   9.631  0.3501  1.1413  0.0360
   98OSM   H12S 9774   3.565   0.909   9.626 -1.9345 -0.8160  1.3195
   98OSM   H12T 9775   3.556   1.090   9.646  0.0008  1.2607  0.6847
   98OSM   C13S 9776   3.409   1.003   9.504 -0.4897 -0.3913 -0.3891
   98OSM   H13S 9777   3.327   1.077   9.515 -1.8156 -1.3518 -2.9120
   98OSM   H13T 9778   3.362   0.902   9.512 -1.7775  0.2744  0.9413
   98OSM   C14S 9779   3.489   1.038   9.380  1.2266 -0.1337  0.7453
   98OSM   H14S 9780   3.579   0.973   9.375  2.3417  1.3399  1.0554
   98OSM   H14T 9781   3.532   1.140   9.393 -0.9476  0.7892  1.1639
   98OSM   C15S 9782   3.405   1.052   9.256  0.0318  0.1188 -0.2005
   98OSM   H15S 9783   3.464   1.093   9.171  0.3530 -3.0095 -1.6111
   98OSM   H15T 9784   3.324   1.126   9.274 -1.5657 -1.1454 -1.8206
   98OSM   C16S 9785   3.332   0.932   9.202 -0.0839 -0.1428 -0.0113
   98OSM   H16S 9786   3.236   0.916   9.256  1.1740 -0.8059  2.1255
   98OSM   H16T 9787   3.397   0.846   9.227  1.3368  1.3931  1.9264
   98OSM   C17S 9788   3.282   0.947   9.056 -0.0955 -0.9713 -0.5826
   98OSM   H17S 9789   3.236   1.047   9.041  1.7503  0.0130  0.0443
   98OSM   H17T 9790   3.207   0.868   9.032  1.6992 -3.0451  0.3452
   98OSM   C18S 9791   3.387   0.938   8.946 -0.2252 -0.3572 -0.7845
   98OSM   H18S 9792   3.447   0.844   8.943  0.8079  0.3018 -0.9810
   98OSM   H18T 9793   3.465   1.015   8.961  2.6882 -3.3622  1.1044
   98OSM   H18U 9794   3.334   0.949   8.849 -2.9317 -1.7411  0.3922
   98OSM    C1F 9795   3.328   0.936  10.639  0.1150 -0.4152  0.7139
   98OSM     OF 9796   3.223   0.991  10.647  0.2729  0.2558 -0.8616
   98OSM    C2F 9797   3.341   0.785  10.641 -0.3749  0.2719  0.3591
   98OSM    H2F 9798   3.276   0.739  10.719 -1.5271  3.8643  1.7162
   98OSM    H2G 9799   3.448   0.762  10.660  0.5287  0.7626 -3.3409
   98OSM    C3F 9800   3.314   0.717  10.498  0.5453 -0.0894  0.0193
   98OSM    H3F 9801   3.354   0.779  10.415  0.7129  0.7898  0.7486
   98OSM    H3G 9802   3.204   0.710  10.482  0.4882  0.3936  0.1925
   98OSM    C4F 9803   3.374   0.574  10.504  0.3355 -1.1852 -0.0872
   98OSM    H4F 9804   3.306   0.522  10.574 -1.8053  1.4737 -0.0450
   98OSM    H4G 9805   3.480   0.572  10.538  0.4957 -0.3255 -0.5035
   98OSM    C5F 9806   3.361   0.489  10.369  0.1132 -0.1461 -0.2403
   98OSM    H5F 9807   3.380   0.557  10.282 -1.9115 -1.4999 -1.8476
   98OSM    H5G 9808   3.254   0.457  10.369 -0.3378  1.2748  0.5357
   98OSM    C6F 9809   3.442   0.368  10.366  0.5422  0.1821 -0.2815
   98OSM    H6F 9810   3.446   0.329  10.470 -0.2802 -1.1608 -0.7237
   98OSM    H6G 9811   3.546   0.385  10.330  0.4469 -0.9434 -1.1361
   98OSM    C7F 9812   3.396   0.256  10.273 -0.3793 -0.2906  0.2033
   98OSM    H7F 9813   3.287   0.245  10.291 -0.6523  1.0831 -0.5595
   98OSM    H7G 9814   3.459   0.171  10.309  2.0692  0.8561 -1.1850
   98OSM    C8F 9815   3.420   0.287  10.121 -0.7092 -0.4906 -1.0471
   98OSM    H8F 9816   3.528   0.284  10.096 -0.3330 -0.5532  0.4707
   98OSM    H8G 9817   3.391   0.392  10.099  1.6964  0.4135 -0.2521
   98OSM    C9F 9818   3.352   0.187  10.041  0.5515  0.7071 -0.1379
   98OSM    H9F 9819   3.259   0.147  10.083 -1.0896  2.3701 -1.9885
   98OSM   C10F 9820   3.396   0.129   9.927 -0.0021 -0.2955  0.6685
   98OSM   H10F 9821   3.334   0.052   9.880  0.0607 -0.2257  0.4709
   98OSM   C11F 9822   3.516   0.177   9.851 -0.6363 -0.0410 -0.0975
   98OSM   H11F 9823   3.609   0.151   9.906 -0.5779  1.4277  0.5252
   98OSM   H11G 9824   3.529   0.286   9.840 -0.3170 -0.0800 -0.1135
   98OSM   C12F 9825   3.529   0.103   9.714 -0.5902 -0.3822 -0.4517
   98OSM   H12F 9826   3.519  -0.006   9.729 -0.2010 -0.3624 -0.0432
   98OSM   H12G 9827   3.633   0.121   9.677 -0.9670  1.0959 -0.8781
   98OSM   C13F 9828   3.434   0.155   9.597 -0.0874  0.0649 -0.2289
   98OSM   H13F 9829   3.467   0.259   9.573  0.7961  0.3306  1.9207
   98OSM   H13G 9830   3.332   0.155   9.641 -0.8032 -3.5059 -1.5792
   98OSM   C14F 9831   3.429   0.073   9.462 -0.4544 -0.1528 -0.4601
   98OSM   H14F 9832   3.346   0.119   9.404 -1.0843  0.5209  0.9236
   98OSM   H14G 9833   3.397  -0.033   9.475  0.9674 -0.6274 -0.7110
   98OSM   C15F 9834   3.556   0.094   9.380  0.6792 -0.2622  0.1366
   98OSM   H15F 9835   3.649   0.045   9.417 -0.0982 -2.5011 -0.7269
   98OSM   H15G 9836   3.573   0.204   9.381  1.6018 -0.3755  2.2044
   98OSM   C16F 9837   3.532   0.047   9.238  0.3583 -0.4057  0.0300
   98OSM   H16F 9838   3.457   0.112   9.187 -0.1603  1.0200  2.4284
   98OSM   H16G 9839   3.479  -0.051   9.243  1.2723 -1.0574 -1.8529
   98OSM   C17F 9840   3.657   0.043   9.158 -0.5213 -0.6697  0.0311
   98OSM   H17F 9841   3.737   0.001   9.222 -0.5037 -0.1793  0.3339
   98OSM   H17G 9842   3.695   0.147   9.145 -2.2738 -0.2978 -3.2445
   98OSM   C18F 9843   3.643  -0.027   9.028 -0.1423  0.1421  0.0482
   98OSM   H18F 9844   3.553   0.011   8.975 -0.2166  1.2871  0.9628
   98OSM   H18G 9845   3.632  -0.134   9.055 -1.2369  0.3293  0.4097
   98OSM   H18H 9846   3.725  -0.012   8.955 -1.4950  0.4667 -1.4698
   99OSM      N 9847   6.145   3.145  10.508 -0.6582 -0.2818 -0.0405
   99OSM    C15 9848   6.272   3.064  10.492  0.5862  0.6391 -0.2362
   99OSM   H15A 9849   6.300   3.028  10.394 -2.2343 -3.3326  0.1514
   99OSM   H15B 9850   6.262   2.968  10.542  0.1892  0.5470 -0.4898
   99OSM   H15C 9851   6.352   3.126  10.529 -0.0526  1.5681 -0.3745
   99OSM    C14 9852   6.171   3.217  10.638 -0.5509 -0.0273 -0.1041
   99OSM   H14A 9853   6.181   3.157  10.726 -0.5280  1.5598  1.0175
   99OSM   H14B 9854   6.089   3.284  10.662 -0.8263 -0.2420 -0.4296
   99OSM   H14C 9855   6.259   3.279  10.630 -1.2326  0.8901 -0.9252
   99OSM    C13 9856   6.148   3.245  10.395 -0.6447  0.1446  0.1925
   99OSM   H13A 9857   6.222   3.322  10.411  1.1055 -1.0441 -1.6595
   99OSM   H13B 9858   6.052   3.291  10.377 -1.0000 -0.7981 -0.3946
   99OSM   H13C 9859   6.170   3.190  10.304 -0.1012 -0.1219  0.4850
   99OSM    C12 9860   6.025   3.061  10.499  0.2327  0.6226 -0.4767
   99OSM   H12A 9861   6.018   2.998  10.412  2.0998 -1.5598  0.8491
   99OSM   H12B 9862   5.939   3.124  10.479 -0.8570 -0.0640  1.6671
   99OSM    C11 9863   5.985   2.975  10.627  0.0351  0.9504  0.5187
   99OSM   H11A 9864   6.081   2.926  10.656  0.3617  0.7122 -0.8600
   99OSM   H11B 9865   5.917   2.894  10.593  0.5565 -0.0299  1.7487
   99OSM      P 9866   5.778   3.069  10.757 -0.4275  0.0131 -0.5981
   99OSM    O13 9867   5.726   2.986  10.873 -0.5738  0.1980 -0.0170
   99OSM    O14 9868   5.749   3.216  10.763  0.5000  0.4608  0.0697
   99OSM    O11 9869   5.713   3.016  10.618  0.0106  0.2165  0.0095
   99OSM    O12 9870   5.934   3.053  10.736 -0.2195  0.0510 -0.4565
   99OSM    C1S 9871   5.647   3.111  10.530  0.3327  0.3176 -1.0589
   99OSM    H1S 9872   5.694   3.210  10.548 -1.2502  0.6760  1.8579
   99OSM    H1T 9873   5.538   3.116  10.550  0.6406 -2.4907  2.2638
   99OSM     NF 9874   5.654   3.186  10.299 -0.3038  0.2088 -0.4326
   99OSM    HNF 9875   5.568   3.183  10.248 -0.6928  0.4187  0.1941
   99OSM    C2S 9876   5.671   3.071  10.383  1.1706  0.3367 -0.4267
   99OSM    H2S 9877   5.773   3.028  10.374 -0.0545 -2.3437 -2.6812
   99OSM    C3S 9878   5.585   2.953  10.340  1.1230 -0.3999 -0.8957
   99OSM    H3S 9879   5.478   2.977  10.359  0.7136 -1.5470 -1.6738
   99OSM     O3 9880   5.611   2.838  10.417 -0.2680  0.0970  0.6791
   99OSM    HO3 9881   5.667   2.863  10.490  1.4575  1.3552 -0.9564
   99OSM    C4S 9882   5.602   2.927  10.196 -0.2866  0.2741 -0.0379
   99OSM    H4S 9883   5.517   2.974  10.143 -0.0879  0.9643  0.2438
   99OSM    C5S 9884   5.702   2.863  10.128 -0.0966  0.0875 -0.0650
   99OSM    H5S 9885   5.785   2.821  10.187 -0.1498  0.9160  0.6106
   99OSM    C6S 9886   5.717   2.852   9.983  0.5807  0.6585  0.8534
   99OSM    H6S 9887   5.673   2.755   9.951 -0.1671  1.3960 -0.4916
   99OSM    H6T 9888   5.825   2.842   9.959  0.2096 -1.3102 -0.2008
   99OSM    C7S 9889   5.653   2.963   9.901  0.8590 -0.6796 -0.0973
   99OSM    H7S 9890   5.675   3.065   9.938 -1.8850  0.4491 -1.2876
   99OSM    H7T 9891   5.543   2.953   9.915  0.6548  1.7992  0.4366
   99OSM    C8S 9892   5.698   2.964   9.756  0.4942  0.0599  0.4152
   99OSM    H8S 9893   5.646   2.879   9.706 -2.5099  1.7952  0.3176
   99OSM    H8T 9894   5.808   2.950   9.750  0.8359  2.1020  1.1059
   99OSM    C9S 9895   5.659   3.076   9.661  0.8729  0.5522  0.5138
   99OSM    H9S 9896   5.737   3.156   9.658 -1.8321  3.4827  2.5903
   99OSM    H9T 9897   5.557   3.117   9.675  0.3061 -0.9543  0.9134
   99OSM   C10S 9898   5.641   3.023   9.519  0.0905 -0.6619 -0.0870
   99OSM   H10S 9899   5.559   2.948   9.517  0.6906 -1.4255  1.8349
   99OSM   H10T 9900   5.738   2.976   9.493 -0.3015 -0.7288 -1.4863
   99OSM   C11S 9901   5.606   3.138   9.430  0.1266 -0.4436 -0.1088
   99OSM   H11S 9902   5.697   3.201   9.424 -0.5502  0.4929 -1.0314
   99OSM   H11T 9903   5.514   3.189   9.466  0.2321 -1.0693  1.0755
   99OSM   C12S 9904   5.577   3.096   9.287  0.1771 -0.0709  0.3776
   99OSM   H12S 9905   5.674   3.060   9.247 -0.8314 -1.2272 -1.1732
   99OSM   H12T 9906   5.504   3.013   9.280 -2.3176  1.9590  0.8389
   99OSM   C13S 9907   5.544   3.216   9.189 -0.3461  0.2430 -1.1865
   99OSM   H13S 9908   5.628   3.288   9.176 -1.7036  2.7277  2.2352
   99OSM   H13T 9909   5.473   3.274   9.252  1.1194  1.3086 -0.4512
   99OSM   C14S 9910   5.478   3.171   9.059  0.0138  0.5955  0.2953
   99OSM   H14S 9911   5.390   3.108   9.084 -0.7860  2.3358  2.1798
   99OSM   H14T 9912   5.542   3.111   8.991 -1.9366 -0.4143 -0.7285
   99OSM   C15S 9913   5.407   3.282   8.978  0.2725  0.4072 -0.1736
   99OSM   H15S 9914   5.490   3.349   8.950  1.8126 -1.4630 -0.3001
   99OSM   H15T 9915   5.340   3.337   9.047  2.1081  1.9295  0.4780
   99OSM   C16S 9916   5.322   3.228   8.859 -0.5577 -0.0419  0.3348
   99OSM   H16S 9917   5.256   3.151   8.905  0.3062 -0.5298  0.7998
   99OSM   H16T 9918   5.394   3.165   8.803 -0.3592  0.0157  0.5208
   99OSM   C17S 9919   5.260   3.335   8.766  0.3583  0.3372  0.3641
   99OSM   H17S 9920   5.201   3.409   8.824 -0.2965  0.9781 -1.0731
   99OSM   H17T 9921   5.188   3.289   8.695 -1.3130  2.9006  0.2538
   99OSM   C18S 9922   5.369   3.404   8.681 -0.4017 -0.1421  0.9555
   99OSM   H18S 9923   5.428   3.335   8.616 -2.8124 -1.9080  0.5154
   99OSM   H18T 9924   5.432   3.471   8.743  1.4097 -0.1021 -0.8217
   99OSM   H18U 9925   5.309   3.462   8.607 -4.3815 -3.7099  1.0155
   99OSM    C1F 9926   5.749   3.281  10.282  0.0320 -0.1759 -0.8094
   99OSM     OF 9927   5.850   3.291  10.353  0.3867 -0.2755  0.5988
   99OSM    C2F 9928   5.729   3.375  10.169  0.2248  0.1448 -0.0907
   99OSM    H2F 9929   5.634   3.429  10.186 -0.9624 -0.4091 -3.9116
   99OSM    H2G 9930   5.710   3.320  10.074 -0.7487  0.4455 -0.0732
   99OSM    C3F 9931   5.832   3.486  10.155  0.5380  0.4431 -0.0222
   99OSM    H3F 9932   5.792   3.551  10.075 -1.2989 -1.5033 -0.8006
   99OSM    H3G 9933   5.824   3.535  10.254  0.2744  1.9792 -0.7832
   99OSM    C4F 9934   5.978   3.445  10.127 -0.3660  0.0150 -1.0506
   99OSM    H4F 9935   6.023   3.403  10.219 -0.6614 -1.2128 -1.4529
   99OSM    H4G 9936   6.034   3.539  10.106 -0.2273 -0.0109 -0.7905
   99OSM    C5F 9937   6.006   3.359  10.009  0.7207  0.5019  0.0363
   99OSM    H5F 9938   5.945   3.266  10.008  0.4645  0.6645 -1.6836
   99OSM    H5G 9939   6.108   3.316  10.019  0.2872 -0.5398  0.1457
   99OSM    C6F 9940   5.974   3.430   9.877 -0.6513  0.3388 -0.6578
   99OSM    H6F 9941   6.046   3.514   9.862  1.5860 -1.8357 -2.9886
   99OSM    H6G 9942   5.869   3.468   9.876 -0.4449  1.0329  0.8168
   99OSM    C7F 9943   5.994   3.340   9.752 -0.1383  0.2366  0.0008
   99OSM    H7F 9944   5.919   3.258   9.750  0.6494 -0.4959 -0.1178
   99OSM    H7G 9945   6.099   3.304   9.759 -0.0430  0.5365  0.1184
   99OSM    C8F 9946   5.965   3.417   9.616  0.3284 -0.3496  0.5555
   99OSM    H8F 9947   6.040   3.499   9.616 -0.2460  0.2985 -2.4358
   99OSM    H8G 9948   5.863   3.462   9.614 -0.5155 -2.1567 -0.5616
   99OSM    C9F 9949   5.972   3.332   9.493  0.0067  0.3417  0.5040
   99OSM    H9F 9950   5.893   3.256   9.496  0.1712  0.0288 -1.7145
   99OSM   C10F 9951   6.060   3.339   9.391  0.6310 -0.1465  0.5823
   99OSM   H10F 9952   6.060   3.252   9.325 -0.1985 -0.6310  1.2012
   99OSM   C11F 9953   6.179   3.436   9.372  0.2216  0.2301 -0.3222
   99OSM   H11F 9954   6.279   3.387   9.374  0.4214  0.5713 -1.2488
   99OSM   H11G 9955   6.174   3.512   9.452 -1.3490  0.5306 -0.6671
   99OSM   C12F 9956   6.165   3.521   9.241 -0.8776 -0.8434  0.0560
   99OSM   H12F 9957   6.229   3.610   9.261 -1.0582 -0.6439 -0.2377
   99OSM   H12G 9958   6.058   3.553   9.235 -1.3692 -2.0237  1.8269
   99OSM   C13F 9959   6.211   3.457   9.105 -0.5924 -0.8469 -0.3646
   99OSM   H13F 9960   6.144   3.372   9.082  0.3727 -0.8960 -3.3354
   99OSM   H13G 9961   6.308   3.404   9.105 -0.2861 -0.2936 -0.2242
   99OSM   C14F 9962   6.194   3.557   8.983 -0.7795  0.1025  0.0992
   99OSM   H14F 9963   6.282   3.624   8.984 -0.8976  0.3041 -1.0503
   99OSM   H14G 9964   6.108   3.627   8.979 -0.5699  0.3129 -1.6652
   99OSM   C15F 9965   6.206   3.483   8.846  0.2207 -0.4608 -0.7418
   99OSM   H15F 9966   6.141   3.394   8.840  3.3280 -2.9618 -0.0183
   99OSM   H15G 9967   6.315   3.465   8.832 -0.1565 -1.8729 -2.1421
   99OSM   C16F 9968   6.166   3.583   8.736 -0.0252 -0.1254 -0.0330
   99OSM   H16F 9969   6.218   3.677   8.765  0.7165 -0.8807  1.1563
   99OSM   H16G 9970   6.056   3.604   8.737 -0.0277  0.2037 -2.3090
   99OSM   C17F 9971   6.191   3.532   8.593  0.0135  0.5047 -0.8929
   99OSM   H17F 9972   6.125   3.446   8.570  1.5307 -1.3003  1.0521
   99OSM   H17G 9973   6.294   3.490   8.581 -0.4834 -1.9613  2.1201
   99OSM   C18F 9974   6.181   3.642   8.488 -0.6234 -0.4796  1.1475
   99OSM   H18F 9975   6.076   3.679   8.479 -0.4629  0.2683  2.1916
   99OSM   H18G 9976   6.226   3.611   8.391  0.7370  1.8126  0.9723
   99OSM   H18H 9977   6.234   3.733   8.524  0.1262 -0.7998  0.8658
  100OSM      N 9978   5.697   4.865  10.876 -0.0321 -0.3051 -0.0648
  100OSM    C15 9979   5.747   4.724  10.859  0.3232 -0.1212  0.3191
  100OSM   H15A 9980   5.811   4.734  10.773 -1.8073  4.9320 -1.0407
  100OSM   H15B 9981   5.662   4.662  10.836  0.8399 -0.3901 -0.9430
  100OSM   H15C 9982   5.802   4.685  10.944 -0.8534 -0.4046  0.9733
  100OSM    C14 9983   5.592   4.855  10.981  0.3233 -0.2457 -0.9581
  100OSM   H14A 9984   5.505   4.795  10.955 -0.0697 -0.2289  0.2460
  100OSM   H14B 9985   5.562   4.954  11.011 -0.3066 -1.0009  1.0804
  100OSM   H14C 9986   5.624   4.804  11.070 -1.5663  0.6739  0.3227
  100OSM    C13 9987   5.798   4.962  10.925 -0.9158 -0.1181  0.0400
  100OSM   H13A 9988   5.834   4.927  11.021  1.8839  1.0692 -0.4643
  100OSM   H13B 9989   5.767   5.064  10.943  0.5417  0.2460  0.6546
  100OSM   H13C 9990   5.879   4.969  10.854 -1.4486  1.7348 -0.4314
  100OSM    C12 9991   5.634   4.906  10.748 -0.4224  0.5204  0.0088
  100OSM   H12A 9992   5.565   4.988  10.763 -1.3326  0.0110 -1.2871
  100OSM   H12B 9993   5.579   4.818  10.719 -0.4332  0.8648 -1.0592
  100OSM    C11 9994   5.732   4.939  10.631  0.0950  0.2229  0.6864
  100OSM   H11A 9995   5.783   5.036  10.652  0.6171 -0.1543  1.1735
  100OSM   H11B 9996   5.668   4.964  10.544  1.2301 -1.0643 -0.5747
  100OSM      P 9997   5.960   4.839  10.571  0.0753  0.0622  0.0818
  100OSM    O13 9998   5.993   4.983  10.570 -0.3975  0.4249 -0.0423
  100OSM    O14 9999   6.037   4.751  10.663 -0.1400 -0.4873  0.0521
  100OSM    O1110000   5.986   4.777  10.431  0.1597  0.1520 -0.2906
  100OSM    O1210001   5.813   4.823  10.598 -0.8313  0.4023 -0.4722
  100OSM    C1S10002   5.896   4.819  10.322  0.0650  0.1039 -0.5957
  100OSM    H1S10003   5.868   4.926  10.323 -1.3040 -0.2404 -0.1229
  100OSM    H1T10004   5.798   4.765  10.323  1.3651 -2.4598 -1.7296
  100OSM     NF10005   5.898   4.849  10.067  0.5368  0.1900  0.3101
  100OSM    HNF10006   5.828   4.802  10.014 -0.5986  2.7041 -0.5387
  100OSM    C2S10007   5.959   4.778  10.191 -0.2107 -0.0730  0.0280
  100OSM    H2S10008   6.065   4.807  10.204 -0.0492 -1.5148  2.6015
  100OSM    C3S10009   5.954   4.620  10.175  0.7346 -0.0276 -0.7348
  100OSM    H3S10010   5.849   4.590  10.157  0.4025  0.3062  0.5340
  100OSM     O310011   6.001   4.546  10.286 -0.8538  0.3011 -0.1993
  100OSM    HO310012   5.997   4.612  10.356  0.5734  0.8109 -0.5535
  100OSM    C4S10013   6.035   4.580  10.047 -0.2745  0.0357 -0.1368
  100OSM    H4S10014   5.973   4.578   9.955  0.1015  0.1035 -0.3923
  100OSM    C5S10015   6.161   4.541  10.049 -0.1232  0.5569 -0.3204
  100OSM    H5S10016   6.208   4.518  10.145 -0.2631  1.6357  0.0173
  100OSM    C6S10017   6.240   4.491   9.930 -0.1655 -0.7349  0.0424
  100OSM    H6S10018   6.319   4.427   9.974 -2.0962 -2.3013  1.3861
  100OSM    H6T10019   6.301   4.569   9.881 -0.5198 -0.4795 -0.0021
  100OSM    C7S10020   6.165   4.411   9.822 -0.8216 -0.2502 -0.0150
  100OSM    H7S10021   6.102   4.337   9.877 -0.2607 -0.3876  0.4629
  100OSM    H7T10022   6.233   4.343   9.767  1.0851 -0.6759  2.6651
  100OSM    C8S10023   6.085   4.503   9.732  0.6450  0.0084 -0.5027
  100OSM    H8S10024   6.141   4.598   9.722 -0.0245  0.9586  3.3684
  100OSM    H8T10025   5.987   4.516   9.783  1.5805 -1.1016  1.7106
  100OSM    C9S10026   6.058   4.434   9.604 -0.0216  0.4519  1.1284
  100OSM    H9S10027   5.967   4.470   9.550  1.5157  1.2847 -1.0326
  100OSM    H9T10028   6.022   4.329   9.612 -2.9579  1.2013 -0.5898
  100OSM   C10S10029   6.173   4.440   9.501  0.2232 -0.2912  0.0902
  100OSM   H10S10030   6.262   4.396   9.551  1.7511  2.1466 -0.2994
  100OSM   H10T10031   6.204   4.544   9.474 -0.5667 -0.8935 -3.6711
  100OSM   C11S10032   6.152   4.371   9.368  0.6393  0.0854  0.6325
  100OSM   H11S10033   6.125   4.265   9.385  3.4600 -0.8564 -0.2318
  100OSM   H11T10034   6.247   4.365   9.312 -0.0972 -0.5453 -0.6045
  100OSM   C12S10035   6.065   4.437   9.266 -0.1119 -0.5186  0.3792
  100OSM   H12S10036   6.103   4.538   9.238 -0.0392 -0.1051  1.8673
  100OSM   H12T10037   5.961   4.449   9.303 -0.0171 -1.1210  0.8667
  100OSM   C13S10038   6.042   4.348   9.146  0.2372  0.4898  0.4757
  100OSM   H13S10039   6.014   4.252   9.195  0.6111  0.3208  0.3604
  100OSM   H13T10040   6.135   4.323   9.091 -1.1992 -0.3731 -1.7017
  100OSM   C14S10041   5.925   4.405   9.059  0.5161  0.0292  0.1514
  100OSM   H14S10042   5.941   4.499   9.001 -4.0710 -0.7436 -2.8637
  100OSM   H14T10043   5.831   4.410   9.117 -0.0328 -2.6389 -0.3851
  100OSM   C15S10044   5.891   4.304   8.953 -0.0422  0.2470 -0.0886
  100OSM   H15S10045   5.889   4.200   8.993 -2.2540  0.6633  1.0663
  100OSM   H15T10046   5.967   4.306   8.872  0.8434  1.2422  0.7530
  100OSM   C16S10047   5.745   4.316   8.895 -0.3889 -0.4699  0.5112
  100OSM   H16S10048   5.661   4.303   8.966  0.2918 -1.6000  1.1346
  100OSM   H16T10049   5.746   4.224   8.833  1.4145 -0.4336  0.4427
  100OSM   C17S10050   5.742   4.448   8.810  0.2743 -0.1368  0.3364
  100OSM   H17S10051   5.840   4.476   8.766  0.6255  0.2818  1.3537
  100OSM   H17T10052   5.722   4.536   8.876  1.9165  2.3175 -2.2060
  100OSM   C18S10053   5.631   4.458   8.704 -0.4017  0.4828  0.0099
  100OSM   H18S10054   5.632   4.557   8.656  1.3174  1.3203  1.6262
  100OSM   H18T10055   5.535   4.450   8.760 -1.1982  0.1840 -1.3551
  100OSM   H18U10056   5.643   4.371   8.636  0.4286  0.1153  0.6082
  100OSM    C1F10057   5.929   4.977  10.040 -0.5487  0.3056  0.0666
  100OSM     OF10058   6.013   5.028  10.117  0.3563 -0.2199 -0.3212
  100OSM    C2F10059   5.882   5.044   9.914  0.6695  0.8135  0.1380
  100OSM    H2F10060   5.772   5.035   9.925  1.0210 -1.7010  2.7783
  100OSM    H2G10061   5.915   4.991   9.823  0.5393 -0.1573  0.6405
  100OSM    C3F10062   5.915   5.193   9.908 -0.6196  0.4591 -0.9507
  100OSM    H3F10063   6.025   5.206   9.915 -0.6665  0.4942 -0.2375
  100OSM    H3G10064   5.868   5.232  10.001  1.8802  1.4727 -0.0213
  100OSM    C4F10065   5.852   5.258   9.794  0.4650  0.2749  0.1656
  100OSM    H4F10066   5.869   5.367   9.805  2.0168  0.1892 -1.0183
  100OSM    H4G10067   5.744   5.235   9.803  0.6378 -0.4389  0.5234
  100OSM    C5F10068   5.902   5.207   9.657  0.1447  0.2213 -0.2928
  100OSM    H5F10069   5.894   5.099   9.631  0.4363  0.6874 -2.5286
  100OSM    H5G10070   6.012   5.220   9.667 -0.2647  3.4929  1.1462
  100OSM    C6F10071   5.862   5.307   9.542  0.3731 -0.0196  0.1060
  100OSM    H6F10072   5.895   5.413   9.549  0.7342 -0.1404  0.2666
  100OSM    H6G10073   5.753   5.316   9.524  0.5927  1.9616 -0.5115
  100OSM    C7F10074   5.904   5.243   9.413 -0.0008 -0.1408 -0.0749
  100OSM    H7F10075   5.880   5.135   9.404 -2.8250  0.4194 -0.1819
  100OSM    H7G10076   6.015   5.251   9.406 -0.0387  0.2380 -0.2331
  100OSM    C8F10077   5.861   5.310   9.285 -0.2524 -0.2622 -0.3786
  100OSM    H8F10078   5.893   5.417   9.295 -0.9215 -0.1586  0.9330
  100OSM    H8G10079   5.750   5.308   9.291 -0.2349 -0.5407 -0.1197
  100OSM    C9F10080   5.909   5.250   9.151 -0.0057  0.0869  0.8597
  100OSM    H9F10081   5.897   5.141   9.149 -1.4044  0.2115  1.6096
  100OSM   C10F10082   5.953   5.318   9.037  0.6974  0.6254  0.0524
  100OSM   H10F10083   5.997   5.271   8.947 -1.6945 -1.0901 -0.3085
  100OSM   C11F10084   5.967   5.462   9.026  0.3037  0.1266  0.1787
  100OSM   H11F10085   6.076   5.476   9.046  0.1337 -0.2854  1.5367
  100OSM   H11G10086   5.910   5.511   9.108  0.4038  0.8046 -0.1470
  100OSM   C12F10087   5.910   5.531   8.899 -0.4566 -0.4311 -0.3846
  100OSM   H12F10088   5.934   5.638   8.914 -0.6592 -0.3194 -0.8230
  100OSM   H12G10089   5.801   5.518   8.882 -0.8276  0.1080  1.4207
  100OSM   C13F10090   5.986   5.484   8.772  0.1408 -0.6155 -0.1697
  100OSM   H13F10091   5.935   5.534   8.687  1.7312 -0.2249 -0.9262
  100OSM   H13G10092   5.978   5.373   8.762  1.2556 -0.7257  0.0917
  100OSM   C14F10093   6.134   5.507   8.767  0.1958  0.3478 -0.0213
  100OSM   H14F10094   6.189   5.449   8.845  1.0193 -1.3588 -1.7765
  100OSM   H14G10095   6.160   5.614   8.783  0.2561  0.4966 -1.0357
  100OSM   C15F10096   6.201   5.483   8.626  0.4296 -0.4883 -0.0893
  100OSM   H15F10097   6.299   5.533   8.615  0.1331  0.7038  2.1129
  100OSM   H15G10098   6.133   5.529   8.550 -0.6636  0.5937  1.4879
  100OSM   C16F10099   6.214   5.327   8.586  0.0924 -0.2291  0.1020
  100OSM   H16F10100   6.219   5.325   8.475  1.2790 -3.8588  0.0807
  100OSM   H16G10101   6.118   5.278   8.615  0.0825 -0.5843 -0.5147
  100OSM   C17F10102   6.344   5.264   8.628  0.1577  1.1165 -0.2496
  100OSM   H17F10103   6.432   5.318   8.588  0.0450 -0.2549 -2.5343
  100OSM   H17G10104   6.353   5.160   8.587  0.8862  0.8548  0.5485
  100OSM   C18F10105   6.353   5.224   8.778 -0.0149  0.5623 -0.0227
  100OSM   H18F10106   6.257   5.175   8.805  1.8635 -3.1085  0.4603
  100OSM   H18G10107   6.371   5.314   8.841 -0.3515  1.6450 -1.3911
  100OSM   H18H10108   6.439   5.159   8.804 -1.8398 -1.7592  0.4945
  101OSM      N10109   4.498   1.917  11.063 -0.2070 -0.2063  0.0795
  101OSM    C1510110   4.601   1.810  11.060  0.7283 -0.2277 -0.6975
  101OSM   H15A10111   4.681   1.849  10.999  0.6448  1.0840  0.0001
  101OSM   H15B10112   4.567   1.715  11.020  1.8037 -1.8292  1.9418
  101OSM   H15C10113   4.637   1.779  11.157 -1.0023 -2.1709 -0.5995
  101OSM    C1410114   4.383   1.866  11.145 -0.1965 -0.4210  0.1042
  101OSM   H14A10115   4.417   1.854  11.247  0.5757  0.4595 -0.0417
  101OSM   H14B10116   4.347   1.768  11.118 -3.6309  0.1921  1.9813
  101OSM   H14C10117   4.301   1.936  11.139  0.2360  0.0816  0.0012
  101OSM    C1310118   4.546   2.049  11.105 -0.1749  0.5796  0.4829
  101OSM   H13A10119   4.550   2.049  11.213 -1.7525  1.6197  0.5768
  101OSM   H13B10120   4.479   2.130  11.082  0.8632  1.3946  0.2747
  101OSM   H13C10121   4.646   2.072  11.072 -0.8069  1.3421 -1.0002
  101OSM    C1210122   4.465   1.929  10.918  0.1610  0.2853 -0.2937
  101OSM   H12A10123   4.428   1.836  10.879 -3.1420  1.5916 -0.5915
  101OSM   H12B10124   4.557   1.954  10.868  0.9028 -0.5622  0.5989
  101OSM    C1110125   4.362   2.036  10.871  0.1790  0.0550  0.5214
  101OSM   H11A10126   4.262   2.023  10.919 -1.4779  0.2186 -2.6683
  101OSM   H11B10127   4.335   2.012  10.767 -1.2679 -0.1020  0.9158
  101OSM      P10128   4.505   2.236  10.777 -0.7252  0.3061 -0.0763
  101OSM    O1310129   4.541   2.370  10.832  0.2924  0.1820  0.4569
  101OSM    O1410130   4.619   2.152  10.748 -0.1296 -0.0022 -0.1889
  101OSM    O1110131   4.426   2.246  10.648  0.4453  0.1908  0.3286
  101OSM    O1210132   4.412   2.162  10.881  0.6027 -0.1164 -0.2543
  101OSM    C1S10133   4.285   2.271  10.656 -0.0177 -0.3146 -0.1457
  101OSM    H1S10134   4.278   2.377  10.691 -2.2105 -0.9564  1.5958
  101OSM    H1T10135   4.230   2.206  10.728  1.2967 -0.7696  0.4834
  101OSM     NF10136   4.079   2.300  10.519  0.0155 -0.5353 -0.5503
  101OSM    HNF10137   4.006   2.235  10.502 -0.5279 -0.1272  0.1922
  101OSM    C2S10138   4.221   2.257  10.518  0.3431  0.6811  0.1564
  101OSM    H2S10139   4.273   2.325  10.447 -0.7345  1.1003 -0.2487
  101OSM    C3S10140   4.243   2.110  10.470  0.0476 -0.8081 -0.6845
  101OSM    H3S10141   4.193   2.038  10.538 -1.9347 -0.6690 -1.8871
  101OSM     O310142   4.381   2.068  10.473  0.4904  0.6123 -0.0979
  101OSM    HO310143   4.425   2.127  10.536 -0.9157  1.0064  0.5621
  101OSM    C4S10144   4.177   2.081  10.335  0.7107 -0.7197  0.4889
  101OSM    H4S10145   4.072   2.049  10.344  0.1759  0.5020 -0.9371
  101OSM    C5S10146   4.227   2.095  10.214  0.8686 -0.0975  0.3523
  101OSM    H5S10147   4.329   2.131  10.197  1.1627 -1.2317 -0.4022
  101OSM    C6S10148   4.136   2.081  10.089  0.0499  0.8259  0.2724
  101OSM    H6S10149   4.031   2.056  10.115 -0.8842 -0.0322 -3.6281
  101OSM    H6T10150   4.171   1.986  10.042  1.2607 -0.2781  3.1349
  101OSM    C7S10151   4.129   2.194   9.985  0.3994 -0.2452 -0.3634
  101OSM    H7S10152   4.228   2.219   9.940  0.3668 -0.7234 -0.7086
  101OSM    H7T10153   4.088   2.282  10.039 -0.6588 -2.1361  2.0798
  101OSM    C8S10154   4.021   2.158   9.889  0.7799 -0.0462 -0.0208
  101OSM    H8S10155   3.920   2.142   9.934  0.0425  1.5105 -1.0510
  101OSM    H8T10156   4.044   2.065   9.833 -2.8552 -0.1570 -1.6778
  101OSM    C9S10157   4.008   2.259   9.771  0.5253  0.6265 -1.0292
  101OSM    H9S10158   4.111   2.299   9.757  1.4611 -0.8263  1.0856
  101OSM    H9T10159   3.944   2.346   9.801  1.6572  0.6244  1.7484
  101OSM   C10S10160   3.966   2.189   9.651 -0.2798 -0.4257  0.4279
  101OSM   H10S10161   3.882   2.119   9.672  1.4303 -2.6463  0.2810
  101OSM   H10T10162   4.036   2.112   9.613 -1.7289 -1.7336  0.3045
  101OSM   C11S10163   3.935   2.279   9.535  0.4106 -0.4684  0.3107
  101OSM   H11S10164   3.842   2.336   9.556  0.7773  0.9123 -1.5303
  101OSM   H11T10165   3.922   2.208   9.450  3.0742 -0.0452 -0.5524
  101OSM   C12S10166   4.043   2.381   9.509 -0.7038 -0.5630 -0.3779
  101OSM   H12S10167   4.145   2.337   9.503 -1.5318 -3.0749  2.0400
  101OSM   H12T10168   4.060   2.448   9.596  1.4518  0.1917 -1.3074
  101OSM   C13S10169   4.010   2.463   9.384 -0.1163 -0.2478 -0.6166
  101OSM   H13S10170   4.065   2.559   9.390 -2.3859  1.4259 -3.5982
  101OSM   H13T10171   3.907   2.505   9.392 -0.1572 -0.5950  1.2784
  101OSM   C14S10172   4.013   2.382   9.256  0.1507  0.1047  0.1440
  101OSM   H14S10173   3.918   2.327   9.237  0.7283 -1.6114  1.9357
  101OSM   H14T10174   4.092   2.304   9.258 -0.5794 -0.6703 -0.3693
  101OSM   C15S10175   4.030   2.475   9.132  0.8094 -0.8541 -0.5106
  101OSM   H15S10176   4.130   2.520   9.149  0.7668 -0.8029 -0.3961
  101OSM   H15T10177   3.949   2.549   9.140 -0.1039 -1.8516 -0.3176
  101OSM   C16S10178   4.015   2.414   9.001 -0.2882  0.4555  0.5511
  101OSM   H16S10179   3.912   2.373   8.992 -0.1920  0.2518  0.3871
  101OSM   H16T10180   4.080   2.329   8.974 -0.3259  0.8903 -0.9627
  101OSM   C17S10181   4.020   2.519   8.886  0.5687  0.8322  0.6993
  101OSM   H17S10182   4.106   2.588   8.901  1.9907 -0.7497  0.1804
  101OSM   H17T10183   3.932   2.586   8.888  1.0494  1.5507 -0.6058
  101OSM   C18S10184   4.034   2.450   8.744  0.3395 -0.2846 -0.2679
  101OSM   H18S10185   3.936   2.401   8.725  0.9781 -2.9856  2.7319
  101OSM   H18T10186   4.116   2.376   8.748 -1.9555 -3.4034 -3.6775
  101OSM   H18U10187   4.058   2.527   8.667 -0.2176 -0.3875 -0.5560
  101OSM    C1F10188   4.051   2.438  10.540  0.3329  0.6205  0.0719
  101OSM     OF10189   4.144   2.515  10.563 -0.1288 -0.2531  0.2711
  101OSM    C2F10190   3.909   2.484  10.537 -0.2631 -0.1115 -0.4159
  101OSM    H2F10191   3.895   2.572  10.603  1.0303 -0.0600 -0.1773
  101OSM    H2G10192   3.844   2.403  10.577  1.4604 -0.8293  1.0411
  101OSM    C3F10193   3.854   2.534  10.405 -0.4372  0.8407 -0.6290
  101OSM    H3F10194   3.925   2.616  10.379 -1.2949  1.6735 -0.4093
  101OSM    H3G10195   3.749   2.571  10.408 -0.5999  0.7537 -3.0850
  101OSM    C4F10196   3.857   2.425  10.300 -0.1696  0.6395 -0.2254
  101OSM    H4F10197   3.756   2.382  10.281 -1.1419  2.4408  0.6782
  101OSM    H4G10198   3.927   2.339  10.308 -2.2503 -1.2501 -1.0806
  101OSM    C5F10199   3.896   2.481  10.157 -0.5200  0.8923  0.0539
  101OSM    H5F10200   3.897   2.395  10.087 -0.7640 -0.2949  1.4484
  101OSM    H5G10201   3.994   2.534  10.160 -0.9507  1.6652  0.7640
  101OSM    C6F10202   3.783   2.580  10.108 -0.0380 -0.3038 -0.0101
  101OSM    H6F10203   3.686   2.525  10.108  0.7158 -1.6919 -1.1195
  101OSM    H6G10204   3.781   2.662  10.183  3.3220 -0.0820 -0.0332
  101OSM    C7F10205   3.816   2.645   9.976  0.3925 -0.6651  0.6160
  101OSM    H7F10206   3.835   2.561   9.906 -2.6871 -1.5905  0.7246
  101OSM    H7G10207   3.904   2.711   9.983  0.4893 -0.4677 -1.7126
  101OSM    C8F10208   3.691   2.721   9.926  0.1149  0.0015  0.1017
  101OSM    H8F10209   3.714   2.813   9.868 -1.3236 -0.1281 -0.7313
  101OSM    H8G10210   3.627   2.755  10.010  1.4000  1.7625  0.4352
  101OSM    C9F10211   3.609   2.636   9.825 -0.3961  0.0392  0.2722
  101OSM    H9F10212   3.551   2.552   9.865 -0.0802 -1.2496 -1.8543
  101OSM   C10F10213   3.590   2.662   9.696 -0.5859  0.7636  0.3285
  101OSM   H10F10214   3.519   2.601   9.638  1.3020  0.3382 -1.6435
  101OSM   C11F10215   3.644   2.777   9.614 -0.3314  0.5949  0.2005
  101OSM   H11F10216   3.680   2.858   9.680  1.3621 -1.2284  1.6617
  101OSM   H11G10217   3.560   2.815   9.553  1.3407 -0.9489 -3.3901
  101OSM   C12F10218   3.752   2.728   9.517  0.1211  0.2777  0.0352
  101OSM   H12F10219   3.719   2.641   9.456  0.1728  1.3554 -1.5729
  101OSM   H12G10220   3.841   2.701   9.577 -1.0694 -3.1478  0.4846
  101OSM   C13F10221   3.790   2.832   9.413  0.1285 -0.6773  0.1018
  101OSM   H13F10222   3.817   2.931   9.455 -0.3184 -0.4531 -0.1292
  101OSM   H13G10223   3.697   2.856   9.356  0.0838  1.5635  1.0112
  101OSM   C14F10224   3.895   2.787   9.307 -0.5088 -0.0923  0.4391
  101OSM   H14F10225   3.845   2.707   9.249 -2.4349  1.4743 -0.1746
  101OSM   H14G10226   3.993   2.760   9.351  0.5778  0.0979 -1.7548
  101OSM   C15F10227   3.924   2.905   9.217  0.2063 -0.6994 -0.4743
  101OSM   H15F10228   3.972   2.976   9.287 -1.1715  0.4345 -0.6196
  101OSM   H15G10229   3.836   2.959   9.175 -0.4508 -1.7742 -0.5352
  101OSM   C16F10230   4.023   2.867   9.115 -0.0274  0.4397 -0.2944
  101OSM   H16F10231   3.970   2.805   9.040 -1.8949  0.5430  0.8595
  101OSM   H16G10232   4.092   2.799   9.170 -1.8009  0.2102  1.7841
  101OSM   C17F10233   4.074   2.989   9.038 -0.1784  0.1775  0.1903
  101OSM   H17F10234   4.142   3.049   9.101  0.8395 -1.1284  0.3891
  101OSM   H17G10235   3.991   3.055   9.006  1.0140  1.1289 -1.0808
  101OSM   C18F10236   4.166   2.960   8.916  0.2313  0.3108 -0.2423
  101OSM   H18F10237   4.229   3.051   8.911  0.7856  0.0155  0.9435
  101OSM   H18G10238   4.101   2.954   8.827 -1.0890  1.7704  0.5792
  101OSM   H18H10239   4.234   2.878   8.949  2.5253  2.4391  0.6817
  102OSM      N10240   0.430   6.265  11.131  0.1322  0.2501 -0.3811
  102OSM    C1510241   0.380   6.392  11.074  0.3072 -0.7980 -0.5960
  102OSM   H15A10242   0.447   6.472  11.101 -1.9623  0.5502  1.4028
  102OSM   H15B10243   0.295   6.430  11.128  0.3500 -0.2124 -0.9298
  102OSM   H15C10244   0.361   6.384  10.968 -2.4174 -1.4464 -0.1272
  102OSM    C1410245   0.429   6.279  11.288  0.0179  0.3112  0.2592
  102OSM   H14A10246   0.455   6.186  11.336 -0.9977  0.8057  1.8473
  102OSM   H14B10247   0.326   6.297  11.313 -0.8847  0.6073 -3.1318
  102OSM   H14C10248   0.484   6.361  11.331 -0.1226  0.3526  0.3611
  102OSM    C1310249   0.339   6.146  11.106  0.0968  0.2200 -0.1866
  102OSM   H13A10250   0.233   6.163  11.120 -0.2591 -1.2508 -0.9784
  102OSM   H13B10251   0.364   6.064  11.172  0.2105  0.0556 -0.4347
  102OSM   H13C10252   0.348   6.101  11.009  0.7633  1.9769 -0.9738
  102OSM    C1210253   0.568   6.232  11.089 -0.1897  0.6128 -0.9708
  102OSM   H12A10254   0.619   6.159  11.150  0.3703  0.5167 -1.5405
  102OSM   H12B10255   0.625   6.321  11.113 -0.6785  0.8118 -0.5217
  102OSM    C1110256   0.593   6.210  10.939 -0.2673  0.2691  0.5332
  102OSM   H11A10257   0.504   6.163  10.893  0.1168 -0.2349  0.2901
  102OSM   H11B10258   0.688   6.156  10.917 -0.4509 -0.0065  0.4089
  102OSM      P10259   0.708   6.448  10.872  0.0044  0.0109  0.0545
  102OSM    O1310260   0.665   6.581  10.831  0.1060 -0.4610 -0.6904
  102OSM    O1410261   0.762   6.444  11.006 -0.7137 -0.1546 -0.3785
  102OSM    O1110262   0.807   6.397  10.768  0.0007 -0.1127 -0.1296
  102OSM    O1210263   0.595   6.345  10.881  0.0844 -0.4023  0.0896
  102OSM    C1S10264   0.758   6.352  10.636 -0.3568  0.1485  0.3392
  102OSM    H1S10265   0.655   6.391  10.621  0.3529  2.7920  1.7359
  102OSM    H1T10266   0.750   6.242  10.633 -1.7537  0.2253  0.7037
  102OSM     NF10267   0.810   6.333  10.393  0.0770 -0.6184 -0.6180
  102OSM    HNF10268   0.861   6.253  10.362  0.0744 -1.7186  1.9624
  102OSM    C2S10269   0.855   6.394  10.515  0.5599 -0.3493 -0.2811
  102OSM    H2S10270   0.837   6.503  10.500  0.0193 -0.2832  0.7998
  102OSM    C3S10271   1.006   6.378  10.552 -0.6407 -0.2913 -0.3199
  102OSM    H3S10272   1.028   6.274  10.584 -1.8469 -0.3482  0.4362
  102OSM     O310273   1.046   6.452  10.670  0.0650  0.4644 -0.0051
  102OSM    HO310274   0.960   6.456  10.714  0.2703 -3.7226  1.2987
  102OSM    C4S10275   1.095   6.412  10.435  1.3741  0.5119  1.0116
  102OSM    H4S10276   1.114   6.324  10.372  0.4037  0.6047  0.5694
  102OSM    C5S10277   1.137   6.533  10.399 -0.2383 -0.4968 -0.0709
  102OSM    H5S10278   1.105   6.623  10.453  0.8313  0.2260 -0.6136
  102OSM    C6S10279   1.227   6.568  10.282 -0.4815 -0.4021 -0.0454
  102OSM    H6S10280   1.329   6.584  10.325 -0.7379  0.2423  0.3362
  102OSM    H6T10281   1.190   6.669  10.251 -0.6491 -0.8072 -1.2222
  102OSM    C7S10282   1.241   6.471  10.159 -0.1302 -0.6308 -0.8860
  102OSM    H7S10283   1.136   6.458  10.128 -1.2481 -2.2725  3.0333
  102OSM    H7T10284   1.291   6.378  10.193  1.0500  0.8254  1.6348
  102OSM    C8S10285   1.317   6.532  10.036 -0.2752 -0.7710  0.6315
  102OSM    H8S10286   1.420   6.560  10.067  0.1948 -0.7912 -0.8187
  102OSM    H8T10287   1.263   6.626  10.011 -1.2958 -0.8762  2.3144
  102OSM    C9S10288   1.326   6.453   9.912  0.4851 -0.1513 -0.6577
  102OSM    H9S10289   1.221   6.433   9.882  0.2027  0.3125 -0.0037
  102OSM    H9T10290   1.385   6.362   9.938  1.5568  1.5240  3.4977
  102OSM   C10S10291   1.381   6.541   9.801 -0.1478  0.3469  0.4509
  102OSM   H10S10292   1.489   6.564   9.812  0.3161 -1.7922  0.9362
  102OSM   H10T10293   1.318   6.632   9.790 -0.9505 -0.0502  1.5711
  102OSM   C11S10294   1.357   6.469   9.664  0.2200 -0.4185 -0.0029
  102OSM   H11S10295   1.250   6.442   9.647  0.0060  0.8765 -0.9155
  102OSM   H11T10296   1.404   6.369   9.672  0.7480 -0.0725  1.4511
  102OSM   C12S10297   1.426   6.556   9.560 -0.2770 -0.2435  0.6552
  102OSM   H12S10298   1.533   6.575   9.583  0.3564 -1.4217 -1.1282
  102OSM   H12T10299   1.379   6.657   9.554  1.6105  0.6524  0.1327
  102OSM   C13S10300   1.421   6.483   9.424 -0.0558 -0.1439  0.1486
  102OSM   H13S10301   1.314   6.471   9.394  0.5250 -1.8260 -1.4682
  102OSM   H13T10302   1.461   6.379   9.424 -1.1242 -0.5882  1.3588
  102OSM   C14S10303   1.468   6.567   9.307 -0.3007  0.7008 -0.2672
  102OSM   H14S10304   1.576   6.594   9.316  0.3517 -0.7631 -2.6957
  102OSM   H14T10305   1.409   6.661   9.308 -1.0566  0.2422  1.6726
  102OSM   C15S10306   1.451   6.481   9.183  0.1002 -0.0579  0.3432
  102OSM   H15S10307   1.351   6.434   9.183  1.0946 -2.4623 -1.9308
  102OSM   H15T10308   1.517   6.391   9.180 -0.0900 -0.1694 -1.6066
  102OSM   C16S10309   1.461   6.570   9.060  0.5004  0.2852  0.0904
  102OSM   H16S10310   1.551   6.635   9.058  0.5729  0.1751 -1.9003
  102OSM   H16T10311   1.375   6.640   9.069 -0.9426 -1.4754  0.7674
  102OSM   C17S10312   1.439   6.481   8.931  0.0688 -0.5441  0.0502
  102OSM   H17S10313   1.345   6.423   8.939  0.3534 -1.1952 -1.1890
  102OSM   H17T10314   1.526   6.413   8.919 -0.9228 -1.7738 -0.3010
  102OSM   C18S10315   1.435   6.559   8.798 -0.6428  0.3074  0.6756
  102OSM   H18S10316   1.514   6.635   8.784 -2.4099  1.9901 -0.8200
  102OSM   H18T10317   1.339   6.611   8.779 -0.2733  0.8363  0.2398
  102OSM   H18U10318   1.433   6.475   8.724 -1.1202  0.7314  0.2009
  102OSM    C1F10319   0.699   6.367  10.334 -0.1632  0.2815 -0.0825
  102OSM     OF10320   0.620   6.449  10.378  0.8372  0.7461 -0.3272
  102OSM    C2F10321   0.672   6.297  10.210 -0.7473  0.4574  0.8770
  102OSM    H2F10322   0.561   6.289  10.204 -0.8416  2.1176 -0.3810
  102OSM    H2G10323   0.706   6.192  10.205  1.3968  1.1338 -0.0111
  102OSM    C3F10324   0.713   6.378  10.085 -0.0043  0.4412 -0.1242
  102OSM    H3F10325   0.822   6.396  10.093 -0.1258  1.0738  0.0997
  102OSM    H3G10326   0.656   6.474  10.086 -2.6554 -1.0057  1.1950
  102OSM    C4F10327   0.694   6.311   9.954 -1.0267  0.8209  0.4847
  102OSM    H4F10328   0.594   6.322   9.908 -1.2229 -2.6690 -0.1873
  102OSM    H4G10329   0.721   6.204   9.967  0.8844  1.1800 -0.2050
  102OSM    C5F10330   0.800   6.369   9.852 -0.8055 -0.1316  0.8614
  102OSM    H5F10331   0.787   6.298   9.767  0.4496 -0.4092  0.8847
  102OSM    H5G10332   0.904   6.360   9.889  0.0131  0.6318 -1.1465
  102OSM    C6F10333   0.780   6.510   9.808  0.7877 -0.7422  0.5920
  102OSM    H6F10334   0.756   6.574   9.896  1.1783 -0.1952  0.3037
  102OSM    H6G10335   0.695   6.512   9.736 -0.2257  4.3427  1.5146
  102OSM    C7F10336   0.911   6.562   9.743  0.2489 -0.6469 -0.4431
  102OSM    H7F10337   1.002   6.545   9.804 -0.0142  0.0766  0.1577
  102OSM    H7G10338   0.898   6.672   9.745  0.4703 -0.6288  0.5688
  102OSM    C8F10339   0.936   6.527   9.596  0.6403  0.7689 -0.3096
  102OSM    H8F10340   0.846   6.537   9.530  0.0673  0.2242  0.3743
  102OSM    H8G10341   0.968   6.422   9.611  2.4106  1.2928 -0.2100
  102OSM    C9F10342   1.052   6.606   9.536  0.0787 -0.2849 -0.5637
  102OSM    H9F10343   1.125   6.627   9.615 -0.5523  1.2908 -0.3737
  102OSM   C10F10344   1.066   6.633   9.405 -0.5794 -0.2226 -0.0121
  102OSM   H10F10345   1.162   6.681   9.383 -0.6547  0.0636  0.2857
  102OSM   C11F10346   0.988   6.596   9.283 -0.4733  0.5382 -0.1391
  102OSM   H11F10347   0.943   6.687   9.237  0.1616  1.5015  1.1003
  102OSM   H11G10348   0.903   6.525   9.293  1.6371 -2.2640 -0.9341
  102OSM   C12F10349   1.075   6.520   9.184 -0.9897  0.1113  0.7710
  102OSM   H12F10350   1.124   6.432   9.231 -0.1780 -0.1153 -0.4736
  102OSM   H12G10351   1.150   6.586   9.137 -2.1839  0.3430 -0.8880
  102OSM   C13F10352   0.994   6.468   9.060 -0.1611  0.3608 -0.6252
  102OSM   H13F10353   0.949   6.560   9.017  0.5164  1.4338  0.8855
  102OSM   H13G10354   0.919   6.392   9.090  0.3291 -0.1371 -0.6308
  102OSM   C14F10355   1.082   6.393   8.955 -0.0042 -0.5533 -0.4512
  102OSM   H14F10356   1.140   6.306   8.994  1.5674  0.1860 -1.0315
  102OSM   H14G10357   1.151   6.469   8.912  1.0521 -1.8354 -1.1066
  102OSM   C15F10358   0.995   6.336   8.839 -0.0732  0.3984 -0.4097
  102OSM   H15F10359   0.945   6.421   8.787  2.4663  3.0178  1.1699
  102OSM   H15G10360   0.915   6.272   8.883 -0.5249  1.6746  0.6908
  102OSM   C16F10361   1.086   6.251   8.747  0.3195 -0.5043 -0.7781
  102OSM   H16F10362   1.117   6.160   8.803  1.6502  0.4309  0.0682
  102OSM   H16G10363   1.180   6.306   8.725 -0.7402  1.8647  0.3318
  102OSM   C17F10364   1.005   6.224   8.623  0.3904  0.3381  0.4598
  102OSM   H17F10365   0.979   6.320   8.574 -0.4618 -0.1356 -0.0437
  102OSM   H17G10366   0.913   6.166   8.646 -1.2501  0.8002 -3.9459
  102OSM   C18F10367   1.085   6.138   8.527  0.0165 -0.6434 -0.1706
  102OSM   H18F10368   1.158   6.195   8.466  0.2159 -1.9982 -1.2378
  102OSM   H18G10369   1.023   6.079   8.455 -0.0045  2.2321 -2.7084
  102OSM   H18H10370   1.136   6.058   8.585  2.2054 -1.7272 -3.3328
  103OSM      N10371   3.330   0.460  11.219 -0.5680 -0.0474  0.3562
  103OSM    C1510372   3.418   0.494  11.326 -0.5753  0.7723  0.0135
  103OSM   H15A10373   3.504   0.431  11.318  0.0256  1.0562  3.2300
  103OSM   H15B10374   3.373   0.474  11.422 -2.0242  0.5026 -0.6961
  103OSM   H15C10375   3.458   0.595  11.323 -1.2229  1.0734  1.0931
  103OSM    C1410376   3.241   0.344  11.251  0.5560 -0.1385 -0.6263
  103OSM   H14A10377   3.296   0.259  11.287  1.5614  0.9805  0.5779
  103OSM   H14B10378   3.190   0.320  11.159  0.1761  1.9767 -1.0320
  103OSM   H14C10379   3.160   0.368  11.318  2.1896 -1.0608  1.8285
  103OSM    C1310380   3.235   0.578  11.192 -0.1293 -0.1529 -0.1768
  103OSM   H13A10381   3.168   0.578  11.277 -2.5056  1.3751 -1.9243
  103OSM   H13B10382   3.183   0.563  11.099  0.2092 -0.0957 -0.3786
  103OSM   H13C10383   3.286   0.673  11.190 -0.5461  0.0626 -0.8116
  103OSM    C1210384   3.414   0.427  11.087  0.1157  0.9155 -0.2634
  103OSM   H12A10385   3.469   0.518  11.069  2.3855  0.0118  1.5758
  103OSM   H12B10386   3.343   0.398  11.011 -0.0453 -0.8113  0.4984
  103OSM    C1110387   3.515   0.304  11.080 -0.0193  0.2410  0.8625
  103OSM   H11A10388   3.538   0.277  10.975 -2.9054 -0.5067  0.3472
  103OSM   H11B10389   3.460   0.217  11.120 -1.8444 -0.2956 -2.4702
  103OSM      P10390   3.728   0.449  11.096 -0.1364 -0.0128  0.1825
  103OSM    O1310391   3.665   0.571  11.042  0.0832  0.1826  0.6464
  103OSM    O1410392   3.833   0.462  11.203 -0.4613  0.0231  0.3609
  103OSM    O1110393   3.785   0.369  10.969 -0.1008  0.0691  0.1420
  103OSM    O1210394   3.627   0.337  11.148 -0.5579  0.1367  0.4606
  103OSM    C1S10395   3.909   0.404  10.905  0.2811 -0.3805 -0.5334
  103OSM    H1S10396   4.001   0.391  10.966 -0.3552 -0.4977  0.4211
  103OSM    H1T10397   3.913   0.511  10.875 -1.1696 -0.4251 -0.9306
  103OSM     NF10398   4.067   0.344  10.728 -0.0402  0.1988  0.5975
  103OSM    HNF10399   4.071   0.397  10.643 -1.0218 -0.5030  0.0901
  103OSM    C2S10400   3.934   0.320  10.775  0.8374 -1.1401 -1.1217
  103OSM    H2S10401   3.936   0.213  10.806  0.0607 -1.3683 -1.8244
  103OSM    C3S10402   3.824   0.358  10.667 -0.4452  0.0115  0.0354
  103OSM    H3S10403   3.842   0.466  10.650 -0.0905 -0.0366  0.0863
  103OSM     O310404   3.694   0.346  10.726 -0.2534 -0.1712 -0.7029
  103OSM    HO310405   3.703   0.337  10.821  1.0962  1.2313 -0.6523
  103OSM    C4S10406   3.844   0.289  10.536 -0.1988  0.5292 -0.8763
  103OSM    H4S10407   3.937   0.321  10.488 -0.0319 -0.5297 -1.2904
  103OSM    C5S10408   3.772   0.192  10.481  0.5086 -0.0788  0.2300
  103OSM    H5S10409   3.675   0.152  10.513  0.1577 -0.1119 -0.8141
  103OSM    C6S10410   3.805   0.125  10.349  0.6276  0.2538  0.6782
  103OSM    H6S10411   3.722   0.128  10.276  0.7747  2.6330  0.5143
  103OSM    H6T10412   3.824   0.017  10.368  0.2800 -0.0591 -0.6305
  103OSM    C7S10413   3.928   0.188  10.270  0.3534  0.0135 -0.2572
  103OSM    H7S10414   4.016   0.207  10.334 -0.3405  0.3560  0.6030
  103OSM    H7T10415   3.889   0.285  10.233 -0.8928 -0.2944  0.1808
  103OSM    C8S10416   3.963   0.093  10.154  0.1574 -0.4553  0.0826
  103OSM    H8S10417   3.902   0.001  10.163  0.9623 -1.0531 -0.4251
  103OSM    H8T10418   4.067   0.054  10.163 -0.7066 -2.7304  0.6114
  103OSM    C9S10419   3.945   0.163  10.018  0.6122 -0.1824  0.1910
  103OSM    H9S10420   4.018   0.246  10.012 -1.4779  1.7462  0.0142
  103OSM    H9T10421   3.846   0.214  10.018 -1.1881 -3.4313 -0.6685
  103OSM   C10S10422   3.943   0.071   9.890  0.7153 -1.2445 -0.8383
  103OSM   H10S10423   3.855   0.004   9.879 -1.9676  1.8845 -0.0545
  103OSM   H10T10424   4.031   0.003   9.898  0.4596 -1.3405  1.8093
  103OSM   C11S10425   3.971   0.149   9.758 -0.1319 -0.4025  0.5176
  103OSM   H11S10426   4.075   0.190   9.763 -1.5943  4.1380 -1.1548
  103OSM   H11T10427   3.904   0.237   9.747 -1.6383 -1.2996  2.0152
  103OSM   C12S10428   3.961   0.073   9.621  0.1088 -0.3246 -0.7578
  103OSM   H12S10429   3.854   0.052   9.596  0.1503 -0.4324 -0.8440
  103OSM   H12T10430   4.017  -0.020   9.644  3.4649  1.5429 -0.8670
  103OSM   C13S10431   4.025   0.156   9.513  0.0492  0.3141  1.1879
  103OSM   H13S10432   4.127   0.190   9.541 -0.2727  3.5713 -1.0027
  103OSM   H13T10433   3.963   0.248   9.500 -1.2246 -0.8120 -1.6480
  103OSM   C14S10434   4.025   0.083   9.378 -0.2592  1.2131  0.1657
  103OSM   H14S10435   3.958  -0.005   9.383  1.2703 -0.0029  0.1332
  103OSM   H14T10436   4.124   0.039   9.352 -0.3297 -0.2801  2.2007
  103OSM   C15S10437   3.991   0.168   9.254  0.0511 -0.6058 -0.0911
  103OSM   H15S10438   4.046   0.262   9.274  0.3636 -0.6998 -0.5006
  103OSM   H15T10439   3.882   0.190   9.248  0.3180  0.8174 -0.1342
  103OSM   C16S10440   4.036   0.112   9.112  0.1726 -0.7671 -0.2246
  103OSM   H16S10441   3.977   0.026   9.076  0.5580 -1.2450  0.2749
  103OSM   H16T10442   4.144   0.087   9.122  0.0641 -1.6136 -1.0641
  103OSM   C17S10443   4.016   0.217   9.002 -0.0656 -0.3570 -0.7331
  103OSM   H17S10444   4.086   0.296   9.038  0.1642 -1.8398  2.4827
  103OSM   H17T10445   3.913   0.258   9.003  0.1491  0.1921  0.2839
  103OSM   C18S10446   4.042   0.164   8.868 -0.0895  0.4179 -0.1000
  103OSM   H18S10447   4.013   0.228   8.782  0.6327 -1.0555 -1.5021
  103OSM   H18T10448   3.984   0.070   8.856 -1.3159  0.6798  2.8125
  103OSM   H18U10449   4.146   0.130   8.852 -0.7528 -2.2779  0.8273
  103OSM    C1F10450   4.177   0.312  10.795 -0.2119  0.0951  0.6722
  103OSM     OF10451   4.180   0.244  10.896  0.3670  0.2095 -0.0344
  103OSM    C2F10452   4.306   0.378  10.739 -0.2071 -0.0217 -0.6433
  103OSM    H2F10453   4.300   0.483  10.776  1.1838 -0.1808  0.0980
  103OSM    H2G10454   4.298   0.384  10.628  1.8595  1.7668 -0.7565
  103OSM    C3F10455   4.439   0.305  10.791  0.3586 -0.0774  0.5905
  103OSM    H3F10456   4.412   0.199  10.771 -1.1806  0.0902  1.6335
  103OSM    H3G10457   4.465   0.315  10.898  0.5455  0.8037  0.4696
  103OSM    C4F10458   4.559   0.327  10.700 -0.2557 -0.4065 -0.8972
  103OSM    H4F10459   4.531   0.304  10.595 -0.1505  0.4493 -1.1243
  103OSM    H4G10460   4.636   0.257  10.738 -0.9566 -1.3001 -1.0788
  103OSM    C5F10461   4.601   0.477  10.701 -1.0452  0.3619 -0.0229
  103OSM    H5F10462   4.641   0.500  10.803  1.1977 -1.1564 -0.4958
  103OSM    H5G10463   4.512   0.541  10.685 -0.3496  1.6584  1.0109
  103OSM    C6F10464   4.719   0.505  10.602  0.8498 -0.3076  0.2562
  103OSM    H6F10465   4.805   0.436  10.608  2.8660  2.1586  1.4905
  103OSM    H6G10466   4.774   0.597  10.631  2.0688 -0.0391 -2.6214
  103OSM    C7F10467   4.667   0.513  10.459 -0.5239 -0.6350 -0.6673
  103OSM    H7F10468   4.581   0.583  10.466  0.5915  0.6636  0.7587
  103OSM    H7G10469   4.629   0.411  10.435  1.0283 -0.9311 -2.0710
  103OSM    C8F10470   4.772   0.546  10.352 -0.1964 -0.2170 -0.3770
  103OSM    H8F10471   4.814   0.642  10.388 -2.0758  0.7304 -0.5459
  103OSM    H8G10472   4.733   0.571  10.250  0.6581 -0.1447 -0.6929
  103OSM    C9F10473   4.872   0.439  10.352  1.0848  0.6873  0.4373
  103OSM    H9F10474   4.937   0.438  10.440  1.1721  0.4152  0.3706
  103OSM   C10F10475   4.895   0.347  10.251  0.4711 -0.0635 -0.6876
  103OSM   H10F10476   4.985   0.284  10.250  1.1915  0.9145  0.2755
  103OSM   C11F10477   4.819   0.336  10.124 -0.1897  0.4350 -0.2793
  103OSM   H11F10478   4.727   0.398  10.115 -1.5028 -1.4277 -0.3521
  103OSM   H11G10479   4.770   0.236  10.126  0.9909 -0.1610  1.0437
  103OSM   C12F10480   4.906   0.350   9.996 -0.2334 -0.2044  0.4373
  103OSM   H12F10481   4.997   0.288  10.010 -0.8927 -0.9981  1.3029
  103OSM   H12G10482   4.932   0.457   9.978  2.0965 -0.8692 -0.4823
  103OSM   C13F10483   4.845   0.306   9.866  0.0530 -0.5742  0.6544
  103OSM   H13F10484   4.753   0.368   9.863 -1.1983 -2.2926  1.7984
  103OSM   H13G10485   4.805   0.204   9.881 -2.2608  0.4626  2.0079
  103OSM   C14F10486   4.925   0.331   9.734 -0.4276  0.2412  0.5665
  103OSM   H14F10487   5.013   0.263   9.738 -1.6686 -1.3600  2.1825
  103OSM   H14G10488   4.957   0.437   9.724  0.8818  0.0539  2.3600
  103OSM   C15F10489   4.840   0.295   9.612  0.0505 -0.4179 -0.5202
  103OSM   H15F10490   4.752   0.363   9.607  0.7859  0.5218 -1.1223
  103OSM   H15G10491   4.794   0.196   9.628  1.2321 -1.3848 -2.7027
  103OSM   C16F10492   4.918   0.303   9.478 -0.4333 -0.4494 -0.2116
  103OSM   H16F10493   4.873   0.239   9.400  0.5158 -1.4149 -0.0047
  103OSM   H16G10494   5.016   0.252   9.495  0.6996  1.8014  0.4083
  103OSM   C17F10495   4.931   0.449   9.415 -0.1295  0.7144 -0.3185
  103OSM   H17F10496   5.012   0.465   9.340 -0.4645  1.5262 -0.5139
  103OSM   H17G10497   4.970   0.507   9.502  0.4496  0.4100 -0.3694
  103OSM   C18F10498   4.807   0.517   9.370 -0.2672  0.3181 -0.0473
  103OSM   H18F10499   4.820   0.625   9.351  1.3234 -0.2863 -3.0928
  103OSM   H18G10500   4.721   0.514   9.440 -1.6294  2.4037 -1.5036
  103OSM   H18H10501   4.766   0.485   9.272  1.5904  3.5698 -2.0581
  104OSM      N10502   4.760   1.063  10.802 -0.4915  0.4349  0.5882
  104OSM    C1510503   4.818   0.976  10.688  0.3892 -0.0946  0.2953
  104OSM   H15A10504   4.746   0.918  10.632 -0.8640 -0.3693  2.0914
  104OSM   H15B10505   4.885   0.899  10.724  0.4115 -1.3076 -2.1095
  104OSM   H15C10506   4.877   1.040  10.624  0.3357  0.3483  0.6816
  104OSM    C1410507   4.649   1.141  10.733 -0.1486  0.2377 -0.6802
  104OSM   H14A10508   4.693   1.217  10.671  0.8234 -1.0223 -1.5913
  104OSM   H14B10509   4.593   1.194  10.809  2.2707 -0.0640  1.4578
  104OSM   H14C10510   4.588   1.071  10.678 -0.7347  0.1240  0.0975
  104OSM    C1310511   4.698   0.989  10.918  0.1067 -0.3864  0.2480
  104OSM   H13A10512   4.767   0.937  10.982  1.3785  0.9749  0.0185
  104OSM   H13B10513   4.626   0.919  10.878 -0.0681 -0.3703  0.5342
  104OSM   H13C10514   4.646   1.058  10.983 -1.9627 -3.1810  1.7904
  104OSM    C1210515   4.877   1.151  10.850 -0.3581  0.2213  0.3615
  104OSM   H12A10516   4.909   1.216  10.769 -0.5344 -2.0642 -1.6390
  104OSM   H12B10517   4.967   1.096  10.870  0.5708  0.6323 -2.3193
  104OSM    C1110518   4.855   1.249  10.965  0.4427 -0.2432  0.2866
  104OSM   H11A10519   4.947   1.307  10.983 -0.2676  1.2707 -0.7579
  104OSM   H11B10520   4.832   1.195  11.059 -1.8124 -0.9031 -0.5604
  104OSM      P10521   4.746   1.466  10.870  0.1831  0.2494  0.2262
  104OSM    O1310522   4.606   1.513  10.870 -0.1576 -0.1343 -0.5313
  104OSM    O1410523   4.853   1.550  10.928 -0.1801 -0.0927 -0.6740
  104OSM    O1110524   4.786   1.418  10.730  0.3373  0.7978  1.0405
  104OSM    O1210525   4.734   1.326  10.938 -0.1616 -0.6925 -0.3442
  104OSM    C1S10526   4.843   1.500  10.630 -0.1212  0.3151 -1.1019
  104OSM    H1S10527   4.953   1.491  10.624  0.1768  2.8689 -0.4302
  104OSM    H1T10528   4.821   1.607  10.646 -1.9036 -0.0599 -0.7527
  104OSM     NF10529   4.845   1.518  10.389 -0.4850 -0.1163 -0.0497
  104OSM    HNF10530   4.800   1.602  10.362 -0.7265 -0.4172 -0.5959
  104OSM    C2S10531   4.780   1.452  10.501 -0.7864  0.1363  0.5655
  104OSM    H2S10532   4.800   1.343  10.508  0.4245  0.4502  3.1651
  104OSM    C3S10533   4.628   1.473  10.501 -0.1669 -0.1679 -0.1519
  104OSM    H3S10534   4.599   1.578  10.523  0.6198  0.0242  0.0161
  104OSM     O310535   4.558   1.392  10.597  0.3264 -0.2100 -0.1965
  104OSM    HO310536   4.623   1.398  10.668  1.6139  0.0110 -1.3611
  104OSM    C4S10537   4.573   1.434  10.367  0.1951  0.0327 -0.0370
  104OSM    H4S10538   4.592   1.335  10.324  2.0169  0.1974  0.3430
  104OSM    C5S10539   4.515   1.526  10.288 -0.0100  0.4940  0.0062
  104OSM    H5S10540   4.501   1.630  10.321 -0.3644  0.0418  1.3186
  104OSM    C6S10541   4.463   1.494  10.150 -0.4027  0.1785 -0.1327
  104OSM    H6S10542   4.352   1.484  10.154 -0.5051  1.2660  0.0234
  104OSM    H6T10543   4.511   1.401  10.113 -2.1078 -1.4639  1.5160
  104OSM    C7S10544   4.499   1.605  10.052  0.1431 -0.4815 -0.5642
  104OSM    H7S10545   4.604   1.640  10.068 -0.1197  1.1522 -2.0540
  104OSM    H7T10546   4.431   1.690  10.071  1.8262  0.5553  1.1740
  104OSM    C8S10547   4.499   1.567   9.904  0.2988 -0.0388  0.0142
  104OSM    H8S10548   4.572   1.486   9.883  1.0396  0.1314  1.6951
  104OSM    H8T10549   4.542   1.654   9.850  1.4335  2.1964  4.0478
  104OSM    C9S10550   4.357   1.531   9.850 -0.1140 -0.5993  0.1499
  104OSM    H9S10551   4.292   1.588   9.920 -0.6724  0.2186 -1.0204
  104OSM    H9T10552   4.342   1.421   9.854  1.1699 -0.7729  0.8208
  104OSM   C10S10553   4.321   1.591   9.717 -0.0908 -0.0529  0.0968
  104OSM   H10S10554   4.368   1.689   9.699 -0.1512  0.0545  0.5093
  104OSM   H10T10555   4.211   1.604   9.716  0.0744  1.4709 -0.9672
  104OSM   C11S10556   4.351   1.494   9.607 -0.0543 -0.1230  0.7097
  104OSM   H11S10557   4.319   1.394   9.643 -1.2773  0.0930  0.2662
  104OSM   H11T10558   4.460   1.494   9.587 -0.3745 -1.0374 -1.3841
  104OSM   C12S10559   4.284   1.536   9.479 -0.2484  0.5646  0.3873
  104OSM   H12S10560   4.327   1.638   9.466 -0.2217  0.5488  0.3511
  104OSM   H12T10561   4.174   1.525   9.482 -0.1785  0.0832  2.1767
  104OSM   C13S10562   4.338   1.448   9.363  0.1068  0.2929  0.2885
  104OSM   H13S10563   4.290   1.348   9.364  1.0128 -0.2076 -1.9221
  104OSM   H13T10564   4.448   1.436   9.377 -0.1191 -0.5304  1.5107
  104OSM   C14S10565   4.299   1.509   9.219  0.6255  0.1357  0.5578
  104OSM   H14S10566   4.315   1.430   9.143 -1.4565  0.7289 -0.5920
  104OSM   H14T10567   4.349   1.604   9.191  2.2771 -0.3555  1.6995
  104OSM   C15S10568   4.152   1.545   9.206  0.1110  0.5602  0.5111
  104OSM   H15S10569   4.120   1.639   9.256 -0.9095 -0.5979  2.1429
  104OSM   H15T10570   4.090   1.462   9.247 -0.6005  1.0829  0.5012
  104OSM   C16S10571   4.124   1.550   9.051 -0.0383  0.3045  0.2832
  104OSM   H16S10572   4.017   1.574   9.035 -0.8749 -3.6564 -1.1168
  104OSM   H16T10573   4.138   1.451   9.003  2.6517 -0.0746  1.6388
  104OSM   C17S10574   4.204   1.663   8.981 -0.3938  0.3195  1.2440
  104OSM   H17S10575   4.311   1.632   8.980 -0.4276 -0.1298 -1.9886
  104OSM   H17T10576   4.197   1.759   9.036 -0.6567  1.7250 -1.0778
  104OSM   C18S10577   4.159   1.687   8.833 -0.5914 -0.5314 -0.1127
  104OSM   H18S10578   4.183   1.590   8.784 -0.3350 -0.9556  0.8379
  104OSM   H18T10579   4.225   1.760   8.781 -0.4555 -0.1776  0.5541
  104OSM   H18U10580   4.050   1.707   8.829 -0.3993  0.4403 -0.9284
  104OSM    C1F10581   4.963   1.470  10.330  0.8979 -0.1317 -0.0410
  104OSM     OF10582   5.016   1.379  10.382 -0.7889 -0.1946  0.1092
  104OSM    C2F10583   5.001   1.540  10.206 -0.1624  0.4183 -0.3172
  104OSM    H2F10584   5.103   1.508  10.175 -0.1240  0.5355 -0.3157
  104OSM    H2G10585   5.012   1.649  10.226  2.5105 -0.2713  2.6414
  104OSM    C3F10586   4.908   1.510  10.090 -0.3670 -0.3497 -0.1621
  104OSM    H3F10587   4.806   1.534  10.127 -0.5649 -1.3184 -0.0377
  104OSM    H3G10588   4.899   1.401  10.071 -0.9623 -0.3317  0.0005
  104OSM    C4F10589   4.946   1.576   9.957  0.2467  0.2045 -0.6806
  104OSM    H4F10590   5.042   1.527   9.929  0.7917  0.8004  0.1030
  104OSM    H4G10591   4.954   1.687   9.952  0.0668  0.1597 -2.7854
  104OSM    C5F10592   4.849   1.542   9.852  0.2476  0.2263  0.2265
  104OSM    H5F10593   4.754   1.597   9.871  0.0203  0.1579 -0.6598
  104OSM    H5G10594   4.820   1.436   9.869 -0.1562  0.6772  2.9086
  104OSM    C6F10595   4.901   1.576   9.718 -0.0714 -0.7829  0.3226
  104OSM    H6F10596   4.984   1.505   9.700  0.1452 -1.5294  3.6112
  104OSM    H6G10597   4.949   1.676   9.707  1.1854 -1.4809 -0.9154
  104OSM    C7F10598   4.797   1.570   9.602 -0.1762 -0.2606  0.1637
  104OSM    H7F10599   4.717   1.644   9.622 -0.1508  0.2154 -1.3496
  104OSM    H7G10600   4.744   1.474   9.621 -2.0893  0.6009 -0.6157
  104OSM    C8F10601   4.868   1.576   9.464  0.1539  0.2592  0.4367
  104OSM    H8F10602   4.950   1.501   9.456 -0.4860 -0.4274  0.1853
  104OSM    H8G10603   4.922   1.673   9.456  1.9203 -0.7319 -0.0655
  104OSM    C9F10604   4.766   1.551   9.360 -0.1185 -0.4282  0.2873
  104OSM    H9F10605   4.706   1.460   9.376 -1.3865  0.3450  0.1426
  104OSM   C10F10606   4.732   1.626   9.248 -0.7458 -0.6656 -0.0730
  104OSM   H10F10607   4.655   1.582   9.184 -1.4215 -2.2300  1.6989
  104OSM   C11F10608   4.793   1.760   9.207  0.4016  0.9405  0.2797
  104OSM   H11F10609   4.854   1.811   9.284  1.5269  1.0969 -0.6795
  104OSM   H11G10610   4.705   1.826   9.191 -0.0066  1.0354  2.5784
  104OSM   C12F10611   4.877   1.756   9.073 -0.2023  0.3033  0.6997
  104OSM   H12F10612   4.946   1.669   9.076 -1.7558 -1.2130 -2.4924
  104OSM   H12G10613   4.923   1.857   9.075 -0.3430  0.3522  1.5254
  104OSM   C13F10614   4.774   1.751   8.961 -0.2391 -0.1719  0.1260
  104OSM   H13F10615   4.707   1.840   8.954  1.9658  1.4966 -0.9698
  104OSM   H13G10616   4.707   1.663   8.959  0.1073 -0.4422  0.3968
  104OSM   C14F10617   4.840   1.749   8.822  0.7136  0.4412  0.3164
  104OSM   H14F10618   4.914   1.666   8.820 -1.4681 -1.6417  1.2178
  104OSM   H14G10619   4.892   1.845   8.804  2.1366 -0.0463  1.6267
  104OSM   C15F10620   4.728   1.711   8.721  0.3449  0.3957  0.4977
  104OSM   H15F10621   4.689   1.608   8.738  0.5251 -0.6121 -3.9567
  104OSM   H15G10622   4.776   1.705   8.622 -0.1824 -4.5059  0.2617
  104OSM   C16F10623   4.613   1.812   8.699 -0.0964 -0.3623 -0.6617
  104OSM   H16F10624   4.641   1.919   8.689 -1.1292 -0.1153 -1.1070
  104OSM   H16G10625   4.542   1.811   8.784 -0.8230  2.4532 -1.1482
  104OSM   C17F10626   4.526   1.771   8.576 -0.1996 -0.4559  0.0113
  104OSM   H17F10627   4.580   1.791   8.481 -0.2898  0.0429  0.0592
  104OSM   H17G10628   4.445   1.847   8.574  0.9181  0.7690 -0.4699
  104OSM   C18F10629   4.479   1.626   8.569 -0.5279 -0.0048  0.1389
  104OSM   H18F10630   4.493   1.575   8.667  0.2746 -1.9317 -0.9159
  104OSM   H18G10631   4.534   1.563   8.495  1.5460  0.7358  0.9757
  104OSM   H18H10632   4.374   1.622   8.533  0.2760 -0.9851 -2.3783
  105OSM      N10633   3.797   5.167  10.745  0.2270 -0.4695  1.4492
  105OSM    C1510634   3.837   5.029  10.740 -0.0327  0.0719 -0.0130
  105OSM   H15A10635   3.772   4.968  10.801  1.1455 -2.5794 -1.2601
  105OSM   H15B10636   3.931   5.013  10.791 -0.9374 -0.0919  1.7070
  105OSM   H15C10637   3.840   4.984  10.642  2.2397 -1.4297  0.6634
  105OSM    C1410638   3.671   5.179  10.664 -0.0909  0.2507  0.1877
  105OSM   H14A10639   3.632   5.279  10.673  0.5897  0.8182 -2.3177
  105OSM   H14B10640   3.601   5.102  10.696 -0.4032 -0.8711 -2.8236
  105OSM   H14C10641   3.689   5.173  10.557 -1.1383  1.2945 -0.0714
  105OSM    C1310642   3.759   5.222  10.879  0.2993  0.5532  0.5679
  105OSM   H13A10643   3.694   5.306  10.863 -0.7452 -0.5584 -1.4600
  105OSM   H13B10644   3.840   5.246  10.947  0.7721  3.2926 -0.8476
  105OSM   H13C10645   3.688   5.161  10.934  0.9782 -1.4796 -0.6861
  105OSM    C1210646   3.904   5.248  10.678 -0.5020 -0.4739  0.1313
  105OSM   H12A10647   3.855   5.343  10.662 -3.1826 -1.7235  0.2391
  105OSM   H12B10648   3.933   5.202  10.585  0.4816  0.0171  0.1845
  105OSM    C1110649   4.035   5.265  10.749  0.0994  0.0437 -0.7428
  105OSM   H11A10650   4.017   5.308  10.850  0.5099 -1.0009 -0.2121
  105OSM   H11B10651   4.097   5.339  10.694 -1.3486  0.1920 -2.2533
  105OSM      P10652   4.246   5.115  10.730  0.1769 -0.5734 -0.0538
  105OSM    O1310653   4.335   5.224  10.773 -0.1872 -0.5747 -0.6535
  105OSM    O1410654   4.296   4.986  10.778 -0.1360  0.0322  0.0925
  105OSM    O1110655   4.244   5.113  10.574 -0.5178 -0.0575 -0.3238
  105OSM    O1210656   4.098   5.138  10.758 -0.6038 -0.3586 -0.0114
  105OSM    C1S10657   4.164   5.022  10.495  0.5017 -0.3985 -0.0666
  105OSM    H1S10658   4.075   4.996  10.556  0.0522  2.8777  0.8760
  105OSM    H1T10659   4.216   4.924  10.487 -0.5161 -1.2687  2.7660
  105OSM     NF10660   4.018   4.992  10.305  0.3098 -0.2154  0.4155
  105OSM    HNF10661   4.039   4.918  10.241  0.5413 -0.4426  0.7489
  105OSM    C2S10662   4.123   5.085  10.360 -0.0113  0.6481  0.2435
  105OSM    H2S10663   4.077   5.183  10.387  0.2776  0.8888 -0.1377
  105OSM    C3S10664   4.249   5.112  10.269  0.6405  0.0308  0.3967
  105OSM    H3S10665   4.291   5.014  10.238  0.2081  0.3576 -1.3393
  105OSM     O310666   4.351   5.188  10.343 -0.1113  0.5298  0.4592
  105OSM    HO310667   4.318   5.185  10.433  1.0981  0.1224  0.9080
  105OSM    C4S10668   4.220   5.189  10.140  0.6564 -0.8186  0.3364
  105OSM    H4S10669   4.171   5.133  10.059  0.7801  0.5497 -0.7157
  105OSM    C5S10670   4.232   5.323  10.123 -0.5964  0.4208  1.4399
  105OSM    H5S10671   4.253   5.388  10.209  1.7166  1.9709 -0.1711
  105OSM    C6S10672   4.218   5.402   9.992  0.3073  0.2862  0.3699
  105OSM    H6S10673   4.309   5.462   9.970 -0.4172  1.5733  0.8141
  105OSM    H6T10674   4.133   5.471  10.006 -0.7086  0.2340 -4.1658
  105OSM    C7S10675   4.178   5.330   9.864 -0.5657 -0.3956  0.0299
  105OSM    H7S10676   4.076   5.292   9.886 -0.4104  0.3362  2.3135
  105OSM    H7T10677   4.236   5.239   9.838  2.0557  0.3385  2.7516
  105OSM    C8S10678   4.168   5.426   9.743  1.0000  0.4743  0.1891
  105OSM    H8S10679   4.103   5.515   9.760 -0.9026 -0.7589 -0.3308
  105OSM    H8T10680   4.130   5.362   9.661  0.4312  2.2931 -1.0237
  105OSM    C9S10681   4.304   5.481   9.699  0.4535  0.6000  0.2640
  105OSM    H9S10682   4.376   5.397   9.687 -0.5235 -0.0776 -1.2074
  105OSM    H9T10683   4.348   5.538   9.783  0.0717 -2.6596  2.8921
  105OSM   C10S10684   4.301   5.550   9.558 -0.1731 -0.0705  0.7221
  105OSM   H10S10685   4.405   5.586   9.544 -0.0214 -0.7887 -0.0848
  105OSM   H10T10686   4.233   5.636   9.571 -0.5716 -0.3614  0.5779
  105OSM   C11S10687   4.277   5.462   9.442  0.0845 -0.1679 -0.5151
  105OSM   H11S10688   4.183   5.403   9.440  1.4355 -2.4160 -1.8017
  105OSM   H11T10689   4.353   5.382   9.447  1.5053  1.1989  0.5853
  105OSM   C12S10690   4.307   5.533   9.306  0.1899  0.4977 -0.4618
  105OSM   H12S10691   4.406   5.572   9.275 -0.6472  1.6220 -1.8481
  105OSM   H12T10692   4.244   5.624   9.314 -3.4913 -1.8709  0.1447
  105OSM   C13S10693   4.268   5.441   9.193 -0.6256 -0.8419  0.7915
  105OSM   H13S10694   4.165   5.406   9.215 -1.3470  1.0445  0.6484
  105OSM   H13T10695   4.338   5.356   9.177 -0.0571  0.0756 -2.3534
  105OSM   C14S10696   4.282   5.515   9.057 -0.3491 -0.5423  0.6985
  105OSM   H14S10697   4.388   5.524   9.023 -0.8825 -0.1922 -0.9661
  105OSM   H14T10698   4.236   5.615   9.057  0.2360 -0.2679  1.0677
  105OSM   C15S10699   4.227   5.427   8.949 -0.1627 -0.4846  1.1999
  105OSM   H15S10700   4.120   5.403   8.969 -1.2233  1.8055 -1.0570
  105OSM   H15T10701   4.286   5.337   8.923 -1.5936 -1.0707 -0.1917
  105OSM   C16S10702   4.229   5.492   8.811  0.0083  0.4415 -0.1977
  105OSM   H16S10703   4.191   5.416   8.740  1.9300 -1.4833  0.7107
  105OSM   H16T10704   4.332   5.509   8.775  0.1352 -0.6969 -0.4069
  105OSM   C17S10705   4.152   5.623   8.800 -0.6294 -0.1993  0.0980
  105OSM   H17S10706   4.184   5.692   8.880 -2.0262 -0.3420  0.8080
  105OSM   H17T10707   4.046   5.617   8.832 -0.9692  0.7669 -0.8093
  105OSM   C18S10708   4.166   5.699   8.667  0.4072 -0.0603 -0.2245
  105OSM   H18S10709   4.132   5.803   8.686 -0.6853 -0.1451 -1.5597
  105OSM   H18T10710   4.110   5.652   8.584 -0.0677  1.9412 -1.0888
  105OSM   H18U10711   4.271   5.712   8.634  0.5243 -0.9709 -0.2360
  105OSM    C1F10712   3.899   4.979  10.354  0.0872  0.4169 -0.2195
  105OSM     OF10713   3.858   5.061  10.433 -0.4617  0.6218 -0.2791
  105OSM    C2F10714   3.813   4.870  10.303 -0.4013 -0.0530 -0.2855
  105OSM    H2F10715   3.746   4.847  10.388  0.5683 -0.0297  0.5095
  105OSM    H2G10716   3.877   4.782  10.281 -0.6783 -1.1286  2.7152
  105OSM    C3F10717   3.721   4.914  10.189  0.1786  0.0402  0.1496
  105OSM    H3F10718   3.784   4.904  10.098  0.0052  0.8060 -0.0658
  105OSM    H3G10719   3.683   5.018  10.205 -0.1175  0.2093 -1.4969
  105OSM    C4F10720   3.606   4.805  10.193  0.3671  0.4385 -0.5777
  105OSM    H4F10721   3.536   4.809  10.279  0.4758 -1.2570 -0.3899
  105OSM    H4G10722   3.650   4.704  10.195  1.3675  0.8792  0.9628
  105OSM    C5F10723   3.531   4.802  10.059 -0.5190 -0.3257 -0.1419
  105OSM    H5F10724   3.441   4.738  10.067  0.1145 -1.2942 -0.6970
  105OSM    H5G10725   3.592   4.756   9.979 -1.7583  0.6330 -1.6840
  105OSM    C6F10726   3.482   4.940  10.020  0.5853 -0.8777  0.1889
  105OSM    H6F10727   3.570   5.005  10.003  0.5943 -0.6609  1.0532
  105OSM    H6G10728   3.432   4.984  10.108 -2.1256 -2.1861 -0.5783
  105OSM    C7F10729   3.392   4.940   9.898  0.0612  0.5119 -0.0510
  105OSM    H7F10730   3.314   4.860   9.902 -1.0849  1.5159 -1.5087
  105OSM    H7G10731   3.451   4.922   9.806 -0.3880 -0.7019 -0.1212
  105OSM    C8F10732   3.334   5.081   9.876 -0.0631  0.1250 -0.1371
  105OSM    H8F10733   3.423   5.145   9.859  1.1886 -1.1616  1.2896
  105OSM    H8G10734   3.287   5.102   9.975  0.5559 -0.3454  0.2617
  105OSM    C9F10735   3.221   5.101   9.769 -0.5907  0.2321 -0.5517
  105OSM    H9F10736   3.118   5.074   9.794 -1.1188 -0.6822 -3.3133
  105OSM   C10F10737   3.241   5.134   9.641 -0.5737  0.1562 -0.1542
  105OSM   H10F10738   3.148   5.156   9.586 -1.3513 -0.4788  0.8765
  105OSM   C11F10739   3.372   5.152   9.567  0.5054  0.2743  0.7846
  105OSM   H11F10740   3.428   5.056   9.573 -0.6973 -0.4491  0.8962
  105OSM   H11G10741   3.432   5.234   9.611  2.2596  1.1624 -2.9157
  105OSM   C12F10742   3.355   5.184   9.413 -0.0635 -0.6357  0.0084
  105OSM   H12F10743   3.442   5.242   9.373 -0.6242  1.8999  2.1861
  105OSM   H12G10744   3.262   5.243   9.399  1.4067  1.4242 -1.8246
  105OSM   C13F10745   3.343   5.060   9.318  0.7566 -0.6158 -0.1126
  105OSM   H13F10746   3.252   5.019   9.366 -0.1723 -0.0009 -1.2754
  105OSM   H13G10747   3.423   4.984   9.335 -0.0058 -1.2257  0.8208
  105OSM   C14F10748   3.335   5.081   9.167  0.1787 -0.4798 -0.4605
  105OSM   H14F10749   3.340   4.979   9.123  0.6067 -0.6440 -0.0342
  105OSM   H14G10750   3.419   5.141   9.126  0.7564 -2.0086 -1.6172
  105OSM   C15F10751   3.209   5.160   9.120  0.0454  0.0050  0.1512
  105OSM   H15F10752   3.224   5.261   9.163 -3.0606 -0.0280  1.5292
  105OSM   H15G10753   3.123   5.125   9.180  0.4507  1.3486  1.5918
  105OSM   C16F10754   3.174   5.160   8.964  0.1125  0.0620  0.0895
  105OSM   H16F10755   3.271   5.196   8.922  0.3519  0.2031  0.7471
  105OSM   H16G10756   3.093   5.237   8.962 -0.1362 -0.2162 -2.1190
  105OSM   C17F10757   3.121   5.030   8.907  0.6304  0.0937  0.5735
  105OSM   H17F10758   3.017   5.008   8.940 -0.4236  0.0322 -2.4275
  105OSM   H17G10759   3.181   4.945   8.945 -1.3680 -0.9056  1.6866
  105OSM   C18F10760   3.127   5.026   8.754 -0.2721 -0.0446 -0.9048
  105OSM   H18F10761   3.067   4.938   8.723  1.1666 -1.3186 -0.2351
  105OSM   H18G10762   3.229   4.996   8.724  0.3702  0.6462  0.4818
  105OSM   H18H10763   3.093   5.117   8.701 -1.7648 -1.6620 -2.8727
  106OSM      N10764   3.995   3.194  10.777  0.2100 -0.9069  0.5923
  106OSM    C1510765   4.066   3.061  10.801  0.2491 -0.5611 -0.2083
  106OSM   H15A10766   3.994   2.981  10.805 -0.1371 -0.1602  1.2739
  106OSM   H15B10767   4.111   3.065  10.899 -0.4601  0.2008  0.1006
  106OSM   H15C10768   4.145   3.038  10.731  0.6820 -1.3029  0.5160
  106OSM    C1410769   3.898   3.171  10.656  0.8779  0.5357  0.0582
  106OSM   H14A10770   3.872   3.268  10.616  1.7417  0.6392 -0.2627
  106OSM   H14B10771   3.814   3.111  10.689  0.1799  1.0636 -0.7193
  106OSM   H14C10772   3.952   3.118  10.580  0.6049 -0.2350  0.3898
  106OSM    C1310773   3.923   3.241  10.894  0.0078  0.4275 -0.4955
  106OSM   H13A10774   3.864   3.331  10.882 -0.2216  0.6442  1.9156
  106OSM   H13B10775   3.987   3.242  10.980  2.2900 -2.6282 -1.9694
  106OSM   H13C10776   3.850   3.166  10.921 -1.2958  1.7689 -0.1083
  106OSM    C1210777   4.099   3.304  10.736  0.3729  0.2398 -0.0391
  106OSM   H12A10778   4.161   3.317  10.823  0.4750 -1.0654  0.1013
  106OSM   H12B10779   4.044   3.395  10.719 -1.8610 -1.3292 -1.9342
  106OSM    C1110780   4.195   3.286  10.613 -0.1205  0.4115  0.0011
  106OSM   H11A10781   4.240   3.379  10.573  0.3473  0.6108  0.9740
  106OSM   H11B10782   4.127   3.264  10.527 -1.7614  0.6818  1.1836
  106OSM      P10783   4.411   3.217  10.730  0.1360 -0.1538  0.2872
  106OSM    O1310784   4.370   3.298  10.850 -0.2663 -0.7873  0.6834
  106OSM    O1410785   4.493   3.092  10.750  0.5350  0.1890 -0.2823
  106OSM    O1110786   4.486   3.324  10.637 -0.1377 -0.6349  0.0625
  106OSM    O1210787   4.291   3.179  10.635 -0.0327 -0.7685  0.3298
  106OSM    C1S10788   4.579   3.270  10.534 -0.4588 -0.7432 -0.1140
  106OSM    H1S10789   4.598   3.161  10.543  2.2296 -0.3247  0.2667
  106OSM    H1T10790   4.680   3.316  10.547 -0.4983 -0.8137  0.4643
  106OSM     NF10791   4.607   3.215  10.303  0.1143  0.2227 -0.0258
  106OSM    HNF10792   4.687   3.262  10.266  0.7975 -0.9336 -0.0613
  106OSM    C2S10793   4.532   3.298  10.393  0.6145 -0.4320  1.3666
  106OSM    H2S10794   4.426   3.265  10.399  0.3559  0.2742  0.8085
  106OSM    C3S10795   4.541   3.452  10.364 -0.1580 -1.0383 -1.2899
  106OSM    H3S10796   4.645   3.491  10.369 -0.5139 -0.2002  0.4795
  106OSM     O310797   4.467   3.528  10.457 -0.6038  0.2296 -0.5918
  106OSM    HO310798   4.465   3.463  10.528 -0.0913 -1.0910 -1.7526
  106OSM    C4S10799   4.501   3.484  10.221  0.0282 -0.1685  0.0117
  106OSM    H4S10800   4.584   3.490  10.148  0.4955  0.4607  0.5839
  106OSM    C5S10801   4.375   3.521  10.172 -0.1882 -0.7364  0.2904
  106OSM    H5S10802   4.292   3.543  10.241  0.1275  3.1775 -0.3559
  106OSM    C6S10803   4.331   3.546  10.032  0.9176  0.1275 -0.1783
  106OSM    H6S10804   4.288   3.649  10.024  1.6006  0.5190  0.9367
  106OSM    H6T10805   4.259   3.467  10.002  0.8336  0.2810 -0.3876
  106OSM    C7S10806   4.448   3.534   9.931 -0.2735  0.1364 -0.1476
  106OSM    H7S10807   4.501   3.438   9.949  1.1068  1.0982  1.2168
  106OSM    H7T10808   4.516   3.620   9.948  0.0293 -0.1445  0.0789
  106OSM    C8S10809   4.410   3.545   9.784  0.9024  0.3550  0.0562
  106OSM    H8S10810   4.371   3.648   9.770  0.5033  0.4585  1.7027
  106OSM    H8T10811   4.323   3.479   9.765  0.7090  0.3458  0.9509
  106OSM    C9S10812   4.530   3.526   9.687 -0.2493 -0.2274  0.2656
  106OSM    H9S10813   4.566   3.421   9.677 -0.5290 -0.2184 -0.9658
  106OSM    H9T10814   4.619   3.579   9.727  0.4247 -2.0400  1.2891
  106OSM   C10S10815   4.512   3.569   9.541  0.0314 -0.2091  0.2951
  106OSM   H10S10816   4.419   3.523   9.500 -0.4043  1.3446 -0.5521
  106OSM   H10T10817   4.605   3.531   9.495  1.5491  1.5619  1.7492
  106OSM   C11S10818   4.507   3.721   9.522  0.5552 -0.1866  0.9740
  106OSM   H11S10819   4.576   3.768   9.595  1.3324 -0.6550  0.5512
  106OSM   H11T10820   4.408   3.770   9.535  1.1089  1.5158 -0.6866
  106OSM   C12S10821   4.547   3.778   9.385 -0.1500  0.1670 -0.6881
  106OSM   H12S10822   4.525   3.886   9.370 -2.2633 -0.1894 -0.4180
  106OSM   H12T10823   4.474   3.728   9.319 -1.4993 -1.4313  1.8613
  106OSM   C13S10824   4.690   3.750   9.351 -0.6149 -0.0861  0.7586
  106OSM   H13S10825   4.697   3.640   9.335  2.4701  0.0966  0.3047
  106OSM   H13T10826   4.737   3.770   9.450 -0.1076 -1.4597  0.8188
  106OSM   C14S10827   4.748   3.822   9.227 -0.3914  0.2605 -0.4813
  106OSM   H14S10828   4.733   3.931   9.242  2.2132  0.7119 -0.7288
  106OSM   H14T10829   4.698   3.791   9.132  1.0850 -1.8088 -0.6504
  106OSM   C15S10830   4.903   3.802   9.210 -0.1031 -0.2072  0.3552
  106OSM   H15S10831   4.949   3.813   9.310  1.1534 -1.8293  0.0093
  106OSM   H15T10832   4.940   3.880   9.141 -1.7105  2.3317  2.1891
  106OSM   C16S10833   4.943   3.662   9.147 -0.0716  0.5128  0.1514
  106OSM   H16S10834   4.900   3.657   9.044  0.4284 -3.3966 -0.0259
  106OSM   H16T10835   4.889   3.586   9.208  0.4463  1.4385  1.8230
  106OSM   C17S10836   5.094   3.649   9.139  0.4086  0.2196 -0.0921
  106OSM   H17S10837   5.117   3.553   9.088 -0.0798  0.1450 -0.1802
  106OSM   H17T10838   5.136   3.637   9.241  1.4406 -0.1851 -0.5504
  106OSM   C18S10839   5.178   3.754   9.068  0.6540 -0.7279  0.7035
  106OSM   H18S10840   5.155   3.775   8.962  2.6251 -0.9941  0.1808
  106OSM   H18T10841   5.283   3.719   9.061  0.1945 -2.0663  0.3295
  106OSM   H18U10842   5.162   3.843   9.133  0.0646  0.9058 -1.5675
  106OSM    C1F10843   4.580   3.081  10.281  0.5475 -0.0542 -0.7974
  106OSM     OF10844   4.498   3.031  10.358  0.3613  1.4198  0.4755
  106OSM    C2F10845   4.668   3.001  10.192 -0.1798 -0.3275 -0.3990
  106OSM    H2F10846   4.772   3.038  10.211 -0.2506 -1.0902  1.7340
  106OSM    H2G10847   4.653   3.041  10.089  2.3389  1.1518 -0.2878
  106OSM    C3F10848   4.655   2.849  10.217  0.0132  0.3247  0.2047
  106OSM    H3F10849   4.550   2.814  10.204  0.2881 -0.4065 -0.1236
  106OSM    H3G10850   4.682   2.832  10.323  0.9833  3.0092  0.4717
  106OSM    C4F10851   4.749   2.765  10.122  0.3556 -0.3019 -0.6292
  106OSM    H4F10852   4.744   2.658  10.154 -2.1747  0.2273  1.0956
  106OSM    H4G10853   4.850   2.808  10.137 -1.0749  3.7221 -1.3247
  106OSM    C5F10854   4.715   2.786   9.968  0.5145 -0.0892  0.0228
  106OSM    H5F10855   4.713   2.896   9.948 -1.4815  0.6757  3.5181
  106OSM    H5G10856   4.611   2.753   9.950 -0.6668  1.7114  2.8031
  106OSM    C6F10857   4.817   2.711   9.878 -0.3449 -0.6390  0.2107
  106OSM    H6F10858   4.903   2.779   9.862  1.0062 -2.7037 -1.9470
  106OSM    H6G10859   4.764   2.713   9.781 -0.2449  2.8459  0.0995
  106OSM    C7F10860   4.859   2.581   9.932  0.0127  0.4992  0.6193
  106OSM    H7F10861   4.766   2.528   9.962 -0.1193  0.1587 -0.3382
  106OSM    H7G10862   4.918   2.592  10.025  0.5470  1.0094  0.2294
  106OSM    C8F10863   4.931   2.483   9.841 -0.7221  0.0522 -0.1495
  106OSM    H8F10864   4.959   2.391   9.897  0.3704  0.8900  0.7317
  106OSM    H8G10865   5.033   2.524   9.824 -0.7617 -0.2494 -1.1230
  106OSM    C9F10866   4.852   2.451   9.714  0.2164 -0.0358  0.7700
  106OSM    H9F10867   4.779   2.370   9.717  2.5933 -2.3411  0.3343
  106OSM   C10F10868   4.857   2.524   9.596 -0.3233  0.3107 -0.3542
  106OSM   H10F10869   4.791   2.489   9.515 -0.4987  2.8065 -1.3945
  106OSM   C11F10870   4.939   2.654   9.568  0.2821  0.5314 -0.8003
  106OSM   H11F10871   5.023   2.666   9.640 -0.5398 -1.9040  0.6702
  106OSM   H11G10872   4.877   2.746   9.563 -1.8584 -0.8343 -0.6534
  106OSM   C12F10873   4.996   2.641   9.425 -0.0047  0.5296 -0.5848
  106OSM   H12F10874   5.030   2.542   9.389  1.3901 -0.1364  2.2596
  106OSM   H12G10875   5.094   2.693   9.419  0.7964 -1.0398 -1.6856
  106OSM   C13F10876   4.908   2.694   9.314  0.6509 -0.0847 -0.7727
  106OSM   H13F10877   4.859   2.788   9.345  1.5128 -0.1878  1.0544
  106OSM   H13G10878   4.830   2.619   9.286 -1.0383  1.0407  0.6907
  106OSM   C14F10879   4.982   2.730   9.193 -0.8808 -0.5486  0.2133
  106OSM   H14F10880   5.083   2.772   9.215 -2.1442  1.5089  2.5070
  106OSM   H14G10881   4.938   2.820   9.146  1.1595  2.1988  3.0825
  106OSM   C15F10882   4.999   2.621   9.086  0.2453 -0.3071  0.9887
  106OSM   H15F10883   4.899   2.586   9.054 -0.6513  2.0077  1.1266
  106OSM   H15G10884   5.044   2.537   9.145  1.3194  0.2418  0.9754
  106OSM   C16F10885   5.082   2.678   8.973 -0.2933  0.5600 -0.0207
  106OSM   H16F10886   5.188   2.691   9.006 -0.1071  0.6793 -0.6657
  106OSM   H16G10887   5.040   2.777   8.948  1.3075  1.8952  2.1375
  106OSM   C17F10888   5.079   2.591   8.841 -0.5825  0.4156 -0.4331
  106OSM   H17F10889   5.108   2.489   8.872 -0.4331  0.3478 -0.7948
  106OSM   H17G10890   5.153   2.612   8.760 -0.9477  1.4183 -0.5303
  106OSM   C18F10891   4.940   2.596   8.777 -0.0812 -0.0001 -0.2251
  106OSM   H18F10892   4.940   2.532   8.686  1.5848  0.4655 -0.5938
  106OSM   H18G10893   4.932   2.693   8.724 -0.9716  1.1546  1.9287
  106OSM   H18H10894   4.852   2.586   8.844 -0.3304  2.8780 -0.0075
  107OSM      N10895   6.089   1.107  10.736 -0.4950  0.0806  0.0402
  107OSM    C1510896   6.124   1.214  10.837 -0.2580  0.5907 -0.6988
  107OSM   H15A10897   6.210   1.272  10.809 -2.2603  4.0635 -0.2848
  107OSM   H15B10898   6.136   1.174  10.937  1.7658 -1.5423 -1.7101
  107OSM   H15C10899   6.036   1.276  10.846 -1.1181 -0.5967 -0.7084
  107OSM    C1410900   6.211   1.020  10.720  0.3338 -0.1729 -0.0160
  107OSM   H14A10901   6.228   0.963  10.810 -1.5209 -0.9018 -0.0807
  107OSM   H14B10902   6.295   1.088  10.711  0.0737  0.2155  0.4745
  107OSM   H14C10903   6.206   0.957  10.632 -0.3632  1.1642 -0.9638
  107OSM    C1310904   5.969   1.024  10.775 -0.6561 -0.5090 -0.5423
  107OSM   H13A10905   5.951   0.936  10.715  0.1907 -1.5693  0.6818
  107OSM   H13B10906   5.882   1.083  10.752 -0.1688  0.2728 -0.4079
  107OSM   H13C10907   5.965   0.993  10.878 -2.3307 -2.4720 -1.1331
  107OSM    C1210908   6.058   1.187  10.609 -0.7720 -0.4078  0.1602
  107OSM   H12A10909   6.076   1.125  10.523 -1.7107 -1.0970  0.4412
  107OSM   H12B10910   6.127   1.270  10.605 -0.4340 -0.7094 -0.3202
  107OSM    C1110911   5.917   1.236  10.591  0.4231  0.1370  0.1104
  107OSM   H11A10912   5.839   1.159  10.571 -0.3760  0.5214  1.6116
  107OSM   H11B10913   5.913   1.305  10.504  0.0170  2.6779  2.0412
  107OSM      P10914   5.741   1.339  10.756 -0.4220 -0.6199  0.0970
  107OSM    O1310915   5.690   1.208  10.797  0.3092 -0.5863  0.1199
  107OSM    O1410916   5.742   1.450  10.853 -0.4454 -0.6401 -0.1966
  107OSM    O1110917   5.668   1.382  10.617  0.6656  0.0014 -0.1172
  107OSM    O1210918   5.889   1.318  10.708  0.3290  0.0059  0.5445
  107OSM    C1S10919   5.706   1.502  10.561  0.0897 -0.6779 -0.3332
  107OSM    H1S10920   5.816   1.514  10.552  0.2177 -1.4048  0.2242
  107OSM    H1T10921   5.671   1.594  10.612  4.5216  1.2333 -0.3051
  107OSM     NF10922   5.709   1.641  10.359 -0.8468 -0.1243  0.8415
  107OSM    HNF10923   5.659   1.724  10.339 -1.3115 -0.8486 -1.2651
  107OSM    C2S10924   5.651   1.514  10.410 -0.4330 -0.0125 -0.5721
  107OSM    H2S10925   5.697   1.425  10.363  1.6615 -0.7839  2.5872
  107OSM    C3S10926   5.496   1.502  10.397  0.1217 -0.3276  0.0257
  107OSM    H3S10927   5.442   1.595  10.424 -1.1118 -0.1899 -2.6018
  107OSM     O310928   5.443   1.391  10.474 -0.0647 -0.6617  0.8028
  107OSM    HO310929   5.518   1.366  10.529 -0.2388  0.2707  1.4968
  107OSM    C4S10930   5.456   1.470  10.254  0.5166 -0.1519  0.2965
  107OSM    H4S10931   5.488   1.372  10.215  1.5450  0.0823  0.5077
  107OSM    C5S10932   5.379   1.545  10.168  0.8027 -0.5936  0.9404
  107OSM    H5S10933   5.328   1.638  10.199 -0.6886 -0.3283 -1.9858
  107OSM    C6S10934   5.332   1.509  10.026 -0.4501  0.3365  0.6891
  107OSM    H6S10935   5.232   1.460  10.018 -0.8666  1.2173  0.4392
  107OSM    H6T10936   5.401   1.435   9.980 -0.8475  1.1471 -1.2974
  107OSM    C7S10937   5.336   1.617   9.923  0.7909  0.4186  0.8723
  107OSM    H7S10938   5.431   1.675   9.928  0.8471  0.4470 -0.2789
  107OSM    H7T10939   5.246   1.679   9.941 -0.3103  0.3560 -3.4111
  107OSM    C8S10940   5.329   1.582   9.771  0.2021 -1.1479  0.0678
  107OSM    H8S10941   5.233   1.532   9.750  0.1339 -1.9695  2.1945
  107OSM    H8T10942   5.420   1.525   9.740  2.4225  2.5471 -0.9559
  107OSM    C9S10943   5.324   1.709   9.686 -0.0998  0.6290 -1.0721
  107OSM    H9S10944   5.420   1.765   9.692  0.7048 -0.8387  0.8464
  107OSM    H9T10945   5.250   1.784   9.721  0.0439 -0.8447  2.9480
  107OSM   C10S10946   5.299   1.678   9.542  1.2990 -0.0109  0.2581
  107OSM   H10S10947   5.201   1.626   9.530  0.8521  1.2212 -1.9427
  107OSM   H10T10948   5.375   1.606   9.506 -1.5231 -2.8060 -0.6016
  107OSM   C11S10949   5.298   1.809   9.460  0.1891 -0.1383 -1.1524
  107OSM   H11S10950   5.402   1.848   9.460  1.1035 -2.4108 -1.6588
  107OSM   H11T10951   5.225   1.884   9.497  0.1688 -1.2087  1.1597
  107OSM   C12S10952   5.257   1.767   9.321 -0.4011  0.5418  0.1714
  107OSM   H12S10953   5.150   1.738   9.326  0.3101 -2.1555  3.1962
  107OSM   H12T10954   5.314   1.684   9.274 -0.8605  0.0340  0.4941
  107OSM   C13S10955   5.277   1.891   9.225 -0.2364  0.0706  0.1825
  107OSM   H13S10956   5.324   1.980   9.272  1.1500 -0.6069  0.1561
  107OSM   H13T10957   5.188   1.936   9.178  0.9618  2.0350 -0.3144
  107OSM   C14S10958   5.361   1.871   9.095 -0.4912  0.0008  0.1494
  107OSM   H14S10959   5.451   1.814   9.126  0.6912 -0.5562 -3.8219
  107OSM   H14T10960   5.403   1.969   9.062  2.9351 -1.4956 -0.4241
  107OSM   C15S10961   5.296   1.783   8.989  0.0002  0.6604  0.8002
  107OSM   H15S10962   5.231   1.707   9.038 -1.3905  1.8197  0.7982
  107OSM   H15T10963   5.378   1.721   8.946 -1.1121 -0.5428  0.3764
  107OSM   C16S10964   5.215   1.847   8.870 -0.0127  0.3699 -0.4822
  107OSM   H16S10965   5.245   1.951   8.845 -0.3632  0.2030 -1.6898
  107OSM   H16T10966   5.109   1.854   8.902  0.3943 -0.3479  1.0942
  107OSM   C17S10967   5.225   1.758   8.746  0.7669  0.9492 -0.3178
  107OSM   H17S10968   5.164   1.667   8.765  0.7363  0.8641 -0.8010
  107OSM   H17T10969   5.332   1.735   8.729  0.3694 -0.4538 -1.1412
  107OSM   C18S10970   5.165   1.816   8.623 -0.0219  0.1810  0.3184
  107OSM   H18S10971   5.056   1.828   8.644  0.1508  0.0032  1.3949
  107OSM   H18T10972   5.178   1.756   8.531  0.0143  0.6378  0.0248
  107OSM   H18U10973   5.202   1.919   8.608 -0.4602  0.3150  0.1284
  107OSM    C1F10974   5.836   1.660  10.321 -0.4295 -0.2206 -0.0846
  107OSM     OF10975   5.916   1.574  10.339 -0.6297  0.0360 -0.6539
  107OSM    C2F10976   5.876   1.782  10.246 -0.0463 -0.6830 -0.1231
  107OSM    H2F10977   5.918   1.857  10.317 -0.2236  0.6421 -1.3646
  107OSM    H2G10978   5.790   1.832  10.195  0.6763  0.6077 -0.1229
  107OSM    C3F10979   5.977   1.750  10.131  0.0867  0.0126 -0.4201
  107OSM    H3F10980   5.936   1.666  10.071  0.3706 -0.7706  0.4627
  107OSM    H3G10981   6.072   1.716  10.177  0.4842  2.6776  0.8988
  107OSM    C4F10982   6.007   1.878  10.060  0.3599 -0.0432  0.2411
  107OSM    H4F10983   6.039   1.954  10.135  1.2501 -0.1461 -0.0262
  107OSM    H4G10984   5.906   1.913  10.029  0.3281 -0.0797  0.3057
  107OSM    C5F10985   6.114   1.878   9.947 -0.4489 -0.3143 -0.2528
  107OSM    H5F10986   6.076   1.820   9.859  2.0194  0.1280 -1.7118
  107OSM    H5G10987   6.201   1.814   9.975 -1.6911 -1.3090  1.4931
  107OSM    C6F10988   6.151   2.021   9.915 -0.4498  0.2696  0.0372
  107OSM    H6F10989   6.178   2.080  10.005 -1.0189  1.8082 -0.7617
  107OSM    H6G10990   6.057   2.061   9.871 -0.5282 -1.1781 -1.1788
  107OSM    C7F10991   6.268   2.035   9.812  0.9983 -0.4629 -0.4450
  107OSM    H7F10992   6.279   1.946   9.746  2.1255 -0.5854 -0.1185
  107OSM    H7G10993   6.359   2.054   9.873  0.5139 -1.2158  0.5505
  107OSM    C8F10994   6.243   2.154   9.718 -0.1695 -0.2379 -0.4025
  107OSM    H8F10995   6.347   2.173   9.684 -0.4466  0.9193 -0.6521
  107OSM    H8G10996   6.227   2.235   9.792  0.9072  2.4638 -2.9110
  107OSM    C9F10997   6.124   2.134   9.618 -0.2987  0.4109 -0.3726
  107OSM    H9F10998   6.026   2.122   9.667  0.2074 -0.2190  0.5322
  107OSM   C10F10999   6.138   2.135   9.480  0.7345  0.0058  0.0731
  107OSM   H10F11000   6.047   2.110   9.424  0.4472 -1.1547  1.0127
  107OSM   C11F11001   6.254   2.153   9.388  0.3125  0.4817 -0.3976
  107OSM   H11F11002   6.290   2.056   9.348  0.5888 -0.2862  1.5950
  107OSM   H11G11003   6.342   2.183   9.449  0.6007  0.2804 -0.7108
  107OSM   C12F11004   6.232   2.271   9.284  0.2347  0.5813  0.1251
  107OSM   H12F11005   6.182   2.354   9.338  0.2280 -0.7607  2.3146
  107OSM   H12G11006   6.170   2.237   9.198  0.5686  0.3001 -0.0088
  107OSM   C13F11007   6.364   2.309   9.234 -0.0349  0.2414  0.1515
  107OSM   H13F11008   6.429   2.327   9.322 -0.4031 -1.2353  0.7434
  107OSM   H13G11009   6.357   2.407   9.180  1.8319 -0.3605 -1.3096
  107OSM   C14F11010   6.440   2.212   9.147  0.0554 -0.6960 -0.3787
  107OSM   H14F11011   6.412   2.113   9.188 -0.6258  0.8502  3.2474
  107OSM   H14G11012   6.548   2.230   9.162  0.2305 -1.0297 -1.1696
  107OSM   C15F11013   6.409   2.226   9.000 -0.3037  0.3458 -0.5580
  107OSM   H15F11014   6.434   2.328   8.965 -0.4209 -0.0629 -1.8988
  107OSM   H15G11015   6.301   2.205   8.983 -0.5391  0.8064  0.3468
  107OSM   C16F11016   6.497   2.121   8.923 -0.1288  0.7600  0.0039
  107OSM   H16F11017   6.475   2.016   8.951  1.9574  0.2838 -0.0171
  107OSM   H16G11018   6.605   2.143   8.939  0.0849 -0.0515 -0.2857
  107OSM   C17F11019   6.495   2.130   8.771  0.7462 -1.0331  0.6692
  107OSM   H17F11020   6.538   2.227   8.738  0.1522 -1.1066 -0.3679
  107OSM   H17G11021   6.395   2.145   8.725  0.8747  0.3662  0.8086
  107OSM   C18F11022   6.575   2.026   8.697  0.6322  0.4553 -0.4171
  107OSM   H18F11023   6.679   2.024   8.736 -0.4406 -0.0350  2.7306
  107OSM   H18G11024   6.581   2.052   8.589 -1.5791  0.6717 -0.5290
  107OSM   H18H11025   6.523   1.928   8.698  0.0203  0.7766 -0.3085
  108OSM      N11026   1.161   2.179  10.965  0.1279  0.6537  0.7533
  108OSM    C1511027   1.095   2.307  10.978 -0.8862  0.3503 -0.7545
  108OSM   H15A11028   0.995   2.323  10.941 -0.3492  2.5975 -1.4071
  108OSM   H15B11029   1.162   2.377  10.931 -0.0008  1.0164  1.3969
  108OSM   H15C11030   1.079   2.338  11.080  0.2333 -2.3233  0.3383
  108OSM    C1411031   1.302   2.184  11.002  0.6830  0.3360 -0.0343
  108OSM   H14A11032   1.341   2.083  11.005 -2.9498 -1.1836  1.5981
  108OSM   H14B11033   1.312   2.232  11.098 -2.9700  1.2613  0.0150
  108OSM   H14C11034   1.356   2.231  10.921 -1.1479 -1.8249 -2.7120
  108OSM    C1311035   1.082   2.089  11.055  0.3910 -0.5498  0.4198
  108OSM   H13A11036   1.123   1.990  11.063 -0.6474 -1.0099  0.3048
  108OSM   H13B11037   0.987   2.083  11.003  1.2886 -1.7505 -1.1512
  108OSM   H13C11038   1.073   2.130  11.155 -1.2862 -0.9610  0.4792
  108OSM    C1211039   1.147   2.137  10.820  0.1690  0.2338 -0.2115
  108OSM   H12A11040   1.042   2.122  10.797  0.1636  2.5027 -2.1495
  108OSM   H12B11041   1.213   2.053  10.812 -0.2459 -0.0909 -0.2555
  108OSM    C1111042   1.199   2.232  10.706 -0.3380 -0.2463  0.4412
  108OSM   H11A11043   1.127   2.316  10.704 -1.4984 -1.1413  1.9058
  108OSM   H11B11044   1.172   2.184  10.610 -0.6204 -2.2503  1.4614
  108OSM      P11045   1.368   2.422  10.717 -0.5715 -0.2500 -0.0143
  108OSM    O1311046   1.331   2.471  10.851  0.0466 -0.5801  0.1504
  108OSM    O1411047   1.503   2.446  10.671  0.5250 -0.5881 -0.3029
  108OSM    O1111048   1.267   2.480  10.609 -0.5111  0.5563 -0.2782
  108OSM    O1211049   1.339   2.266  10.714  0.1339 -0.5091 -0.2054
  108OSM    C1S11050   1.313   2.498  10.470  0.5107  0.3307 -0.6486
  108OSM    H1S11051   1.420   2.471  10.454  0.1270 -1.9323  0.1308
  108OSM    H1T11052   1.286   2.596  10.426  0.1096  1.2773  1.5507
  108OSM     NF11053   1.277   2.378  10.256 -0.0617 -0.2098 -0.1647
  108OSM    HNF11054   1.253   2.444  10.186  0.9120 -0.5576 -0.8355
  108OSM    C2S11055   1.228   2.395  10.390 -0.0588  0.6641  0.4676
  108OSM    H2S11056   1.239   2.294  10.435  0.0043 -0.7157 -2.3728
  108OSM    C3S11057   1.071   2.421  10.385 -0.1868 -0.2430 -0.2277
  108OSM    H3S11058   1.061   2.515  10.328 -0.6094 -2.0108 -3.3286
  108OSM     O311059   1.013   2.456  10.510 -0.3096  0.4798 -0.0644
  108OSM    HO311060   1.086   2.456  10.572 -0.7926  0.5015  0.5102
  108OSM    C4S11061   1.000   2.309  10.310  0.2322  0.1827 -0.1324
  108OSM    H4S11062   1.015   2.208  10.351 -0.3453  0.1424 -0.0067
  108OSM    C5S11063   0.937   2.306  10.189 -0.6316 -0.2492 -0.3381
  108OSM    H5S11064   0.931   2.395  10.125  1.6303 -0.5977 -1.1408
  108OSM    C6S11065   0.876   2.187  10.121  0.6846  0.0604 -0.2821
  108OSM    H6S11066   0.766   2.189  10.132  0.4373 -0.1553 -2.2857
  108OSM    H6T11067   0.915   2.099  10.176 -0.3955 -1.2982 -1.5915
  108OSM    C7S11068   0.917   2.185   9.973 -0.2758  0.8700  0.1617
  108OSM    H7S11069   1.023   2.152   9.971 -0.4749  0.0039  2.0293
  108OSM    H7T11070   0.910   2.285   9.924 -0.6082 -0.5024 -2.8644
  108OSM    C8S11071   0.828   2.095   9.883  0.2081  0.3251 -0.1014
  108OSM    H8S11072   0.719   2.110   9.899 -0.3568 -2.0040 -1.2726
  108OSM    H8T11073   0.852   1.987   9.893 -0.3219  0.3619  2.0649
  108OSM    C9S11074   0.856   2.143   9.744 -0.0242 -0.1359  0.5599
  108OSM    H9S11075   0.964   2.138   9.717 -0.4095 -0.7281 -0.9839
  108OSM    H9T11076   0.828   2.251   9.736 -1.5203 -0.4269  1.4344
  108OSM   C10S11077   0.775   2.086   9.629 -0.2761  0.4951  0.2476
  108OSM   H10S11078   0.666   2.077   9.649 -0.4527  0.6702 -0.5878
  108OSM   H10T11079   0.813   1.982   9.624  1.2376  1.0781 -1.7977
  108OSM   C11S11080   0.794   2.151   9.496 -0.5887 -0.1428  0.1911
  108OSM   H11S11081   0.900   2.175   9.470 -0.5879 -1.4368 -1.1404
  108OSM   H11T11082   0.742   2.249   9.489  0.1891  0.1443 -3.5259
  108OSM   C12S11083   0.754   2.067   9.378  1.1661  0.0933  0.7488
  108OSM   H12S11084   0.644   2.051   9.373  1.3275 -0.9994  0.3581
  108OSM   H12T11085   0.792   1.963   9.372 -1.1940 -0.8525  1.0639
  108OSM   C13S11086   0.784   2.130   9.241  0.1045 -1.0514 -0.1823
  108OSM   H13S11087   0.895   2.134   9.234  0.1342  3.1777 -0.2166
  108OSM   H13T11088   0.755   2.237   9.247 -2.5473 -1.5630 -2.2159
  108OSM   C14S11089   0.719   2.073   9.118  1.1561  0.4649 -0.0234
  108OSM   H14S11090   0.610   2.064   9.139  1.1089  1.6043  0.2844
  108OSM   H14T11091   0.758   1.971   9.097 -1.0045 -0.1817 -1.1943
  108OSM   C15S11092   0.732   2.155   8.989 -0.0966  0.4206 -0.3303
  108OSM   H15S11093   0.834   2.199   8.987  0.5114 -0.9089 -0.2445
  108OSM   H15T11094   0.654   2.233   9.000  2.0908  2.5080  1.3584
  108OSM   C16S11095   0.724   2.063   8.856  1.0591 -0.2321 -0.6046
  108OSM   H16S11096   0.633   2.000   8.861  1.6086 -1.0993 -1.2666
  108OSM   H16T11097   0.815   2.000   8.857  1.4555  0.3047  1.7328
  108OSM   C17S11098   0.720   2.142   8.717  0.0303  0.2288 -0.3246
  108OSM   H17S11099   0.723   2.060   8.642 -2.9397  2.0688 -2.6689
  108OSM   H17T11100   0.813   2.200   8.701 -0.6393  1.7447  1.0381
  108OSM   C18S11101   0.595   2.220   8.694 -0.3597  0.4165  0.2334
  108OSM   H18S11102   0.590   2.258   8.590 -0.0907  2.8149  1.0472
  108OSM   H18T11103   0.584   2.302   8.768 -0.2192 -0.2262  0.9875
  108OSM   H18U11104   0.505   2.155   8.703  0.2137 -0.3863  0.2371
  108OSM    C1F11105   1.389   2.320  10.231 -0.2440  0.6511 -0.2195
  108OSM     OF11106   1.451   2.258  10.320 -0.0337 -0.0717 -0.2479
  108OSM    C2F11107   1.442   2.336  10.092 -0.0559 -0.2066  0.3891
  108OSM    H2F11108   1.482   2.440  10.093 -1.1831  0.2330  0.7256
  108OSM    H2G11109   1.360   2.326  10.018 -0.4658 -1.5881  0.9928
  108OSM    C3F11110   1.559   2.239  10.065 -0.7764 -0.1192 -0.0792
  108OSM    H3F11111   1.531   2.133  10.081 -0.3807 -0.1620  0.3277
  108OSM    H3G11112   1.640   2.259  10.138 -1.8719  1.2599  0.8192
  108OSM    C4F11113   1.613   2.257   9.919  0.2050 -0.0856  0.3367
  108OSM    H4F11114   1.717   2.221   9.904  0.5995  0.1960  2.1365
  108OSM    H4G11115   1.634   2.366   9.912  0.2138  0.0864  2.4338
  108OSM    C5F11116   1.515   2.209   9.809  0.7233  0.2427  0.0757
  108OSM    H5F11117   1.413   2.248   9.829  0.5684 -1.6175  3.6807
  108OSM    H5G11118   1.509   2.098   9.807 -0.4188  0.2905 -1.9020
  108OSM    C6F11119   1.553   2.247   9.667 -0.0184 -1.0924  0.3022
  108OSM    H6F11120   1.662   2.228   9.660  0.4319  1.5034 -0.6751
  108OSM    H6G11121   1.541   2.355   9.647  2.4116 -0.9046 -0.4168
  108OSM    C7F11122   1.482   2.169   9.551  0.8373 -0.7927 -0.8735
  108OSM    H7F11123   1.373   2.168   9.574  0.7731 -1.1319 -1.1878
  108OSM    H7G11124   1.512   2.062   9.557 -1.9043 -1.5636  2.0155
  108OSM    C8F11125   1.504   2.248   9.418  0.0142 -0.0696  0.6915
  108OSM    H8F11126   1.470   2.353   9.435  1.3134  0.8233 -1.7405
  108OSM    H8G11127   1.447   2.202   9.334  0.3715 -0.9189  0.9068
  108OSM    C9F11128   1.647   2.250   9.384  0.3012  0.2110 -0.4076
  108OSM    H9F11129   1.707   2.267   9.474 -0.7930 -0.5094  0.4811
  108OSM   C10F11130   1.696   2.226   9.260  0.7617  0.3162 -0.2729
  108OSM   H10F11131   1.804   2.236   9.240  0.6573  1.6245 -0.2774
  108OSM   C11F11132   1.619   2.197   9.132  0.8271 -0.3366  0.3084
  108OSM   H11F11133   1.674   2.235   9.043  0.5233 -1.2152 -0.2614
  108OSM   H11G11134   1.519   2.243   9.123  0.0879 -2.0451 -0.5764
  108OSM   C12F11135   1.595   2.050   9.108 -0.1837  0.7639 -0.1711
  108OSM   H12F11136   1.523   2.018   9.186  0.8794  1.1908  1.0164
  108OSM   H12G11137   1.681   1.982   9.124 -0.1549  1.1655  1.6333
  108OSM   C13F11138   1.520   2.011   8.981  0.4417 -0.7024  0.0197
  108OSM   H13F11139   1.562   2.056   8.889 -0.8236  1.8267  0.6090
  108OSM   H13G11140   1.417   2.049   8.996  1.4318  2.2612 -0.1629
  108OSM   C14F11141   1.508   1.855   8.966 -0.8324  0.4519  0.2977
  108OSM   H14F11142   1.449   1.804   9.045 -1.5599  1.2904  0.3100
  108OSM   H14G11143   1.610   1.811   8.980 -0.5146  1.1978  0.3634
  108OSM   C15F11144   1.458   1.814   8.824  0.1375  0.4317 -0.2658
  108OSM   H15F11145   1.537   1.818   8.747  0.3291 -2.4996 -0.3317
  108OSM   H15G11146   1.383   1.894   8.808  1.7631  1.7482 -1.5888
  108OSM   C16F11147   1.411   1.673   8.815 -0.2011 -0.4418 -0.0739
  108OSM   H16F11148   1.372   1.655   8.713 -0.0410  1.7607 -0.5660
  108OSM   H16G11149   1.338   1.652   8.896 -1.8934 -0.1451 -1.4638
  108OSM   C17F11150   1.529   1.580   8.847  0.6706  0.0259 -0.6124
  108OSM   H17F11151   1.567   1.623   8.943  1.5008  1.5003 -1.5638
  108OSM   H17G11152   1.611   1.599   8.775 -0.1469  1.8590 -1.1202
  108OSM   C18F11153   1.496   1.432   8.872 -0.4026  0.1147  0.5357
  108OSM   H18F11154   1.437   1.388   8.788 -1.4240  1.6673  0.4006
  108OSM   H18G11155   1.436   1.390   8.955  0.1111 -0.7558  0.4698
  108OSM   H18H11156   1.592   1.377   8.878 -0.1881  0.5307  1.0030
  109OSM      N11157   6.732   0.519  10.703 -0.4711 -0.6711  0.1002
  109OSM    C1511158   6.855   0.602  10.723 -0.0833 -0.3184  0.2382
  109OSM   H15A11159   6.838   0.708  10.736  1.6900 -0.1148  1.2003
  109OSM   H15B11160   6.912   0.593  10.631 -1.5490 -0.6268 -0.6750
  109OSM   H15C11161   6.908   0.560  10.807  2.8570 -0.0593 -1.3398
  109OSM    C1411162   6.680   0.539  10.562 -0.7815 -0.3549  0.6658
  109OSM   H14A11163   6.638   0.639  10.558  1.0506  0.4003 -1.1435
  109OSM   H14B11164   6.594   0.476  10.545 -1.5951  0.8099  0.3277
  109OSM   H14C11165   6.753   0.538  10.483 -0.6745 -0.9707  0.7686
  109OSM    C1311166   6.771   0.375  10.705 -0.2827  0.0947  0.1200
  109OSM   H13A11167   6.699   0.307  10.662  1.4608 -1.3474 -0.6303
  109OSM   H13B11168   6.791   0.343  10.805  1.3311 -1.2116 -0.5812
  109OSM   H13C11169   6.857   0.356  10.643 -1.3359  1.0667 -1.7505
  109OSM    C1211170   6.625   0.551  10.808 -0.3886  0.5503 -0.1184
  109OSM   H12A11171   6.677   0.553  10.903  1.4184  1.9131 -1.0719
  109OSM   H12B11172   6.546   0.477  10.812 -1.4507  1.7105  1.5590
  109OSM    C1111173   6.567   0.691  10.790 -0.3103 -0.2206  0.4345
  109OSM   H11A11174   6.473   0.691  10.850  0.2293  0.4971  1.3010
  109OSM   H11B11175   6.535   0.700  10.684 -1.1347  0.4097  0.7235
  109OSM      P11176   6.618   0.929  10.887 -0.0785 -0.2094  0.2803
  109OSM    O1311177   6.478   0.937  10.925 -0.1513  0.0032  0.6891
  109OSM    O1411178   6.713   0.973  10.990 -0.1890  0.1040 -0.2975
  109OSM    O1111179   6.640   1.014  10.756 -0.1055  0.2106 -0.8064
  109OSM    O1211180   6.663   0.785  10.834 -0.0925  0.2830  0.3709
  109OSM    C1S11181   6.740   0.989  10.657  0.1601  0.7124 -0.0311
  109OSM    H1S11182   6.776   0.884  10.654 -0.5955  0.4605 -2.4011
  109OSM    H1T11183   6.831   1.053  10.667  1.3948 -0.4723 -2.7136
  109OSM     NF11184   6.789   0.989  10.414  0.0623  0.2492  0.3886
  109OSM    HNF11185   6.834   1.072  10.382  1.4673 -0.2458  1.0047
  109OSM    C2S11186   6.684   1.017  10.515 -0.1769  0.3524 -0.4909
  109OSM    H2S11187   6.601   0.948  10.489 -0.2769  0.5162 -0.6082
  109OSM    C3S11188   6.625   1.162  10.502 -0.3017 -0.3047  0.7763
  109OSM    H3S11189   6.703   1.237  10.527  0.2279 -1.1832  1.8478
  109OSM     O311190   6.516   1.195  10.591 -0.2189  0.4543 -0.6468
  109OSM    HO311191   6.526   1.127  10.657 -1.1888 -1.2579 -2.1638
  109OSM    C4S11192   6.578   1.186  10.359  0.0799 -0.3172  0.4827
  109OSM    H4S11193   6.645   1.247  10.297 -0.8336 -0.8897 -1.1354
  109OSM    C5S11194   6.464   1.136  10.304  0.0354 -0.0727 -0.1908
  109OSM    H5S11195   6.394   1.078  10.366  0.7552  0.0104  0.7136
  109OSM    C6S11196   6.434   1.170  10.156 -0.0058 -0.5185  0.3772
  109OSM    H6S11197   6.502   1.238  10.101  0.5275 -1.2987  0.0560
  109OSM    H6T11198   6.334   1.218  10.154 -0.6414 -1.7956 -1.2583
  109OSM    C7S11199   6.416   1.042  10.082  0.1443  0.2032  0.1462
  109OSM    H7S11200   6.369   0.971  10.153  0.3750 -0.3571 -0.2485
  109OSM    H7T11201   6.513   0.990  10.068 -0.6289 -1.2035 -0.2132
  109OSM    C8S11202   6.326   1.041   9.960 -0.5414  0.7440  0.0731
  109OSM    H8S11203   6.225   1.071   9.996 -1.4689 -2.9677  1.0146
  109OSM    H8T11204   6.313   0.936   9.926  1.4348  0.7835 -0.9295
  109OSM    C9S11205   6.374   1.133   9.855 -0.2937 -0.0243  0.0332
  109OSM    H9S11206   6.479   1.104   9.834  0.2114 -0.4110  2.6713
  109OSM    H9T11207   6.378   1.241   9.879 -0.6147 -0.0271  0.1113
  109OSM   C10S11208   6.291   1.104   9.734  0.1012  0.1297  0.9059
  109OSM   H10S11209   6.187   1.141   9.748 -0.3300 -0.9342  0.6838
  109OSM   H10T11210   6.291   0.996   9.706  2.2668  0.3532 -0.1630
  109OSM   C11S11211   6.361   1.156   9.606  0.5638 -0.0352  0.1426
  109OSM   H11S11212   6.468   1.126   9.597  0.3269 -1.2069  1.0225
  109OSM   H11T11213   6.367   1.266   9.616  0.1264 -0.0617  0.7036
  109OSM   C12S11214   6.285   1.111   9.475  0.1565  0.5988 -0.0800
  109OSM   H12S11215   6.184   1.155   9.486  0.7828  1.6687  1.9767
  109OSM   H12T11216   6.271   1.001   9.478  2.1785  0.2954 -0.2815
  109OSM   C13S11217   6.368   1.164   9.358 -0.9636  0.3943  0.1337
  109OSM   H13S11218   6.464   1.110   9.351 -0.8674  0.4862  0.6514
  109OSM   H13T11219   6.396   1.271   9.368 -0.6769  0.2595  0.8679
  109OSM   C14S11220   6.281   1.153   9.234 -0.8093 -0.4896  0.0991
  109OSM   H14S11221   6.200   1.228   9.247 -0.8043 -0.1019 -1.9160
  109OSM   H14T11222   6.227   1.056   9.225  0.6624 -1.3725  0.2709
  109OSM   C15S11223   6.346   1.196   9.096  0.8439  0.3001 -0.5443
  109OSM   H15S11224   6.272   1.168   9.017  0.7172 -0.6573 -0.0990
  109OSM   H15T11225   6.442   1.141   9.086  1.6646  1.4439  0.7246
  109OSM   C16S11226   6.391   1.343   9.086  0.2434  0.4239  0.2377
  109OSM   H16S11227   6.478   1.355   9.154  1.4152  0.6795 -1.2493
  109OSM   H16T11228   6.318   1.419   9.121  0.1779 -0.1155  1.3015
  109OSM   C17S11229   6.428   1.380   8.940  0.3586 -0.3436 -0.5607
  109OSM   H17S11230   6.449   1.488   8.928  1.3265 -0.5740 -0.9947
  109OSM   H17T11231   6.346   1.346   8.873  1.3509 -0.8856 -1.5309
  109OSM   C18S11232   6.565   1.320   8.898  0.8911  0.6144 -0.3014
  109OSM   H18S11233   6.635   1.375   8.964 -0.6144  1.1870  0.8650
  109OSM   H18T11234   6.585   1.337   8.790 -1.4481 -4.8703 -1.9818
  109OSM   H18U11235   6.565   1.209   8.909  0.0024  0.5414 -0.9229
  109OSM    C1F11236   6.830   0.870  10.374  0.7091  0.0004  0.1294
  109OSM     OF11237   6.782   0.769  10.415 -0.1095  0.7165  0.0858
  109OSM    C2F11238   6.941   0.862  10.272  0.4930  0.3638  0.7470
  109OSM    H2F11239   7.028   0.807  10.315 -0.6590 -1.6246  0.6510
  109OSM    H2G11240   6.981   0.963  10.248 -1.1933  0.8779 -0.0187
  109OSM    C3F11241   6.888   0.805  10.139  0.1277 -0.4084 -0.1158
  109OSM    H3F11242   6.790   0.855  10.120  1.3847  2.5158  0.5162
  109OSM    H3G11243   6.863   0.697  10.149  1.8977 -0.8733 -0.3489
  109OSM    C4F11244   6.984   0.804  10.021 -0.5475 -0.0647  0.2825
  109OSM    H4F11245   7.080   0.750  10.037 -0.3246  0.4388  0.6782
  109OSM    H4G11246   7.012   0.910   9.998  2.0250 -0.9378 -0.9905
  109OSM    C5F11247   6.925   0.747   9.891 -0.0980 -0.2888  0.5932
  109OSM    H5F11248   6.844   0.814   9.857 -2.7590 -0.5656  5.4778
  109OSM    H5G11249   6.883   0.644   9.897 -0.4306 -0.1841  0.1095
  109OSM    C6F11250   7.037   0.744   9.788  0.3342  0.8787 -0.2889
  109OSM    H6F11251   7.116   0.668   9.808 -0.9711 -0.0939  1.4161
  109OSM    H6G11252   7.072   0.848   9.772 -1.2244  1.2510 -1.5458
  109OSM    C7F11253   6.987   0.681   9.656 -0.5481 -0.7316  0.2235
  109OSM    H7F11254   6.920   0.753   9.603  0.5414 -1.0854 -1.7171
  109OSM    H7G11255   6.930   0.587   9.672 -0.4652 -0.9984 -0.9542
  109OSM    C8F11256   7.094   0.649   9.544 -0.4543 -0.3818  0.1118
  109OSM    H8F11257   7.033   0.604   9.463 -2.2891 -0.9102  1.7204
  109OSM    H8G11258   7.165   0.568   9.570  0.9252 -0.2137 -2.7187
  109OSM    C9F11259   7.169   0.777   9.504  0.3665 -0.5166  0.5342
  109OSM    H9F11260   7.204   0.836   9.591  0.1926  0.2434  0.0964
  109OSM   C10F11261   7.197   0.818   9.379  0.8938  0.1923  0.3047
  109OSM   H10F11262   7.241   0.917   9.361  1.9908 -0.1258  1.1402
  109OSM   C11F11263   7.157   0.751   9.254 -0.0749  0.3353  0.3154
  109OSM   H11F11264   7.064   0.796   9.213 -0.5249 -1.1486 -0.3621
  109OSM   H11G11265   7.124   0.650   9.285 -4.1513  0.9903 -1.2546
  109OSM   C12F11266   7.260   0.743   9.144  0.5003 -0.1572  0.0392
  109OSM   H12F11267   7.212   0.712   9.049  0.4822 -1.4605  0.4512
  109OSM   H12G11268   7.328   0.659   9.173  2.7514  1.0626 -1.3818
  109OSM   C13F11269   7.335   0.870   9.108  0.2419 -0.3965  0.1924
  109OSM   H13F11270   7.393   0.910   9.194 -0.3092  0.2331  0.2856
  109OSM   H13G11271   7.262   0.949   9.078  0.8432  0.5361  1.0950
  109OSM   C14F11272   7.438   0.843   8.990  0.3712  0.1278 -0.9056
  109OSM   H14F11273   7.384   0.882   8.901 -2.5619 -0.5655  0.4264
  109OSM   H14G11274   7.470   0.738   8.973  0.0692  0.1532 -1.6705
  109OSM   C15F11275   7.567   0.928   9.015  0.7844 -0.1303  0.1290
  109OSM   H15F11276   7.579   0.937   9.125  1.2373 -1.2754  0.1899
  109OSM   H15G11277   7.552   1.024   8.960  1.6969 -0.4459 -0.7056
  109OSM   C16F11278   7.702   0.871   8.956 -0.1146  0.1551  0.5091
  109OSM   H16F11279   7.717   0.768   8.994 -0.8016 -0.4037 -0.6806
  109OSM   H16G11280   7.785   0.939   8.985 -1.2426  2.1089 -0.6550
  109OSM   C17F11281   7.712   0.873   8.801 -0.1465 -0.4786  0.0857
  109OSM   H17F11282   7.719   0.974   8.755  1.1758 -0.2270  0.7859
  109OSM   H17G11283   7.626   0.812   8.765 -0.0730 -0.6048  0.1225
  109OSM   C18F11284   7.838   0.801   8.743 -0.2704  0.4390  0.4900
  109OSM   H18F11285   7.842   0.692   8.763 -4.7987  0.0037  0.2683
  109OSM   H18G11286   7.921   0.865   8.779 -0.6019  1.0715  0.1426
  109OSM   H18H11287   7.837   0.811   8.632  0.1670 -1.5028  0.2785
  110OSM      N11288   3.650   6.289  11.199  0.4082  0.0222  0.4117
  110OSM    C1511289   3.772   6.255  11.271 -0.5324 -0.5087  0.6159
  110OSM   H15A11290   3.792   6.293  11.370  0.2527 -3.6463  1.8034
  110OSM   H15B11291   3.856   6.269  11.204 -1.6088 -1.1902 -0.9314
  110OSM   H15C11292   3.775   6.147  11.280  1.9342 -0.7045 -1.3598
  110OSM    C1411293   3.530   6.267  11.282 -0.5410 -0.4175  0.6451
  110OSM   H14A11294   3.435   6.289  11.236  0.0339 -1.7430 -1.3158
  110OSM   H14B11295   3.542   6.324  11.373 -1.3147 -1.4819  1.4407
  110OSM   H14C11296   3.524   6.163  11.310  1.4452 -1.2193 -1.5566
  110OSM    C1311297   3.646   6.431  11.161 -0.4696 -0.5563 -0.3019
  110OSM   H13A11298   3.554   6.446  11.106 -2.2503 -2.5401  1.8966
  110OSM   H13B11299   3.742   6.461  11.123 -0.5238 -1.1713 -0.9366
  110OSM   H13C11300   3.628   6.500  11.242  1.8101 -0.8332  0.4989
  110OSM    C1211301   3.635   6.213  11.067  0.3530 -0.0140 -0.5153
  110OSM   H12A11302   3.707   6.243  10.993  0.5920 -0.4488 -0.4649
  110OSM   H12B11303   3.540   6.241  11.024  0.1054  0.0111  0.0359
  110OSM    C1111304   3.648   6.064  11.071 -0.2318 -0.0986  0.7714
  110OSM   H11A11305   3.580   6.012  11.142 -1.4362 -1.0308 -0.9978
  110OSM   H11B11306   3.751   6.041  11.106  0.0781  0.4246  0.2193
  110OSM      P11307   3.638   5.875  10.892 -0.3735  0.0441  0.2548
  110OSM    O1311308   3.780   5.851  10.916  0.9340 -0.2420 -0.3585
  110OSM    O1411309   3.540   5.775  10.944 -0.3426 -0.2803  0.9396
  110OSM    O1111310   3.623   5.879  10.738 -0.4149 -0.1081  0.0098
  110OSM    O1211311   3.602   6.021  10.942  0.0096  0.4477 -0.4136
  110OSM    C1S11312   3.576   5.992  10.660  0.6504 -0.1539  0.0506
  110OSM    H1S11313   3.652   6.072  10.671  0.2930  0.0290  1.2952
  110OSM    H1T11314   3.482   6.032  10.704  1.2967  2.8171 -0.9978
  110OSM     NF11315   3.506   6.084  10.440 -0.3350 -0.5004  0.3313
  110OSM    HNF11316   3.413   6.102  10.409  0.1668  0.3734 -0.7190
  110OSM    C2S11317   3.540   5.959  10.510  0.7453  0.0156 -0.5203
  110OSM    H2S11318   3.628   5.916  10.459 -0.8806 -2.9257 -1.0526
  110OSM    C3S11319   3.437   5.835  10.510  0.1169 -0.6087 -0.0211
  110OSM    H3S11320   3.344   5.858  10.567 -0.8303  1.9525 -2.3879
  110OSM     O311321   3.496   5.716  10.568  0.4438 -0.2141  0.0256
  110OSM    HO311322   3.561   5.754  10.627 -1.0068  2.0237  0.3239
  110OSM    C4S11323   3.397   5.804  10.372  0.3387  0.4405  0.4183
  110OSM    H4S11324   3.479   5.788  10.300 -1.7191  2.1578 -2.4874
  110OSM    C5S11325   3.266   5.776  10.335 -0.6809 -0.1539 -0.3012
  110OSM    H5S11326   3.192   5.780  10.416  0.1536 -0.8159  0.5083
  110OSM    C6S11327   3.210   5.737  10.202 -0.1775 -0.0233  0.3127
  110OSM    H6S11328   3.200   5.835  10.151 -1.5146  0.2395  1.0371
  110OSM    H6T11329   3.104   5.710  10.221 -0.5904  1.7349  0.6766
  110OSM    C7S11330   3.300   5.634  10.133  0.4564 -0.1024 -0.5899
  110OSM    H7S11331   3.305   5.530  10.170  1.3639 -1.1694 -3.3944
  110OSM    H7T11332   3.404   5.674  10.121 -0.5523  2.4253 -1.6667
  110OSM    C8S11333   3.257   5.611   9.991  0.8819 -0.7461  0.6619
  110OSM    H8S11334   3.262   5.704   9.929  0.2889 -0.9159  0.3442
  110OSM    H8T11335   3.152   5.575   9.997 -0.1132  2.2316  3.4875
  110OSM    C9S11336   3.342   5.504   9.927 -0.1452 -0.3064 -0.1878
  110OSM    H9S11337   3.326   5.418   9.996 -1.9847 -1.3141 -1.7601
  110OSM    H9T11338   3.451   5.524   9.932 -0.5285  2.0131 -0.0405
  110OSM   C10S11339   3.312   5.468   9.781 -0.2921 -0.3951  0.5217
  110OSM   H10S11340   3.209   5.429   9.765  0.3380 -1.4837 -1.1467
  110OSM   H10T11341   3.389   5.390   9.760  1.2939  0.4273  2.9033
  110OSM   C11S11342   3.334   5.587   9.689 -0.7002  0.2541  0.0923
  110OSM   H11S11343   3.431   5.636   9.714 -0.2280 -0.3469 -0.5252
  110OSM   H11T11344   3.255   5.663   9.704  1.9519  3.0687  0.6198
  110OSM   C12S11345   3.342   5.549   9.536  0.1348  0.4725  0.3431
  110OSM   H12S11346   3.260   5.481   9.503  0.9954 -1.0545  1.2129
  110OSM   H12T11347   3.443   5.503   9.525  1.0194  2.6137 -1.2387
  110OSM   C13S11348   3.348   5.683   9.464  0.0610 -0.1836 -0.4097
  110OSM   H13S11349   3.450   5.722   9.485 -0.1267 -0.1290  0.4465
  110OSM   H13T11350   3.280   5.753   9.517  0.8772 -0.1404  0.6234
  110OSM   C14S11351   3.317   5.662   9.316 -0.0761  0.5263 -0.2585
  110OSM   H14S11352   3.300   5.765   9.280  0.9095  1.6643  2.2831
  110OSM   H14T11353   3.227   5.601   9.292  1.8844 -2.8937  0.3482
  110OSM   C15S11354   3.438   5.615   9.237 -0.4555 -0.1311 -0.1461
  110OSM   H15S11355   3.478   5.520   9.278 -0.2105 -0.6344 -1.4795
  110OSM   H15T11356   3.515   5.694   9.251 -0.8683  0.6725 -2.1291
  110OSM   C16S11357   3.418   5.605   9.083 -0.0356  0.1632 -0.5693
  110OSM   H16S11358   3.512   5.590   9.026 -1.8764 -0.6566 -3.6151
  110OSM   H16T11359   3.378   5.704   9.053 -1.3850  0.3362  1.6024
  110OSM   C17S11360   3.323   5.495   9.038 -0.7523 -0.3684  0.2636
  110OSM   H17S11361   3.218   5.511   9.072 -1.4626 -3.1302 -0.3346
  110OSM   H17T11362   3.360   5.400   9.084  1.3280 -0.1253 -0.8089
  110OSM   C18S11363   3.324   5.481   8.887 -0.3181 -0.4747 -0.1314
  110OSM   H18S11364   3.419   5.431   8.857 -0.5563  0.0226 -1.8567
  110OSM   H18T11365   3.325   5.579   8.835 -0.2305 -0.7465 -0.6526
  110OSM   H18U11366   3.245   5.412   8.848  0.5366 -0.9124 -1.1345
  110OSM    C1F11367   3.581   6.198  10.431 -0.3801 -0.0108  0.5327
  110OSM     OF11368   3.537   6.309  10.441 -0.2865  0.7342 -0.5678
  110OSM    C2F11369   3.731   6.176  10.430  0.5005  0.3727  0.5467
  110OSM    H2F11370   3.746   6.089  10.363  3.2481  2.8605 -2.3875
  110OSM    H2G11371   3.764   6.163  10.535 -0.7216 -0.3261  0.8722
  110OSM    C3F11372   3.814   6.287  10.364 -0.0853 -0.0643  1.0924
  110OSM    H3F11373   3.919   6.258  10.384  0.7672  0.8326 -1.5598
  110OSM    H3G11374   3.785   6.388  10.401  0.3438  0.5049 -0.0547
  110OSM    C4F11375   3.800   6.306  10.207 -0.3947  0.4775  0.7773
  110OSM    H4F11376   3.697   6.345  10.191  0.0011  1.4211  0.4504
  110OSM    H4G11377   3.808   6.213  10.146 -0.0540  1.0058 -0.0022
  110OSM    C5F11378   3.902   6.416  10.153 -0.2697  0.3893 -0.1477
  110OSM    H5F11379   4.005   6.380  10.177 -0.4283 -0.2057 -0.3375
  110OSM    H5G11380   3.885   6.511  10.209  0.8413  0.2068  0.5249
  110OSM    C6F11381   3.903   6.421   9.997 -0.1442 -0.1680  0.0021
  110OSM    H6F11382   3.811   6.470   9.959  0.4989 -0.1279 -1.5991
  110OSM    H6G11383   3.896   6.318   9.957 -0.8436  0.4352 -1.5100
  110OSM    C7F11384   4.030   6.479   9.939 -0.4639  1.0352 -1.2484
  110OSM    H7F11385   4.115   6.426   9.985 -0.0194  2.3049 -0.5419
  110OSM    H7G11386   4.045   6.584   9.974 -0.8632  0.4585  0.8242
  110OSM    C8F11387   4.026   6.452   9.792  0.0013 -0.1259  0.8627
  110OSM    H8F11388   3.922   6.459   9.755 -0.2460 -0.9629  1.3688
  110OSM    H8G11389   4.056   6.346   9.776 -1.2629 -0.7229  2.1889
  110OSM    C9F11390   4.123   6.552   9.732 -0.0357  0.4798 -0.5965
  110OSM    H9F11391   4.120   6.653   9.775 -2.9167  0.2154 -0.0001
  110OSM   C10F11392   4.205   6.530   9.629 -0.8704  0.0975 -0.5921
  110OSM   H10F11393   4.289   6.599   9.609  0.9893 -1.9097 -0.0100
  110OSM   C11F11394   4.224   6.401   9.550 -0.5291 -0.2892  0.2750
  110OSM   H11F11395   4.210   6.310   9.611 -2.1963  0.2431  0.7458
  110OSM   H11G11396   4.329   6.387   9.518 -0.1363 -0.3442  1.5425
  110OSM   C12F11397   4.142   6.395   9.421  0.1131  0.3376 -0.2027
  110OSM   H12F11398   4.034   6.400   9.450 -0.4947  1.1650 -2.4257
  110OSM   H12G11399   4.167   6.300   9.370  0.9108  1.3159 -1.7197
  110OSM   C13F11400   4.174   6.507   9.326 -0.1591  0.1359 -1.0318
  110OSM   H13F11401   4.283   6.489   9.315 -0.2466 -1.5718  0.5277
  110OSM   H13G11402   4.167   6.609   9.369 -0.9089 -0.4941  0.3910
  110OSM   C14F11403   4.098   6.515   9.198  0.1161  0.0910 -0.7812
  110OSM   H14F11404   3.996   6.557   9.212  1.0945  4.3857 -4.1420
  110OSM   H14G11405   4.079   6.413   9.159 -2.0683  0.5057 -0.9022
  110OSM   C15F11406   4.172   6.601   9.099  0.3111  0.2217 -0.3918
  110OSM   H15F11407   4.270   6.554   9.074  0.3148  0.5147 -0.9456
  110OSM   H15G11408   4.188   6.703   9.139  2.2291  0.8267 -2.5135
  110OSM   C16F11409   4.111   6.602   8.957 -0.2912  0.0481  0.3112
  110OSM   H16F11410   4.017   6.662   8.956 -0.5591 -0.2266 -3.1672
  110OSM   H16G11411   4.101   6.495   8.927  0.5800  0.0847 -0.1375
  110OSM   C17F11412   4.199   6.657   8.852  0.5622  0.2860  0.4213
  110OSM   H17F11413   4.296   6.603   8.849  0.2876 -0.3517  1.9413
  110OSM   H17G11414   4.223   6.764   8.870 -0.2752  0.5339  0.1193
  110OSM   C18F11415   4.131   6.644   8.721 -0.0061  0.2310 -0.1267
  110OSM   H18F11416   4.129   6.538   8.689 -4.7885  0.3101 -0.7566
  110OSM   H18G11417   4.184   6.713   8.652 -1.7400  0.7410 -0.9913
  110OSM   H18H11418   4.023   6.669   8.726 -0.0210  0.3290 -0.9185
  111OSM      N11419   1.978   4.619  11.092  0.2369  0.1317 -0.1152
  111OSM    C1511420   2.012   4.768  11.091  0.5972  0.2315  0.0536
  111OSM   H15A11421   2.033   4.789  11.194 -1.6361  0.2624  0.5622
  111OSM   H15B11422   1.929   4.825  11.053  1.0644  0.1843 -1.0881
  111OSM   H15C11423   2.100   4.788  11.032  0.7699 -4.2391 -1.6517
  111OSM    C1411424   1.963   4.577  10.945 -0.4304 -0.2103  0.4351
  111OSM   H14A11425   1.885   4.635  10.898 -0.0067 -0.8226 -1.0865
  111OSM   H14B11426   1.920   4.478  10.933 -3.7004  1.2200 -0.7123
  111OSM   H14C11427   2.054   4.578  10.887 -0.1491  0.2464  0.8833
  111OSM    C1311428   2.095   4.542  11.151  0.1555  0.0289  0.1692
  111OSM   H13A11429   2.071   4.437  11.157  1.0051 -0.1334  0.9780
  111OSM   H13B11430   2.106   4.564  11.256  0.4575 -0.0008  0.1438
  111OSM   H13C11431   2.193   4.560  11.112  0.2536 -2.2045 -0.7321
  111OSM    C1211432   1.850   4.601  11.177 -0.2673  0.7208  0.0370
  111OSM   H12A11433   1.876   4.620  11.280  1.1594 -0.7687 -0.0035
  111OSM   H12B11434   1.820   4.498  11.170 -0.1491  0.7178 -0.4400
  111OSM    C1111435   1.722   4.675  11.141  0.2112 -0.2380 -0.7135
  111OSM   H11A11436   1.723   4.783  11.166 -2.1571 -0.8214  2.5302
  111OSM   H11B11437   1.650   4.637  11.217  1.5652  1.3787  1.5027
  111OSM      P11438   1.586   4.767  10.937 -0.0205 -0.0167 -0.2550
  111OSM    O1311439   1.494   4.706  10.840 -0.0708 -0.3812 -0.2316
  111OSM    O1411440   1.515   4.850  11.043 -0.0619  0.1892 -0.1994
  111OSM    O1111441   1.699   4.855  10.861  1.0387 -0.5244  0.3358
  111OSM    O1211442   1.676   4.646  11.004 -0.3021  0.1054  0.8978
  111OSM    C1S11443   1.781   4.795  10.763  0.1642 -0.2258  0.1200
  111OSM    H1S11444   1.763   4.687  10.747 -0.3380 -0.0283 -0.7533
  111OSM    H1T11445   1.888   4.794  10.791  0.2942 -0.8168 -0.3715
  111OSM     NF11446   1.810   4.774  10.515  0.2128 -0.3904 -0.1160
  111OSM    HNF11447   1.894   4.805  10.469  1.4371 -1.3493  1.3686
  111OSM    C2S11448   1.756   4.860  10.619  0.7594  0.1248 -0.0805
  111OSM    H2S11449   1.649   4.871  10.591 -0.5431 -0.8007  3.8720
  111OSM    C3S11450   1.808   5.009  10.625 -0.1787  0.9967  0.2265
  111OSM    H3S11451   1.914   5.007  10.657 -0.6167  1.3100  1.7991
  111OSM     O311452   1.758   5.079  10.731  0.1008 -0.3036 -0.4237
  111OSM    HO311453   1.724   5.017  10.796 -0.0827  1.2985  1.0848
  111OSM    C4S11454   1.799   5.074  10.490  0.0842  0.1472  0.3317
  111OSM    H4S11455   1.889   5.054  10.430  0.0022 -4.1188  1.2863
  111OSM    C5S11456   1.688   5.131  10.437  0.3219 -0.2586 -0.6832
  111OSM    H5S11457   1.590   5.121  10.485 -0.1592  0.2136 -1.5330
  111OSM    C6S11458   1.672   5.188  10.293  0.3352 -0.8090 -0.6870
  111OSM    H6S11459   1.661   5.298  10.289  0.7448 -0.7608 -0.5673
  111OSM    H6T11460   1.579   5.146  10.250 -0.3504  0.6884 -0.7374
  111OSM    C7S11461   1.787   5.146  10.204 -0.6101  0.2578  0.4690
  111OSM    H7S11462   1.791   5.035  10.201  0.3408  0.2770  0.5332
  111OSM    H7T11463   1.881   5.188  10.245 -0.4084 -0.8530  1.2086
  111OSM    C8S11464   1.754   5.170  10.063  0.3258  0.3190 -0.3647
  111OSM    H8S11465   1.761   5.280  10.055 -1.0744  0.3818 -0.9609
  111OSM    H8T11466   1.652   5.132  10.042  0.1085  0.1655  0.9313
  111OSM    C9S11467   1.851   5.106   9.963 -0.5426 -0.2562  0.7403
  111OSM    H9S11468   1.831   4.997   9.968  0.0761 -0.4887 -1.1334
  111OSM    H9T11469   1.955   5.123   9.999 -0.7719 -0.8333  1.7096
  111OSM   C10S11470   1.848   5.157   9.818  0.4536 -0.1403  0.6260
  111OSM   H10S11471   1.877   5.264   9.816  1.4569 -0.3752  1.6721
  111OSM   H10T11472   1.744   5.150   9.780  1.2320  0.6615 -1.8299
  111OSM   C11S11473   1.921   5.078   9.708  0.0832 -0.8589  0.4442
  111OSM   H11S11474   1.913   4.968   9.717 -0.7955 -0.9425 -0.9531
  111OSM   H11T11475   2.030   5.097   9.719 -0.1877  0.3000  1.4898
  111OSM   C12S11476   1.882   5.126   9.567  0.2801 -0.0077  0.2527
  111OSM   H12S11477   1.894   5.236   9.560  1.3732 -0.0150  1.4211
  111OSM   H12T11478   1.774   5.106   9.557 -0.0866  2.1444 -0.6510
  111OSM   C13S11479   1.955   5.047   9.456  0.5730 -0.1975 -0.1725
  111OSM   H13S11480   1.926   4.942   9.478  1.3595 -0.6099 -1.0527
  111OSM   H13T11481   2.065   5.051   9.464  0.5006  0.4058  0.5872
  111OSM   C14S11482   1.894   5.075   9.320  0.3542 -0.2494 -0.5646
  111OSM   H14S11483   1.893   5.185   9.302  0.1932 -0.2373 -0.4800
  111OSM   H14T11484   1.786   5.048   9.320  0.5736 -1.1646 -1.2328
  111OSM   C15S11485   1.963   5.000   9.207 -0.0253 -0.3451 -0.0583
  111OSM   H15S11486   2.056   4.949   9.240  0.7518 -0.0576 -1.6920
  111OSM   H15T11487   1.999   5.067   9.126  2.2841  0.0424  1.1975
  111OSM   C16S11488   1.884   4.891   9.141  0.3413  0.0340  0.2364
  111OSM   H16S11489   1.848   4.813   9.212  1.4447 -0.8616 -0.1735
  111OSM   H16T11490   1.949   4.843   9.066 -0.5626 -2.1060  0.7587
  111OSM   C17S11491   1.770   4.957   9.056 -0.1702 -0.1724  0.0518
  111OSM   H17S11492   1.807   5.037   8.987 -1.0823  0.7013  0.5430
  111OSM   H17T11493   1.699   5.005   9.126  1.2177  0.6337  0.9456
  111OSM   C18S11494   1.696   4.849   8.973  0.1925  0.0206 -0.0063
  111OSM   H18S11495   1.660   4.773   9.046 -1.9595  0.8093 -0.1752
  111OSM   H18T11496   1.763   4.802   8.898  0.3437 -0.3557  0.3603
  111OSM   H18U11497   1.607   4.885   8.917  0.3438 -1.9316 -1.6594
  111OSM    C1F11498   1.762   4.656  10.481 -0.1218 -0.3083 -0.9103
  111OSM     OF11499   1.660   4.610  10.530  0.1997 -0.3103 -0.2907
  111OSM    C2F11500   1.843   4.583  10.380  0.1181 -0.5818  0.4442
  111OSM    H2F11501   1.782   4.508  10.326  1.2345 -1.2358  0.0770
  111OSM    H2G11502   1.925   4.530  10.432  0.5032  0.2849  0.7537
  111OSM    C3F11503   1.919   4.671  10.279 -0.1728  0.1019 -0.1602
  111OSM    H3F11504   1.983   4.613  10.210  0.7907  0.9350  0.0142
  111OSM    H3G11505   1.988   4.743  10.327 -1.6443  2.3641 -1.2458
  111OSM    C4F11506   1.831   4.753  10.182  0.1386 -0.1799 -0.2243
  111OSM    H4F11507   1.896   4.831  10.138 -1.0812  0.4598 -0.9608
  111OSM    H4G11508   1.753   4.800  10.247  1.9038 -0.5263  2.2863
  111OSM    C5F11509   1.777   4.669  10.063 -0.1333 -0.7502  0.9542
  111OSM    H5F11510   1.713   4.737  10.003  1.9466 -1.5515 -2.4034
  111OSM    H5G11511   1.719   4.576  10.085  1.9779 -2.7045 -1.2032
  111OSM    C6F11512   1.890   4.613   9.976 -1.2543 -0.6825  0.3181
  111OSM    H6F11513   1.959   4.544  10.029 -1.8837 -0.8449  0.9257
  111OSM    H6G11514   1.962   4.695   9.952 -0.1919 -1.8646 -0.7163
  111OSM    C7F11515   1.857   4.570   9.830 -0.5001  0.5342  0.0691
  111OSM    H7F11516   1.949   4.539   9.776 -1.2791  1.3577 -1.7940
  111OSM    H7G11517   1.811   4.652   9.771  0.6305 -0.3111 -2.0743
  111OSM    C8F11518   1.755   4.456   9.820 -0.2912 -0.2004 -0.0995
  111OSM    H8F11519   1.746   4.435   9.711 -1.7946  2.3153 -0.5354
  111OSM    H8G11520   1.657   4.508   9.826 -0.3321 -0.2410 -0.4123
  111OSM    C9F11521   1.765   4.337   9.917 -0.6055  0.2736 -0.3700
  111OSM    H9F11522   1.758   4.365  10.023 -0.5669 -0.3003 -0.2143
  111OSM   C10F11523   1.768   4.208   9.873  0.3236 -0.3074  0.1168
  111OSM   H10F11524   1.765   4.139   9.958  0.4073  3.9614  4.0059
  111OSM   C11F11525   1.764   4.166   9.729 -0.1726 -0.4083  0.6365
  111OSM   H11F11526   1.704   4.229   9.661 -0.7744 -1.5641  0.0634
  111OSM   H11G11527   1.714   4.066   9.724  1.2840 -1.1138 -0.7093
  111OSM   C12F11528   1.903   4.145   9.663  0.5181  0.5098  0.4876
  111OSM   H12F11529   1.971   4.090   9.731  1.2614  1.1234  0.2638
  111OSM   H12G11530   1.963   4.239   9.661 -1.0632  1.6064  1.6249
  111OSM   C13F11531   1.912   4.083   9.518 -0.0200 -0.0019 -0.9550
  111OSM   H13F11532   1.831   4.125   9.455 -0.7410 -1.1339 -0.8232
  111OSM   H13G11533   1.888   3.974   9.513  0.7127 -0.3097  1.0491
  111OSM   C14F11534   2.043   4.124   9.453 -0.0756 -0.4075  0.6232
  111OSM   H14F11535   2.128   4.081   9.511  1.1290  0.9437 -0.0690
  111OSM   H14G11536   2.040   4.234   9.438  0.7421 -0.3640  0.7483
  111OSM   C15F11537   2.081   4.053   9.317 -0.1658 -0.4963 -0.2508
  111OSM   H15F11538   2.079   3.942   9.331  1.2031 -0.4266  0.7661
  111OSM   H15G11539   2.186   4.084   9.297 -0.3371  0.6003  0.4604
  111OSM   C16F11540   1.997   4.100   9.200 -0.6582 -0.3698 -0.7898
  111OSM   H16F11541   1.969   4.207   9.214  0.2128 -0.2002 -0.2968
  111OSM   H16G11542   1.901   4.044   9.209 -0.5596 -0.7218 -1.8682
  111OSM   C17F11543   2.066   4.078   9.061  0.3902  0.6280  0.3722
  111OSM   H17F11544   2.162   4.134   9.057 -0.7360  2.6019 -1.7820
  111OSM   H17G11545   2.003   4.123   8.981  1.0787 -0.3270 -0.7409
  111OSM   C18F11546   2.082   3.930   9.021 -0.3238  0.2599 -0.1304
  111OSM   H18F11547   2.163   3.904   9.092  0.1797  2.2735  0.0950
  111OSM   H18G11548   2.121   3.913   8.918  1.0392 -3.0973  0.8233
  111OSM   H18H11549   1.993   3.864   9.024 -0.2586  0.2250  1.4848
  112OSM      N11550   6.803   3.036  10.978 -0.1347 -0.0090  0.4435
  112OSM    C1511551   6.914   2.983  11.069  0.7450 -0.1200  0.4673
  112OSM   H15A11552   7.013   3.009  11.034  0.9027  1.5889  2.0474
  112OSM   H15B11553   6.915   2.875  11.079  1.3118 -0.1775 -0.1141
  112OSM   H15C11554   6.910   3.017  11.171 -1.3975  1.1018  0.0344
  112OSM    C1411555   6.670   2.991  11.034  0.0001  0.0035  0.1634
  112OSM   H14A11556   6.670   2.884  11.048 -0.6811  0.1197  1.0986
  112OSM   H14B11557   6.593   3.016  10.963 -1.3127  1.4492  2.0195
  112OSM   H14C11558   6.654   3.042  11.128  0.6067  0.9649 -0.2377
  112OSM    C1311559   6.811   3.184  10.971 -0.4190 -0.8737 -0.4991
  112OSM   H13A11560   6.908   3.222  10.944 -0.3864 -1.5727 -1.4020
  112OSM   H13B11561   6.785   3.230  11.065  1.7272 -1.0765  0.2478
  112OSM   H13C11562   6.731   3.219  10.908  0.2961 -0.7189 -1.3330
  112OSM    C1211563   6.837   2.979  10.839  0.4593  0.4950  0.3832
  112OSM   H12A11564   6.841   2.872  10.856  0.6370  0.5608  0.7623
  112OSM   H12B11565   6.932   3.015  10.803  0.0724  0.2466 -0.9501
  112OSM    C1111566   6.739   3.006  10.726  0.2160  0.6238 -0.1921
  112OSM   H11A11567   6.782   2.946  10.643  0.7534  0.2438  0.3481
  112OSM   H11B11568   6.736   3.108  10.684  0.4272  1.3095  1.4006
  112OSM      P11569   6.535   2.832  10.702 -0.5102 -0.5689  0.0187
  112OSM    O1311570   6.613   2.713  10.737 -0.0395  0.5477 -0.7051
  112OSM    O1411571   6.388   2.829  10.728  0.2221  1.0974  0.1955
  112OSM    O1111572   6.549   2.868  10.551  0.0187 -0.3944  0.4143
  112OSM    O1211573   6.606   2.956  10.767 -0.3152 -0.7824  0.4599
  112OSM    C1S11574   6.592   2.752  10.465 -0.1184 -0.1033 -0.7954
  112OSM    H1S11575   6.520   2.668  10.470  0.4296 -0.6402 -1.5818
  112OSM    H1T11576   6.687   2.714  10.508 -0.9826  0.0585  1.3978
  112OSM     NF11577   6.637   2.673  10.240 -0.2350 -0.4389  0.6070
  112OSM    HNF11578   6.726   2.675  10.195  0.1829  0.4230  1.4518
  112OSM    C2S11579   6.609   2.795  10.320  0.6295 -0.7676  0.5116
  112OSM    H2S11580   6.515   2.844  10.288  0.9736 -0.2620  0.2632
  112OSM    C3S11581   6.715   2.914  10.301  0.0297  0.1477 -0.1295
  112OSM    H3S11582   6.815   2.868  10.315  0.8920  1.5240 -1.5064
  112OSM     O311583   6.711   3.013  10.402 -0.7022 -0.0295  0.7564
  112OSM    HO311584   6.655   2.988  10.476 -1.0867  1.7181  1.0983
  112OSM    C4S11585   6.694   2.976  10.167 -0.1406  0.9765 -1.0146
  112OSM    H4S11586   6.603   3.032  10.142 -0.0782  0.6749 -1.9511
  112OSM    C5S11587   6.789   2.970  10.068 -0.5456  0.0065 -0.3248
  112OSM    H5S11588   6.883   2.915  10.089 -0.7512 -0.1921  0.0795
  112OSM    C6S11589   6.797   3.020   9.925  0.3300  0.1318 -0.0852
  112OSM    H6S11590   6.806   2.938   9.849  0.9558  0.3206 -0.2278
  112OSM    H6T11591   6.881   3.093   9.924 -0.2123  0.7598 -0.7659
  112OSM    C7S11592   6.667   3.090   9.884 -0.0308 -0.3272  0.2803
  112OSM    H7S11593   6.656   3.170   9.959  2.2240 -0.9557  1.3794
  112OSM    H7T11594   6.586   3.014   9.891 -0.0187 -0.1953  2.4800
  112OSM    C8S11595   6.658   3.161   9.744 -0.1763 -0.5096  0.3414
  112OSM    H8S11596   6.723   3.249   9.729  0.2651 -1.0008 -0.6744
  112OSM    H8T11597   6.552   3.192   9.730  0.3666  2.0907  1.4774
  112OSM    C9S11598   6.699   3.057   9.638 -0.6597 -0.0208  0.1743
  112OSM    H9S11599   6.644   2.961   9.643 -0.9508  0.0350 -1.3595
  112OSM    H9T11600   6.807   3.035   9.629 -0.1936  2.6129 -2.1611
  112OSM   C10S11601   6.662   3.110   9.504 -0.5667 -1.1036 -0.3109
  112OSM   H10S11602   6.732   3.192   9.477 -2.2197  0.1188 -1.0134
  112OSM   H10T11603   6.559   3.151   9.498 -0.0502  0.0627 -2.3042
  112OSM   C11S11604   6.673   3.000   9.396 -0.3241 -0.2669  0.1460
  112OSM   H11S11605   6.576   2.949   9.411 -1.0457  1.2904  1.0557
  112OSM   H11T11606   6.748   2.919   9.405  0.2265  0.3391  1.2768
  112OSM   C12S11607   6.682   3.057   9.256 -0.5825  0.5911  0.2222
  112OSM   H12S11608   6.674   2.975   9.181 -0.7947 -0.2467  1.1360
  112OSM   H12T11609   6.780   3.106   9.234  0.5846 -1.8756 -0.4496
  112OSM   C13S11610   6.587   3.168   9.220 -0.0433  0.0371 -0.4728
  112OSM   H13S11611   6.610   3.249   9.292  0.6086 -0.3114 -0.2778
  112OSM   H13T11612   6.481   3.135   9.227 -0.4013  0.0902 -3.9507
  112OSM   C14S11613   6.618   3.221   9.078 -0.3107  0.4688 -0.3124
  112OSM   H14S11614   6.728   3.231   9.063 -0.2658 -1.2803 -1.3534
  112OSM   H14T11615   6.587   3.327   9.060  2.0796  1.2831  0.0331
  112OSM   C15S11616   6.565   3.143   8.953 -0.5776 -0.3536 -0.5668
  112OSM   H15S11617   6.456   3.128   8.962 -0.3928 -1.8334 -0.4638
  112OSM   H15T11618   6.608   3.040   8.955 -1.2249 -0.6435 -1.2234
  112OSM   C16S11619   6.585   3.209   8.815 -0.0263  0.1655  0.1672
  112OSM   H16S11620   6.692   3.204   8.789  0.3482 -1.2434  1.7858
  112OSM   H16T11621   6.557   3.315   8.837  4.1160  0.8831  3.0985
  112OSM   C17S11622   6.494   3.149   8.711  0.2264 -0.4571  0.9943
  112OSM   H17S11623   6.498   3.221   8.626  0.7380  0.1099  1.4919
  112OSM   H17T11624   6.391   3.157   8.751  0.0359 -2.6675  1.0740
  112OSM   C18S11625   6.526   3.005   8.664  0.2445 -0.2184 -0.3277
  112OSM   H18S11626   6.621   3.009   8.606 -0.5776  1.3116 -1.6433
  112OSM   H18T11627   6.440   2.978   8.600  0.7028 -0.5056 -0.8254
  112OSM   H18U11628   6.531   2.930   8.746 -2.9974  0.2046  0.3812
  112OSM    C1F11629   6.563   2.565  10.224  0.1441  0.2248 -0.3302
  112OSM     OF11630   6.450   2.559  10.276 -0.5140  0.2067 -0.1575
  112OSM    C2F11631   6.625   2.452  10.145 -0.5210  0.1909 -0.5485
  112OSM    H2F11632   6.662   2.370  10.210 -1.1148  0.6592  0.3997
  112OSM    H2G11633   6.714   2.495  10.096  1.2506 -2.4464  0.1291
  112OSM    C3F11634   6.525   2.388  10.051 -0.7574  0.2743  0.4841
  112OSM    H3F11635   6.474   2.473  10.000 -0.1600 -0.2648 -1.0779
  112OSM    H3G11636   6.439   2.336  10.099 -0.8216 -0.7458 -0.6817
  112OSM    C4F11637   6.585   2.286   9.948 -1.1390 -0.3680  0.1563
  112OSM    H4F11638   6.512   2.244   9.875 -1.2767  0.0914  0.0269
  112OSM    H4G11639   6.630   2.202  10.005 -1.1405  0.3755  1.2849
  112OSM    C5F11640   6.715   2.347   9.874 -0.3779  0.2764 -0.2527
  112OSM    H5F11641   6.751   2.259   9.816 -0.7327  0.2913 -0.5004
  112OSM    H5G11642   6.800   2.369   9.941 -1.5105  1.5477  0.8084
  112OSM    C6F11643   6.670   2.456   9.777 -0.4903  0.7991 -0.1077
  112OSM    H6F11644   6.639   2.533   9.851 -0.6801 -0.6041  1.3297
  112OSM    H6G11645   6.575   2.424   9.728 -0.1195  0.8486 -0.8638
  112OSM    C7F11646   6.785   2.513   9.692 -0.5363  0.0991 -0.6614
  112OSM    H7F11647   6.826   2.432   9.628  1.8115  0.9756 -0.3856
  112OSM    H7G11648   6.872   2.535   9.758 -0.1098  1.2687 -1.5849
  112OSM    C8F11649   6.749   2.633   9.607 -0.2461 -0.5883  0.0423
  112OSM    H8F11650   6.758   2.720   9.676 -1.7536  0.6465 -1.2366
  112OSM    H8G11651   6.644   2.635   9.570 -1.4316  1.4455  3.1206
  112OSM    C9F11652   6.850   2.655   9.497  0.6649  0.0438 -0.4475
  112OSM    H9F11653   6.954   2.684   9.519  1.5220 -1.9195 -1.5665
  112OSM   C10F11654   6.823   2.630   9.366  0.0479 -0.4712 -0.4207
  112OSM   H10F11655   6.907   2.645   9.297  1.2148 -1.1744  0.7982
  112OSM   C11F11656   6.690   2.595   9.310  0.1454  0.1156  0.7009
  112OSM   H11F11657   6.616   2.659   9.362  0.8384  4.1880 -2.7652
  112OSM   H11G11658   6.665   2.492   9.344 -0.1853  0.0309  0.2083
  112OSM   C12F11659   6.679   2.621   9.157 -0.4992  0.9045  0.8625
  112OSM   H12F11660   6.700   2.729   9.143 -0.7696  0.5705 -2.9592
  112OSM   H12G11661   6.573   2.612   9.125  0.0009 -1.5784 -0.2814
  112OSM   C13F11662   6.773   2.526   9.079 -0.3906  0.1757  0.7399
  112OSM   H13F11663   6.768   2.422   9.118  1.5560 -0.1428  0.2435
  112OSM   H13G11664   6.877   2.562   9.094 -1.1256  1.6145  2.9705
  112OSM   C14F11665   6.741   2.518   8.933 -0.3513 -0.1925 -0.0909
  112OSM   H14F11666   6.640   2.473   8.925 -0.1191 -0.6386 -0.5330
  112OSM   H14G11667   6.815   2.448   8.888 -0.3213  0.4698 -1.1188
  112OSM   C15F11668   6.740   2.655   8.861 -0.0999  0.5459  0.6400
  112OSM   H15F11669   6.838   2.706   8.846 -0.6917  1.1155 -1.7750
  112OSM   H15G11670   6.670   2.724   8.913  0.7281  1.9663 -0.0521
  112OSM   C16F11671   6.687   2.639   8.717 -0.4992  0.0810 -0.4198
  112OSM   H16F11672   6.752   2.575   8.654 -0.3136 -1.0424  0.8719
  112OSM   H16G11673   6.682   2.740   8.672 -1.0448  0.3064  0.1258
  112OSM   C17F11674   6.545   2.574   8.701 -0.1614 -0.8559 -0.2135
  112OSM   H17F11675   6.483   2.626   8.777  1.7679 -0.7970  1.4446
  112OSM   H17G11676   6.540   2.467   8.731  0.1567 -0.6104  0.7870
  112OSM   C18F11677   6.496   2.582   8.559  0.5687  0.2713  0.0490
  112OSM   H18F11678   6.575   2.543   8.491 -0.1777  0.3549 -0.8951
  112OSM   H18G11679   6.477   2.684   8.519  0.2281  0.2209  0.0725
  112OSM   H18H11680   6.402   2.522   8.555  0.2116  0.8456 -0.3906
  113OSM      N11681   2.834   2.992  10.549 -0.4869 -1.0946  0.1982
  113OSM    C1511682   2.952   3.091  10.570  0.8076  0.7041 -0.2577
  113OSM   H15A11683   3.007   3.057  10.657 -0.5558  0.5596  0.5726
  113OSM   H15B11684   2.919   3.193  10.581  0.0623  0.4061  0.3457
  113OSM   H15C11685   3.020   3.094  10.486 -0.1346 -0.1095 -1.0685
  113OSM    C1411686   2.752   3.003  10.668 -0.4890 -1.6342  0.2607
  113OSM   H14A11687   2.706   3.100  10.673 -1.7136 -2.0395 -2.0244
  113OSM   H14B11688   2.810   2.974  10.755  1.8681  0.0263 -0.6890
  113OSM   H14C11689   2.666   2.937  10.669 -0.8897 -1.1474  1.9898
  113OSM    C1311690   2.766   3.038  10.428 -0.4303 -0.0230  0.1812
  113OSM   H13A11691   2.666   2.996  10.424 -1.3845  2.1160  0.1569
  113OSM   H13B11692   2.816   3.005  10.338 -0.7400 -0.4028  0.1448
  113OSM   H13C11693   2.747   3.144  10.429  1.0271  0.2649  0.9876
  113OSM    C1211694   2.892   2.851  10.542 -0.3822  0.9245  0.1167
  113OSM   H12A11695   2.975   2.852  10.473  0.0498  1.1891  0.6290
  113OSM   H12B11696   2.814   2.778  10.526 -0.0615  0.4913  0.4672
  113OSM    C1111697   2.964   2.798  10.677  0.5483 -0.4480  0.5871
  113OSM   H11A11698   3.029   2.884  10.703 -2.1655  1.5585  1.2848
  113OSM   H11B11699   3.026   2.710  10.652  0.1313 -0.7317  0.5398
  113OSM      P11700   2.805   2.640  10.817  0.2760  0.3706 -0.0430
  113OSM    O1311701   2.912   2.545  10.866 -0.7192  0.0297  0.8048
  113OSM    O1411702   2.696   2.670  10.911  0.1630 -0.2434  0.1057
  113OSM    O1111703   2.746   2.587  10.679  0.0787  0.5708 -0.1794
  113OSM    O1211704   2.873   2.783  10.789  0.0894 -0.2639  0.5028
  113OSM    C1S11705   2.621   2.633  10.631  0.6583  0.2933  0.6050
  113OSM    H1S11706   2.622   2.743  10.613 -1.2629 -0.0035 -2.1064
  113OSM    H1T11707   2.535   2.614  10.699 -1.3706  2.6024 -1.0899
  113OSM     NF11708   2.478   2.621  10.443  0.5210 -0.4026 -0.3655
  113OSM    HNF11709   2.390   2.573  10.439  0.2049  0.2370 -1.5172
  113OSM    C2S11710   2.587   2.553  10.504  0.2377  0.3720 -0.2645
  113OSM    H2S11711   2.665   2.556  10.426  1.6580  1.6395  1.1462
  113OSM    C3S11712   2.555   2.404  10.542 -0.2102 -0.0423 -0.1480
  113OSM    H3S11713   2.458   2.388  10.594  1.7185 -1.4889  3.3686
  113OSM     O311714   2.647   2.342  10.633 -0.2299 -0.0095  0.1275
  113OSM    HO311715   2.700   2.417  10.662  0.2176 -0.8782  1.6354
  113OSM    C4S11716   2.549   2.319  10.410 -0.2815 -0.3726 -0.0692
  113OSM    H4S11717   2.448   2.299  10.371 -1.3368  2.9541  0.6407
  113OSM    C5S11718   2.663   2.275  10.355  0.0545 -0.5711 -0.1375
  113OSM    H5S11719   2.757   2.294  10.409 -0.9544 -0.1610  1.5149
  113OSM    C6S11720   2.676   2.189  10.232 -0.4542 -0.0624  0.2206
  113OSM    H6S11721   2.673   2.082  10.261  0.6405 -0.2453 -0.3174
  113OSM    H6T11722   2.777   2.205  10.189 -0.9918  0.6019 -0.8603
  113OSM    C7S11723   2.566   2.208  10.127  0.7264 -0.3909 -0.5501
  113OSM    H7S11724   2.546   2.317  10.118 -1.8027 -0.6819  0.7516
  113OSM    H7T11725   2.475   2.159  10.167  0.3274 -0.6107 -1.6943
  113OSM    C8S11726   2.609   2.146  10.000  0.0542 -0.6939  0.2974
  113OSM    H8S11727   2.627   2.037  10.005 -0.3406 -0.8488 -1.2058
  113OSM    H8T11728   2.711   2.184   9.976  0.6347 -2.2184  0.2509
  113OSM    C9S11729   2.515   2.179   9.884  0.4841  0.1534 -0.5739
  113OSM    H9S11730   2.518   2.280   9.839  0.5258  0.4034 -0.0153
  113OSM    H9T11731   2.410   2.152   9.911  0.9842 -1.1890  0.1314
  113OSM   C10S11732   2.556   2.085   9.764 -0.0288  0.2145 -0.8737
  113OSM   H10S11733   2.572   1.979   9.794  1.4004  0.2586 -1.4119
  113OSM   H10T11734   2.658   2.118   9.736  1.0471 -0.4973  1.9021
  113OSM   C11S11735   2.461   2.100   9.643  0.1015  0.2701 -0.5373
  113OSM   H11S11736   2.416   2.201   9.656 -1.9173 -0.7387  0.8647
  113OSM   H11T11737   2.373   2.032   9.649 -0.0474  0.5748  1.6468
  113OSM   C12S11738   2.536   2.094   9.504 -0.4144  0.3836 -0.1239
  113OSM   H12S11739   2.577   1.991   9.501 -0.2838  0.3817  1.1545
  113OSM   H12T11740   2.622   2.163   9.499  0.2134 -0.4113 -0.6123
  113OSM   C13S11741   2.453   2.118   9.379  0.2387 -0.1485  0.0579
  113OSM   H13S11742   2.397   2.214   9.375 -1.1911 -0.9655 -0.4367
  113OSM   H13T11743   2.375   2.039   9.371 -2.9784  2.9197 -1.7530
  113OSM   C14S11744   2.554   2.113   9.266 -0.4902 -0.5470 -0.3436
  113OSM   H14S11745   2.632   2.042   9.300 -0.1821  0.4140  1.0321
  113OSM   H14T11746   2.613   2.206   9.255 -0.5284 -0.5757 -0.7988
  113OSM   C15S11747   2.491   2.066   9.140 -0.7364 -0.1382 -0.6526
  113OSM   H15S11748   2.401   2.128   9.119 -2.2924 -1.8225  0.7006
  113OSM   H15T11749   2.447   1.965   9.157 -0.7022 -0.2866 -1.3898
  113OSM   C16S11750   2.583   2.057   9.015 -0.7449 -0.9834  0.8606
  113OSM   H16S11751   2.676   2.008   9.053 -1.0994 -0.9534  1.7984
  113OSM   H16T11752   2.593   2.162   8.982 -3.9392 -0.7895  0.1481
  113OSM   C17S11753   2.521   1.967   8.908  0.5827  0.6560  1.2195
  113OSM   H17S11754   2.569   1.998   8.812 -2.6232 -0.7416 -1.0129
  113OSM   H17T11755   2.417   1.998   8.886  1.3781  2.4268 -0.3799
  113OSM   C18S11756   2.558   1.815   8.912  0.7702  0.0281 -0.6885
  113OSM   H18S11757   2.526   1.757   9.002  2.0538 -0.1913 -0.3533
  113OSM   H18T11758   2.666   1.789   8.902  1.3131  1.8258 -0.0515
  113OSM   H18U11759   2.505   1.766   8.828 -0.0970  0.6961 -0.5458
  113OSM    C1F11760   2.477   2.731  10.376  0.0299 -1.0457 -0.4697
  113OSM     OF11761   2.580   2.781  10.336 -0.0043  0.6788  0.1393
  113OSM    C2F11762   2.340   2.796  10.363 -0.5611  0.1325  0.2410
  113OSM    H2F11763   2.352   2.899  10.403  0.2120 -0.6397  2.1046
  113OSM    H2G11764   2.273   2.741  10.432 -0.2272  0.6507  0.9898
  113OSM    C3F11765   2.303   2.787  10.213  0.7440  0.1774  0.0551
  113OSM    H3F11766   2.299   2.680  10.180  1.5797  0.1003  0.1743
  113OSM    H3G11767   2.377   2.839  10.148  2.4914 -0.8487  1.1445
  113OSM    C4F11768   2.169   2.862  10.188 -0.4380 -0.0197 -0.0752
  113OSM    H4F11769   2.183   2.971  10.204  0.3978 -0.1844  0.3544
  113OSM    H4G11770   2.100   2.825  10.267  2.0713 -1.0872  1.7586
  113OSM    C5F11771   2.103   2.839  10.054 -0.0413 -0.1119  0.0126
  113OSM    H5F11772   2.120   2.734  10.024 -2.9144 -0.6375  0.0110
  113OSM    H5G11773   2.140   2.915   9.981  0.1681  0.1505  0.3833
  113OSM    C6F11774   1.960   2.871  10.044 -0.4025 -0.5134 -0.5640
  113OSM    H6F11775   1.953   2.977  10.079  0.4256 -1.0366  1.3221
  113OSM    H6G11776   1.901   2.806  10.111 -0.3807  0.7033  0.6867
  113OSM    C7F11777   1.909   2.857   9.903  0.0976  0.4231 -0.1162
  113OSM    H7F11778   1.944   2.758   9.867  0.7255 -0.2127  2.1010
  113OSM    H7G11779   1.955   2.943   9.850 -1.8805  2.4417  1.2330
  113OSM    C8F11780   1.755   2.874   9.890  0.0672 -0.0986  0.0364
  113OSM    H8F11781   1.722   2.883   9.785  0.9946 -3.5374 -0.6786
  113OSM    H8G11782   1.724   2.971   9.934  1.1716  0.6135 -0.7049
  113OSM    C9F11783   1.681   2.752   9.940  0.4401 -0.2809  0.2461
  113OSM    H9F11784   1.633   2.754  10.040 -1.6338 -0.2616 -0.6849
  113OSM   C10F11785   1.655   2.644   9.863  0.5646 -0.4633  0.1349
  113OSM   H10F11786   1.590   2.565   9.905 -2.1543  0.8756 -1.2644
  113OSM   C11F11787   1.699   2.633   9.720 -1.0699  0.1841 -0.3205
  113OSM   H11F11788   1.745   2.532   9.722  1.5123  1.3066  0.3266
  113OSM   H11G11789   1.783   2.702   9.699 -0.6724 -0.2528 -0.1990
  113OSM   C12F11790   1.588   2.655   9.618 -0.6149  0.0947  0.3528
  113OSM   H12F11791   1.545   2.755   9.638  0.9264  0.3843  2.6124
  113OSM   H12G11792   1.507   2.582   9.640 -0.1032 -0.6719 -0.2660
  113OSM   C13F11793   1.625   2.648   9.474 -0.1056 -0.3243 -0.3764
  113OSM   H13F11794   1.673   2.550   9.452 -2.0595 -1.4439  0.1131
  113OSM   H13G11795   1.702   2.722   9.444 -0.9015  1.0197  0.7328
  113OSM   C14F11796   1.501   2.666   9.381 -0.7942  0.3295 -0.1762
  113OSM   H14F11797   1.476   2.767   9.419  0.7145  0.7393 -0.2218
  113OSM   H14G11798   1.421   2.592   9.403 -2.0592  1.0396 -2.1977
  113OSM   C15F11799   1.534   2.662   9.232  0.1043  0.0717 -0.2390
  113OSM   H15F11800   1.611   2.584   9.215  1.3485  1.1075  0.4431
  113OSM   H15G11801   1.562   2.765   9.203 -2.8148  1.3617  1.1631
  113OSM   C16F11802   1.412   2.613   9.149  0.1584 -0.3707 -0.0637
  113OSM   H16F11803   1.329   2.685   9.160 -0.9390 -1.5403 -0.4089
  113OSM   H16G11804   1.386   2.517   9.197  2.1389 -0.8855  0.0925
  113OSM   C17F11805   1.450   2.586   9.005  0.0579 -0.2596  0.8776
  113OSM   H17F11806   1.371   2.528   8.951  1.8450 -1.6873 -0.3264
  113OSM   H17G11807   1.535   2.515   9.001  2.5207  2.3407  2.9598
  113OSM   C18F11808   1.461   2.717   8.931  0.1157  0.0323  0.1341
  113OSM   H18F11809   1.533   2.790   8.974 -1.3363  2.0271 -0.6824
  113OSM   H18G11810   1.362   2.767   8.928 -0.2750 -0.7685 -0.7559
  113OSM   H18H11811   1.491   2.699   8.826  2.0411  1.5536  0.3559
  114OSM      N11812   5.402   6.729  11.045 -0.2607 -0.3136 -0.4503
  114OSM    C1511813   5.417   6.765  10.903  0.2867 -0.7495 -0.7298
  114OSM   H15A11814   5.477   6.854  10.890  0.7231 -1.2914 -2.7990
  114OSM   H15B11815   5.322   6.792  10.859  0.5866 -0.4098 -1.1763
  114OSM   H15C11816   5.476   6.694  10.848  0.3554 -1.8065  0.6795
  114OSM    C1411817   5.290   6.805  11.102 -1.1756 -0.4023 -1.1034
  114OSM   H14A11818   5.271   6.774  11.204  0.7022  1.2969 -0.1790
  114OSM   H14B11819   5.194   6.781  11.058 -2.0777  0.9476  0.0149
  114OSM   H14C11820   5.314   6.909  11.117  0.3882 -0.9631  0.6691
  114OSM    C1311821   5.361   6.589  11.059  0.0188 -0.1311 -0.6007
  114OSM   H13A11822   5.417   6.511  11.008 -0.8728 -1.6751  0.6758
  114OSM   H13B11823   5.264   6.579  11.014 -0.9940  0.9742  1.2398
  114OSM   H13C11824   5.352   6.563  11.164  0.1412 -1.3447 -0.8692
  114OSM    C1211825   5.535   6.752  11.123 -0.4900 -0.4924  0.1413
  114OSM   H12A11826   5.609   6.692  11.072 -0.3278 -0.7749  0.6997
  114OSM   H12B11827   5.532   6.707  11.222  2.1408 -0.7341  0.1825
  114OSM    C1111828   5.584   6.898  11.139 -0.3880 -0.2701  0.2577
  114OSM   H11A11829   5.676   6.910  11.200 -0.2929  2.9105 -0.3134
  114OSM   H11B11830   5.506   6.956  11.194 -1.0033  0.6374 -1.4979
  114OSM      P11831   5.617   7.105  10.990 -0.1122 -0.0474  0.0570
  114OSM    O1311832   5.485   7.158  10.947 -0.4538 -0.1368 -0.4189
  114OSM    O1411833   5.682   7.176  11.101  0.0569  0.1083 -0.5210
  114OSM    O1111834   5.711   7.114  10.861 -0.5435 -0.3425 -0.3414
  114OSM    O1211835   5.616   6.947  11.009  1.0342  0.0158  0.2586
  114OSM    C1S11836   5.690   7.016  10.756 -0.1617 -0.4986  0.0812
  114OSM    H1S11837   5.625   6.928  10.779  1.2388 -1.8039 -0.7965
  114OSM    H1T11838   5.785   6.965  10.729 -0.4734 -1.7119  1.1489
  114OSM     NF11839   5.600   6.994  10.526  0.2653 -0.5216 -0.1934
  114OSM    HNF11840   5.664   6.968  10.455  0.1300  0.2601 -0.6115
  114OSM    C2S11841   5.636   7.087  10.629  0.4597 -0.1634 -0.7478
  114OSM    H2S11842   5.544   7.140  10.659 -0.3168 -0.3232 -2.6577
  114OSM    C3S11843   5.741   7.195  10.581 -0.1208 -0.1491 -0.1159
  114OSM    H3S11844   5.834   7.141  10.555 -0.0167  0.8458 -1.9863
  114OSM     O311845   5.786   7.283  10.686 -0.3634  0.1458 -0.3995
  114OSM    HO311846   5.792   7.226  10.763  1.2149 -0.8238 -1.1771
  114OSM    C4S11847   5.688   7.265  10.462  0.1394  0.9142 -0.5968
  114OSM    H4S11848   5.696   7.205  10.370  0.9573 -0.3803  0.2845
  114OSM    C5S11849   5.629   7.382  10.463 -0.7146 -0.2499 -0.0736
  114OSM    H5S11850   5.622   7.434  10.559  1.8688 -0.3329  0.2266
  114OSM    C6S11851   5.582   7.454  10.345  0.4576  0.1758 -0.2177
  114OSM    H6S11852   5.645   7.545  10.338  1.3165 -0.4449 -0.7738
  114OSM    H6T11853   5.478   7.490  10.357  0.6712 -0.1093  3.8747
  114OSM    C7S11854   5.599   7.396  10.206 -0.1608  0.2856 -0.2984
  114OSM    H7S11855   5.532   7.310  10.185  0.5067 -0.0944 -0.9318
  114OSM    H7T11856   5.699   7.353  10.183 -0.7827 -1.0905 -0.5499
  114OSM    C8S11857   5.562   7.505  10.111 -0.3468 -0.3800  0.3203
  114OSM    H8S11858   5.629   7.592  10.129  0.7266 -1.3676  1.3107
  114OSM    H8T11859   5.454   7.527  10.129 -0.8382 -1.3053 -1.3007
  114OSM    C9S11860   5.586   7.472   9.964  0.1531  0.3492 -0.5607
  114OSM    H9S11861   5.536   7.378   9.931 -0.9433  1.1578 -1.2638
  114OSM    H9T11862   5.696   7.452   9.959  0.1330  0.4498 -2.0575
  114OSM   C10S11863   5.545   7.584   9.865 -0.1375  0.5415 -0.5072
  114OSM   H10S11864   5.627   7.658   9.876  0.9718 -0.6313 -0.6801
  114OSM   H10T11865   5.446   7.633   9.882  1.3601  3.3876  0.6475
  114OSM   C11S11866   5.562   7.552   9.719  0.4440  0.9531 -0.2956
  114OSM   H11S11867   5.477   7.486   9.694  2.0906 -2.0034  1.3912
  114OSM   H11T11868   5.648   7.485   9.703 -1.7929 -1.9705 -0.8676
  114OSM   C12S11869   5.558   7.687   9.651  0.5175  0.1740  0.0058
  114OSM   H12S11870   5.627   7.758   9.702 -1.1046  2.4692 -0.8541
  114OSM   H12T11871   5.456   7.730   9.658 -1.3464 -3.7863  0.0140
  114OSM   C13S11872   5.587   7.661   9.502 -0.5547 -0.6073 -0.1798
  114OSM   H13S11873   5.518   7.577   9.480 -0.2177 -0.9935  0.2105
  114OSM   H13T11874   5.692   7.627   9.512 -0.2453  0.7021  1.4578
  114OSM   C14S11875   5.565   7.776   9.408 -0.0103  0.3702 -0.2734
  114OSM   H14S11876   5.640   7.857   9.420 -0.3495  0.5496  0.7156
  114OSM   H14T11877   5.468   7.826   9.427  0.6605  1.3825  0.5399
  114OSM   C15S11878   5.566   7.720   9.261  0.3088  0.3938  0.0869
  114OSM   H15S11879   5.481   7.650   9.253 -1.3621  1.8874  3.1756
  114OSM   H15T11880   5.664   7.672   9.238  0.2006  0.9315 -1.6412
  114OSM   C16S11881   5.550   7.836   9.167  0.1533  0.2625 -0.2247
  114OSM   H16S11882   5.636   7.905   9.161 -0.0842  0.9444  2.7203
  114OSM   H16T11883   5.466   7.894   9.210  0.4281 -0.2025  0.9706
  114OSM   C17S11884   5.513   7.791   9.022  0.1708 -0.8162 -0.6003
  114OSM   H17S11885   5.441   7.706   9.026 -1.8069  0.8089  0.2410
  114OSM   H17T11886   5.598   7.757   8.959 -0.1255 -0.3622 -1.2612
  114OSM   C18S11887   5.452   7.906   8.941 -0.4532  1.0148 -0.5796
  114OSM   H18S11888   5.514   7.997   8.953  1.7312 -0.5914  1.3215
  114OSM   H18T11889   5.358   7.939   8.989  0.6871  1.2416  1.6208
  114OSM   H18U11890   5.443   7.880   8.833  2.0675 -0.5054 -0.5004
  114OSM    C1F11891   5.481   6.941  10.531  0.1769 -0.1633 -0.0553
  114OSM     OF11892   5.410   6.948  10.631  0.0873  0.0607  0.2263
  114OSM    C2F11893   5.439   6.845  10.417  0.0838 -0.5045 -0.1638
  114OSM    H2F11894   5.401   6.753  10.467 -0.3583 -0.5867 -0.6379
  114OSM    H2G11895   5.532   6.821  10.361 -0.2944 -0.6421 -0.7515
  114OSM    C3F11896   5.330   6.897  10.320  0.2998 -0.3743 -0.2133
  114OSM    H3F11897   5.245   6.939  10.377 -0.2964  0.5782 -1.7209
  114OSM    H3G11898   5.280   6.814  10.266  0.7980 -2.3379  2.2129
  114OSM    C4F11899   5.383   7.010  10.232 -0.0548  0.3281 -0.2994
  114OSM    H4F11900   5.452   6.967  10.156  0.0740  0.7187 -0.4033
  114OSM    H4G11901   5.435   7.090  10.288 -0.2726  1.9672 -2.3269
  114OSM    C5F11902   5.268   7.070  10.157 -0.3044  0.3699 -1.1506
  114OSM    H5F11903   5.212   7.146  10.215  0.6981  0.9401 -0.9192
  114OSM    H5G11904   5.195   6.995  10.119 -0.2054  0.1340 -0.8799
  114OSM    C6F11905   5.300   7.161  10.035 -0.0824 -0.2801 -0.0025
  114OSM    H6F11906   5.402   7.204  10.050  0.8037 -2.1496 -0.3995
  114OSM    H6G11907   5.229   7.246  10.029  0.7739  0.4132 -0.5022
  114OSM    C7F11908   5.290   7.067   9.913  0.2679 -0.2147  0.2051
  114OSM    H7F11909   5.192   7.016   9.907 -1.0459  1.9678  1.7834
  114OSM    H7G11910   5.362   6.983   9.922 -0.5385 -1.0428 -0.7944
  114OSM    C8F11911   5.332   7.152   9.782 -0.3438 -0.5064  0.1283
  114OSM    H8F11912   5.438   7.182   9.795 -0.4940  0.1197 -0.0614
  114OSM    H8G11913   5.271   7.245   9.778 -2.6393 -1.8940  1.1546
  114OSM    C9F11914   5.337   7.077   9.648 -0.2580  0.7931  0.0814
  114OSM    H9F11915   5.343   6.968   9.658 -0.7512  0.7902  0.3622
  114OSM   C10F11916   5.308   7.135   9.527  0.3082 -0.1086  0.6894
  114OSM   H10F11917   5.302   7.061   9.446  2.7229 -0.5594  0.8366
  114OSM   C11F11918   5.282   7.277   9.482  0.5680  0.5547 -0.4439
  114OSM   H11F11919   5.288   7.351   9.564 -1.3395  0.3387 -0.0565
  114OSM   H11G11920   5.178   7.287   9.444  0.5201  0.1180 -0.4307
  114OSM   C12F11921   5.371   7.327   9.370 -0.4480  1.2043 -0.1766
  114OSM   H12F11922   5.475   7.342   9.408  0.0511 -0.5002 -0.7585
  114OSM   H12G11923   5.345   7.423   9.322  1.2233  0.9849 -1.6216
  114OSM   C13F11924   5.361   7.214   9.259  0.1488 -0.5695  0.1762
  114OSM   H13F11925   5.252   7.192   9.251 -0.3074  0.8433  1.7686
  114OSM   H13G11926   5.423   7.127   9.290 -1.4716 -1.7057  0.3264
  114OSM   C14F11927   5.384   7.262   9.119 -0.3382 -0.0652 -0.3610
  114OSM   H14F11928   5.294   7.319   9.088 -0.2957  0.7565  0.9167
  114OSM   H14G11929   5.387   7.170   9.058  0.0791 -1.7896  2.1047
  114OSM   C15F11930   5.507   7.356   9.108  0.7405  0.3937  0.3310
  114OSM   H15F11931   5.593   7.290   9.131 -0.7486 -1.3720  1.0214
  114OSM   H15G11932   5.521   7.435   9.185  1.8883  0.0998  0.4483
  114OSM   C16F11933   5.519   7.416   8.968  0.4819  0.0180  0.4795
  114OSM   H16F11934   5.438   7.492   8.959  0.7676  0.1636 -0.9855
  114OSM   H16G11935   5.488   7.340   8.894  0.4053  1.6385 -1.2259
  114OSM   C17F11936   5.659   7.468   8.938  0.3162  0.3038  0.1705
  114OSM   H17F11937   5.730   7.393   8.978 -0.3067  0.2788  1.2756
  114OSM   H17G11938   5.670   7.557   9.004  0.3547  0.8397 -0.5353
  114OSM   C18F11939   5.678   7.503   8.793 -0.2403 -0.0897  0.1520
  114OSM   H18F11940   5.786   7.516   8.771  0.0584 -0.4695  1.3505
  114OSM   H18G11941   5.645   7.605   8.763 -0.6504  0.2829  1.7644
  114OSM   H18H11942   5.630   7.435   8.719  2.0171  0.8502 -2.3311
  115OSM      N11943   1.886   0.120   5.989 -0.5020 -0.3253  0.3975
  115OSM    C1511944   1.762   0.132   5.906 -0.7205  0.6358 -0.2136
  115OSM   H15A11945   1.795   0.110   5.805 -0.6499  1.5110 -0.3834
  115OSM   H15B11946   1.721   0.231   5.921 -1.2124  0.3728  0.2134
  115OSM   H15C11947   1.688   0.055   5.925 -0.6855  0.3694 -1.0914
  115OSM    C1411948   1.857   0.141   6.134 -0.2911  0.7408  0.5880
  115OSM   H14A11949   1.946   0.131   6.195  1.2884 -0.1568 -1.7343
  115OSM   H14B11950   1.783   0.072   6.174 -1.5108  0.5987 -1.7581
  115OSM   H14C11951   1.830   0.244   6.154  1.8662  1.1927  1.4558
  115OSM    C1311952   1.942  -0.017   5.973 -0.9129 -0.9295  0.1737
  115OSM   H13A11953   2.025  -0.029   6.040  1.0664 -3.1469 -2.4026
  115OSM   H13B11954   1.979  -0.045   5.875 -0.0680  0.1217  0.1827
  115OSM   H13C11955   1.866  -0.089   6.000  0.7888 -2.7939  0.1597
  115OSM    C1211956   1.994   0.230   5.949 -0.1641  0.4860 -0.7498
  115OSM   H12A11957   2.023   0.187   5.854 -0.5718  0.4287 -0.8524
  115OSM   H12B11958   2.077   0.223   6.017 -0.5280 -1.4185 -0.4542
  115OSM    C1111959   1.947   0.379   5.960 -0.1344  0.4533  0.5426
  115OSM   H11A11960   1.853   0.392   5.903  0.7541  3.8115 -0.4324
  115OSM   H11B11961   2.026   0.437   5.907  0.4980  0.1943  1.1885
  115OSM      P11962   1.793   0.485   6.138  0.0382  0.0884  0.1936
  115OSM    O1311963   1.797   0.628   6.097  0.2464  1.1329  0.1696
  115OSM    O1411964   1.685   0.408   6.075  0.0261  0.2984 -0.3932
  115OSM    O1111965   1.784   0.469   6.294  0.4810  0.0921 -0.0303
  115OSM    O1211966   1.928   0.413   6.098  0.3464  0.0610  0.7855
  115OSM    C1S11967   1.877   0.520   6.392  0.2794 -0.4626  0.2229
  115OSM    H1S11968   1.886   0.631   6.388  0.8055 -0.5276 -2.3325
  115OSM    H1T11969   1.981   0.487   6.371 -0.2853 -1.8817 -0.4256
  115OSM     NF11970   1.927   0.536   6.630  0.1336 -0.0697 -0.1505
  115OSM    HNF11971   2.011   0.486   6.649 -0.2543 -0.7014 -0.0557
  115OSM    C2S11972   1.838   0.480   6.534  0.5578  0.3116  0.4864
  115OSM    H2S11973   1.731   0.508   6.549 -0.3572 -3.4222  2.2705
  115OSM    C3S11974   1.844   0.317   6.542  0.4375 -0.6063  0.5395
  115OSM    H3S11975   1.954   0.301   6.537  0.9496  2.5783 -1.7388
  115OSM     O311976   1.778   0.244   6.431 -0.4454 -0.1745  0.0029
  115OSM    HO311977   1.746   0.311   6.371 -0.9715  0.7787  1.2923
  115OSM    C4S11978   1.784   0.265   6.670 -0.1225  0.3568  0.8500
  115OSM    H4S11979   1.680   0.297   6.686  0.8044  4.0207  0.4137
  115OSM    C5S11980   1.858   0.200   6.765 -0.3749 -0.5288 -0.0146
  115OSM    H5S11981   1.965   0.192   6.738 -0.9352  1.9100 -3.6744
  115OSM    C6S11982   1.822   0.139   6.895  0.4472  0.5505 -0.2798
  115OSM    H6S11983   1.835   0.030   6.905  0.8874  0.4858 -1.4404
  115OSM    H6T11984   1.716   0.161   6.919  0.3147 -0.7490  0.4136
  115OSM    C7S11985   1.911   0.208   7.002 -0.2222  0.3537  0.5651
  115OSM    H7S11986   2.015   0.179   6.976 -0.9739 -1.0500 -1.1031
  115OSM    H7T11987   1.877   0.163   7.098 -1.2833  1.1178  0.5688
  115OSM    C8S11988   1.890   0.357   7.033 -1.0773 -0.5397 -0.8548
  115OSM    H8S11989   1.782   0.370   7.058 -0.2395 -0.2702  3.4259
  115OSM    H8T11990   1.914   0.424   6.948  1.8354  0.4258  0.5805
  115OSM    C9S11991   1.972   0.400   7.158 -0.6456  0.5821 -0.1367
  115OSM    H9S11992   2.076   0.370   7.132 -0.4670  1.1377 -0.0725
  115OSM    H9T11993   1.938   0.345   7.249  2.7729 -1.0406  0.3070
  115OSM   C10S11994   1.952   0.551   7.197  0.8101 -0.8857 -0.0719
  115OSM   H10S11995   1.856   0.569   7.249  1.0033  2.0529 -0.5248
  115OSM   H10T11996   1.962   0.594   7.095  2.3738 -0.9706  0.0216
  115OSM   C11S11997   2.070   0.605   7.281 -0.6008  0.5288 -0.5298
  115OSM   H11S11998   2.066   0.715   7.265 -0.6747  0.1672 -3.4254
  115OSM   H11T11999   2.169   0.563   7.253 -0.9516 -3.1164  2.7742
  115OSM   C12S12000   2.055   0.568   7.427  0.0118 -0.3247  0.4052
  115OSM   H12S12001   2.063   0.459   7.444  3.0629 -0.2690 -0.1815
  115OSM   H12T12002   1.954   0.592   7.467  1.0440 -0.0923  3.0612
  115OSM   C13S12003   2.152   0.640   7.521 -0.1028  0.7415  0.0189
  115OSM   H13S12004   2.156   0.749   7.504  1.1101  0.9937  1.6529
  115OSM   H13T12005   2.255   0.603   7.500 -0.9832 -1.9457 -0.0171
  115OSM   C14S12006   2.109   0.608   7.665  0.0183 -0.5649 -0.0750
  115OSM   H14S12007   2.120   0.499   7.678  0.6816 -0.4775  0.1328
  115OSM   H14T12008   2.007   0.648   7.682  0.4639  1.1066 -1.0711
  115OSM   C15S12009   2.205   0.671   7.766  0.9262  0.3130 -0.2681
  115OSM   H15S12010   2.149   0.660   7.861  0.8964 -1.5580 -0.4744
  115OSM   H15T12011   2.209   0.779   7.741  2.7778  0.4312  0.3363
  115OSM   C16S12012   2.346   0.613   7.774 -0.1062 -0.5051 -0.0940
  115OSM   H16S12013   2.369   0.508   7.747  0.3402 -0.3784 -0.2222
  115OSM   H16T12014   2.374   0.620   7.882  1.8391 -0.1501 -0.5780
  115OSM   C17S12015   2.443   0.700   7.703 -0.0747  0.0110  0.0954
  115OSM   H17S12016   2.433   0.803   7.742  0.3300 -1.3105  4.1589
  115OSM   H17T12017   2.416   0.706   7.595  0.3938 -0.5420 -0.0580
  115OSM   C18S12018   2.588   0.663   7.692  0.3005  0.5347 -0.2399
  115OSM   H18S12019   2.607   0.565   7.644 -0.3559  0.2852 -0.0014
  115OSM   H18T12020   2.631   0.663   7.795 -1.4597 -0.3600  0.5338
  115OSM   H18U12021   2.638   0.736   7.624 -0.1255  1.0217 -0.0358
  115OSM    C1F12022   1.935   0.672   6.679 -0.2641  0.5089  0.9908
  115OSM     OF12023   1.864   0.762   6.630 -0.4409  0.3146  0.4714
  115OSM    C2F12024   2.042   0.695   6.779 -0.5249  0.2643 -0.6491
  115OSM    H2F12025   2.116   0.613   6.768  0.4367  1.3633 -2.8223
  115OSM    H2G12026   2.001   0.692   6.883 -0.8149  0.4559 -0.7564
  115OSM    C3F12027   2.113   0.829   6.761  0.0504  0.5812 -1.0300
  115OSM    H3F12028   2.043   0.916   6.767  0.8774  1.2147 -0.3385
  115OSM    H3G12029   2.151   0.828   6.657  2.1105 -1.0420 -0.3302
  115OSM    C4F12030   2.237   0.870   6.846 -0.1462 -0.0698  0.6015
  115OSM    H4F12031   2.235   0.981   6.843 -2.4142 -0.0752  0.1898
  115OSM    H4G12032   2.337   0.844   6.803  1.7571  3.3742  2.5387
  115OSM    C5F12033   2.240   0.834   6.991  0.4574  0.1806 -0.3824
  115OSM    H5F12034   2.219   0.725   7.004 -0.9846  0.4586 -0.1896
  115OSM    H5G12035   2.159   0.884   7.047  0.7947  0.2164  0.0831
  115OSM    C6F12036   2.371   0.876   7.064  0.2205 -0.4937  0.0574
  115OSM    H6F12037   2.412   0.974   7.032  0.3663 -1.2657 -2.3188
  115OSM    H6G12038   2.453   0.807   7.035  2.9382  3.2662 -2.0400
  115OSM    C7F12039   2.354   0.873   7.214  0.0930 -0.3731  0.2308
  115OSM    H7F12040   2.319   0.770   7.238 -0.3407 -0.1197  0.7047
  115OSM    H7G12041   2.271   0.943   7.238 -0.4711 -1.4442  1.5177
  115OSM    C8F12042   2.475   0.899   7.302 -1.3013  0.0338 -0.5829
  115OSM    H8F12043   2.541   0.810   7.290  1.5313  2.1835 -2.4239
  115OSM    H8G12044   2.456   0.900   7.411  1.5808  2.6204  0.0447
  115OSM    C9F12045   2.548   1.028   7.271  0.1924  0.3213 -0.1989
  115OSM    H9F12046   2.567   1.066   7.169  1.3365  2.6467  0.8024
  115OSM   C10F12047   2.604   1.119   7.352 -0.4890  0.2596 -0.4706
  115OSM   H10F12048   2.658   1.197   7.296  1.9566 -2.1251 -1.6629
  115OSM   C11F12049   2.619   1.119   7.500  0.2304  0.4835 -0.7394
  115OSM   H11F12050   2.530   1.070   7.547 -0.0555  1.0599 -0.6638
  115OSM   H11G12051   2.612   1.228   7.525  0.7156  0.5743 -0.9963
  115OSM   C12F12052   2.752   1.069   7.557  0.5228  0.0641  0.7971
  115OSM   H12F12053   2.821   1.151   7.528 -2.1128  1.5598 -1.8158
  115OSM   H12G12054   2.778   0.975   7.504  1.2235  1.2912 -1.1218
  115OSM   C13F12055   2.767   1.054   7.712 -0.4417  0.5028  0.2800
  115OSM   H13F12056   2.698   0.974   7.745 -0.5526  1.4864  2.6156
  115OSM   H13G12057   2.727   1.144   7.765 -1.2049  0.3578 -0.0289
  115OSM   C14F12058   2.919   1.021   7.738 -0.6845 -0.5224 -0.1524
  115OSM   H14F12059   2.977   1.113   7.717 -0.8445 -0.1914  0.8044
  115OSM   H14G12060   2.948   0.941   7.666 -1.5514  1.8868 -3.4319
  115OSM   C15F12061   2.941   0.977   7.887 -1.0426 -0.4535  0.1939
  115OSM   H15F12062   2.876   0.887   7.896 -0.5567 -1.0160 -1.5377
  115OSM   H15G12063   2.914   1.056   7.960 -1.5283  0.5114 -1.0121
  115OSM   C16F12064   3.088   0.938   7.900  0.4779  0.2024 -0.5815
  115OSM   H16F12065   3.149   1.012   7.844  3.0459 -0.5417  1.0543
  115OSM   H16G12066   3.100   0.838   7.853 -1.5463  0.2981 -1.4255
  115OSM   C17F12067   3.139   0.934   8.037  0.0313 -0.1442 -1.1506
  115OSM   H17F12068   3.145   1.037   8.079  0.6369 -0.1710 -1.1600
  115OSM   H17G12069   3.244   0.897   8.036  0.3861  0.2519  2.9467
  115OSM   C18F12070   3.073   0.842   8.137  0.1440  0.0062 -0.2363
  115OSM   H18F12071   3.113   0.842   8.241 -0.4173  1.0788 -0.0098
  115OSM   H18G12072   3.076   0.735   8.108 -1.8584 -0.2394  0.2891
  115OSM   H18H12073   2.967   0.875   8.129  0.7333  2.4164  0.9294
  116OSM      N12074   0.098   4.588   5.919  0.2392  0.5853  0.2761
  116OSM    C1512075   0.065   4.727   5.867 -0.0145 -0.0989 -0.0732
  116OSM   H15A12076   0.154   4.787   5.858  1.2980 -1.7354  1.3281
  116OSM   H15B12077  -0.001   4.778   5.937 -0.7468  0.8441 -1.4061
  116OSM   H15C12078   0.016   4.715   5.772 -1.6392 -2.7891  0.9884
  116OSM    C1412079  -0.033   4.504   5.926 -0.4872 -0.4113  1.0112
  116OSM   H14A12080  -0.086   4.506   5.832  0.9002  3.5648  0.1102
  116OSM   H14B12081  -0.096   4.556   5.996  1.0937  1.3368  1.2072
  116OSM   H14C12082  -0.013   4.401   5.951  0.8056 -0.4550 -0.0856
  116OSM    C1312083   0.195   4.525   5.824 -0.9045 -0.6977  0.2703
  116OSM   H13A12084   0.283   4.585   5.808  1.0245 -3.4161  0.0158
  116OSM   H13B12085   0.157   4.524   5.723 -1.8214 -2.0767  0.5943
  116OSM   H13C12086   0.216   4.424   5.856 -0.0154 -0.8051 -0.6173
  116OSM    C1212087   0.148   4.589   6.061  0.4711  0.3307  0.1327
  116OSM   H12A12088   0.180   4.491   6.094  1.1134  0.3756 -0.3425
  116OSM   H12B12089   0.068   4.625   6.124 -0.0571  0.4198 -0.5736
  116OSM    C1112090   0.273   4.668   6.086 -0.0162 -0.5943 -0.3786
  116OSM   H11A12091   0.295   4.671   6.195  0.1664  1.7452 -0.4385
  116OSM   H11B12092   0.249   4.775   6.073 -0.3300 -0.5870  0.2502
  116OSM      P12093   0.479   4.513   6.052  0.4749  0.2090 -0.3561
  116OSM    O1312094   0.463   4.406   5.959 -0.0514 -0.3457 -0.4163
  116OSM    O1412095   0.614   4.568   6.072  0.1122  0.3522  0.0484
  116OSM    O1112096   0.421   4.475   6.197  0.3240  0.7948  0.5012
  116OSM    O1212097   0.383   4.627   6.008 -0.0180  0.3171  0.5807
  116OSM    C1S12098   0.488   4.522   6.309 -0.3095 -0.1911  0.6357
  116OSM    H1S12099   0.518   4.627   6.289 -1.8662  0.5860  2.1829
  116OSM    H1T12100   0.584   4.470   6.327  2.0183  3.4069 -0.3341
  116OSM     NF12101   0.472   4.560   6.550 -0.1022  0.2932  0.0048
  116OSM    HNF12102   0.475   4.499   6.629  2.6542 -0.0146 -0.2479
  116OSM    C2S12103   0.392   4.513   6.438  0.0984  0.2873  0.6696
  116OSM    H2S12104   0.310   4.585   6.417  0.6298  0.0693 -2.8142
  116OSM    C3S12105   0.338   4.367   6.459 -0.3887  0.1906  0.7680
  116OSM    H3S12106   0.410   4.283   6.461 -0.6498 -0.1610 -1.5886
  116OSM     O312107   0.262   4.333   6.348 -0.5676  0.3351  0.5244
  116OSM    HO312108   0.304   4.388   6.281 -0.2264  0.5957  0.9536
  116OSM    C4S12109   0.250   4.362   6.586  0.1999 -0.6178  0.4295
  116OSM    H4S12110   0.167   4.433   6.594 -1.1346 -2.0993  0.2464
  116OSM    C5S12111   0.285   4.288   6.692 -0.0375  0.1577  0.0559
  116OSM    H5S12112   0.381   4.234   6.690  0.7918  1.5928 -0.2497
  116OSM    C6S12113   0.206   4.283   6.821 -0.0459  0.3182  0.1434
  116OSM    H6S12114   0.167   4.179   6.827 -3.1002  1.3224 -0.4377
  116OSM    H6T12115   0.110   4.338   6.820 -2.5051 -3.5686  0.1663
  116OSM    C7S12116   0.281   4.325   6.943  0.2566 -0.5566 -0.0190
  116OSM    H7S12117   0.287   4.436   6.933 -2.9874 -0.4053 -1.4250
  116OSM    H7T12118   0.379   4.273   6.931  1.0931  0.9170  0.1259
  116OSM    C8S12119   0.212   4.292   7.081 -0.3276 -0.7957  0.1678
  116OSM    H8S12120   0.231   4.184   7.101  1.3819 -0.6466 -0.4225
  116OSM    H8T12121   0.102   4.300   7.079 -0.3786 -1.4639  0.1180
  116OSM    C9S12122   0.253   4.388   7.195  0.4624 -0.0588 -0.3031
  116OSM    H9S12123   0.226   4.493   7.171 -0.4858  0.3919  2.4116
  116OSM    H9T12124   0.359   4.389   7.227  0.1671  0.6428  0.7129
  116OSM   C10S12125   0.173   4.380   7.326  0.3160  0.5027 -0.0193
  116OSM   H10S12126   0.191   4.278   7.365  0.1817  0.3484 -0.3605
  116OSM   H10T12127   0.065   4.397   7.310  1.0544  3.3023 -3.3697
  116OSM   C11S12128   0.223   4.488   7.426 -0.1294  0.4202 -0.0035
  116OSM   H11S12129   0.169   4.585   7.416  1.6081  1.2979 -1.2925
  116OSM   H11T12130   0.326   4.526   7.414 -0.5363  0.7241 -4.5529
  116OSM   C12S12131   0.193   4.416   7.563 -0.5037 -0.4383  0.1350
  116OSM   H12S12132   0.267   4.333   7.572 -1.2700 -1.3093 -1.3095
  116OSM   H12T12133   0.091   4.372   7.563 -0.8157  0.2592  0.7507
  116OSM   C13S12134   0.212   4.513   7.688 -0.5029 -0.1704 -0.4814
  116OSM   H13S12135   0.145   4.603   7.685 -0.3748 -0.0934 -1.5019
  116OSM   H13T12136   0.319   4.542   7.685  0.3999 -2.9389  1.5240
  116OSM   C14S12137   0.181   4.445   7.821 -0.2448 -0.2375 -0.2773
  116OSM   H14S12138   0.209   4.337   7.821  0.3481 -0.1062  0.9532
  116OSM   H14T12139   0.073   4.434   7.846 -0.2204 -0.9628 -0.4687
  116OSM   C15S12140   0.256   4.501   7.946  0.4924 -0.3561 -0.5571
  116OSM   H15S12141   0.221   4.440   8.032 -1.6189  0.1381 -1.0201
  116OSM   H15T12142   0.215   4.603   7.964 -0.4775 -0.9267  0.6530
  116OSM   C16S12143   0.408   4.497   7.944 -0.5270 -0.3656 -0.3593
  116OSM   H16S12144   0.445   4.560   7.860 -1.4756 -0.4617 -0.8638
  116OSM   H16T12145   0.454   4.395   7.938 -4.3813 -2.2077 -2.5636
  116OSM   C17S12146   0.462   4.569   8.071  0.1221 -0.1790 -0.8879
  116OSM   H17S12147   0.414   4.669   8.073  0.3746 -0.0641  0.0712
  116OSM   H17T12148   0.571   4.565   8.054  0.3117 -2.0251  0.4664
  116OSM   C18S12149   0.437   4.488   8.201  0.9837  0.5112  0.4334
  116OSM   H18S12150   0.454   4.380   8.181  0.4811  0.4076  0.5521
  116OSM   H18T12151   0.333   4.498   8.240  0.5228 -4.3373  0.9855
  116OSM   H18U12152   0.510   4.529   8.274 -0.1672  1.1755  1.2432
  116OSM    C1F12153   0.534   4.680   6.561  0.3674 -0.9889 -0.3377
  116OSM     OF12154   0.506   4.767   6.483  0.6442 -0.3785 -0.6980
  116OSM    C2F12155   0.620   4.696   6.684  0.0739  0.0235  0.0149
  116OSM    H2F12156   0.676   4.792   6.679  0.9549 -0.3272  2.2594
  116OSM    H2G12157   0.699   4.618   6.686  0.8893  0.8475  0.9735
  116OSM    C3F12158   0.539   4.688   6.812 -0.1793  1.2754  0.0695
  116OSM    H3F12159   0.616   4.685   6.892  0.0052  1.1111 -0.1137
  116OSM    H3G12160   0.481   4.593   6.822  0.6796  0.9101  1.8766
  116OSM    C4F12161   0.440   4.809   6.830  0.6777  0.4243  0.3656
  116OSM    H4F12162   0.351   4.808   6.762 -0.3401  4.3865  1.3269
  116OSM    H4G12163   0.503   4.898   6.808  1.8993 -0.3841  0.5134
  116OSM    C5F12164   0.382   4.811   6.974 -0.1928  0.7955  0.6044
  116OSM    H5F12165   0.354   4.706   6.996  0.8029  0.4803  0.4571
  116OSM    H5G12166   0.289   4.870   6.978 -0.4121  0.9048 -2.8283
  116OSM    C6F12167   0.484   4.852   7.076  0.0547  0.6209 -0.5609
  116OSM    H6F12168   0.485   4.963   7.080  1.0562  0.6016  0.0388
  116OSM    H6G12169   0.585   4.831   7.036  0.0126  2.6137 -1.8349
  116OSM    C7F12170   0.461   4.793   7.219 -0.4783 -0.1323  0.3255
  116OSM    H7F12171   0.465   4.684   7.197 -2.3335 -0.2759  0.5547
  116OSM    H7G12172   0.360   4.811   7.261 -0.6328 -2.4717  1.1068
  116OSM    C8F12173   0.571   4.844   7.320 -0.0012  0.2603 -0.8339
  116OSM    H8F12174   0.668   4.823   7.270  0.1681  0.7175 -0.6988
  116OSM    H8G12175   0.570   4.779   7.410 -3.2405  0.7007 -0.4138
  116OSM    C9F12176   0.554   4.987   7.358 -0.4922  0.3430 -0.1828
  116OSM    H9F12177   0.544   5.061   7.278 -2.7913 -2.3438 -2.6565
  116OSM   C10F12178   0.519   5.029   7.486  0.2608 -0.1862  0.5144
  116OSM   H10F12179   0.503   5.137   7.502 -1.0369 -0.7234  3.5098
  116OSM   C11F12180   0.478   4.953   7.611 -0.2445 -0.2841  0.2434
  116OSM   H11F12181   0.453   4.848   7.581  1.3238 -0.3761 -0.8112
  116OSM   H11G12182   0.377   4.984   7.645 -2.0959 -3.5677 -1.6758
  116OSM   C12F12183   0.570   4.947   7.732 -0.5123 -0.4361 -0.3179
  116OSM   H12F12184   0.674   4.923   7.701 -0.6627 -0.0139 -1.1726
  116OSM   H12G12185   0.535   4.862   7.795  1.8214 -1.0021  0.3044
  116OSM   C13F12186   0.583   5.076   7.804 -0.5548  1.0622  0.0339
  116OSM   H13F12187   0.483   5.124   7.817 -0.7576  1.2050 -1.8207
  116OSM   H13G12188   0.645   5.142   7.739  0.9236 -1.6824 -1.4824
  116OSM   C14F12189   0.665   5.046   7.935  0.2187 -0.7536 -0.5924
  116OSM   H14F12190   0.745   4.977   7.900 -0.6969 -1.9291 -0.4506
  116OSM   H14G12191   0.603   4.993   8.011 -1.5779  1.9162 -0.0740
  116OSM   C15F12192   0.732   5.169   7.985 -0.2632 -0.9455  0.2220
  116OSM   H15F12193   0.653   5.247   7.983 -3.7890 -4.2176 -1.3979
  116OSM   H15G12194   0.805   5.190   7.904 -1.1772 -2.2949 -1.0041
  116OSM   C16F12195   0.797   5.158   8.121 -0.4746  0.6433  0.1302
  116OSM   H16F12196   0.879   5.087   8.099 -0.9743 -0.2625  1.1100
  116OSM   H16G12197   0.727   5.106   8.190  0.9274  0.5788  1.5857
  116OSM   C17F12198   0.843   5.296   8.172 -0.1692 -0.1145  0.9289
  116OSM   H17F12199   0.869   5.366   8.089  2.1649 -0.9199  0.9194
  116OSM   H17G12200   0.924   5.275   8.246  0.5446  2.1759  0.8897
  116OSM   C18F12201   0.737   5.358   8.259 -0.5024 -0.3526  0.2615
  116OSM   H18F12202   0.774   5.452   8.305  0.9005 -0.5051 -0.5162
  116OSM   H18G12203   0.704   5.284   8.336 -0.4000  0.2330  0.8810
  116OSM   H18H12204   0.656   5.399   8.195  0.7985 -2.2789 -2.8259
  117OSM      N12205   0.109   1.179   6.160 -0.4042 -0.1564  0.0481
  117OSM    C1512206   0.096   1.221   6.014  0.4157  0.1383 -0.4230
  117OSM   H15A12207   0.125   1.324   6.001  1.4183 -0.2749 -1.6578
  117OSM   H15B12208  -0.010   1.214   5.995  0.2877  0.5066  0.1216
  117OSM   H15C12209   0.151   1.150   5.955 -0.2261 -1.5680  0.9302
  117OSM    C1412210   0.042   1.279   6.253  0.1322  0.5377 -0.0886
  117OSM   H14A12211  -0.065   1.291   6.240  0.1199  0.0839 -0.4428
  117OSM   H14B12212   0.085   1.377   6.247  0.2171  0.4608 -0.7812
  117OSM   H14C12213   0.065   1.232   6.348 -0.0595  1.8677  0.6300
  117OSM    C1312214   0.054   1.044   6.177 -0.3158 -0.0073 -0.0854
  117OSM   H13A12215  -0.054   1.042   6.164 -0.5994  2.4729  1.3233
  117OSM   H13B12216   0.066   0.992   6.270  0.1854  1.3736  0.6553
  117OSM   H13C12217   0.079   0.974   6.099 -1.3347 -1.1159  0.5485
  117OSM    C1212218   0.255   1.178   6.197  0.3462  0.3650 -0.0005
  117OSM   H12A12219   0.293   1.085   6.156 -3.2896 -0.8534 -0.9564
  117OSM   H12B12220   0.259   1.166   6.304 -0.4157  1.8720  0.2165
  117OSM    C1112221   0.342   1.300   6.158 -0.0306 -0.9327  0.2677
  117OSM   H11A12222   0.375   1.294   6.052 -0.4011  0.6064  0.0327
  117OSM   H11B12223   0.440   1.297   6.212  1.5448 -0.0993 -2.3634
  117OSM      P12224   0.369   1.562   6.193  0.1396 -0.5363  0.2197
  117OSM    O1312225   0.509   1.536   6.226  0.6924  0.0438 -0.0403
  117OSM    O1412226   0.343   1.649   6.080  0.1937  0.1030  0.2392
  117OSM    O1112227   0.304   1.638   6.312 -0.6162 -0.3337 -0.2733
  117OSM    O1212228   0.284   1.427   6.182  0.0802 -1.1134  0.3242
  117OSM    C1S12229   0.288   1.562   6.437  0.4654  0.1923  0.1092
  117OSM    H1S12230   0.380   1.563   6.498 -0.6078  3.5558  1.9104
  117OSM    H1T12231   0.266   1.454   6.418  0.4689  0.3427 -0.8260
  117OSM     NF12232   0.155   1.511   6.648  0.0857 -0.3287  0.0850
  117OSM    HNF12233   0.072   1.455   6.647 -0.0130 -0.2146 -2.0560
  117OSM    C2S12234   0.162   1.595   6.528  0.4014 -0.1225  0.1670
  117OSM    H2S12235   0.180   1.698   6.566  0.2592  0.2294 -0.7057
  117OSM    C3S12236   0.033   1.599   6.444  0.2913  0.2167 -0.2354
  117OSM    H3S12237   0.006   1.493   6.423 -0.5779  0.6555 -1.4344
  117OSM     O312238   0.032   1.664   6.319  0.8970 -0.2629 -0.1622
  117OSM    HO312239   0.124   1.681   6.297  1.4998 -2.7852  0.0722
  117OSM    C4S12240  -0.081   1.662   6.522 -0.4743  0.0849  0.9112
  117OSM    H4S12241  -0.055   1.766   6.547 -3.0409  0.6828  1.3083
  117OSM    C5S12242  -0.192   1.608   6.574  0.5716  0.3062 -0.0400
  117OSM    H5S12243  -0.191   1.499   6.593 -0.9939  0.4084  0.8050
  117OSM    C6S12244  -0.304   1.686   6.647 -0.0154  0.5819  0.9408
  117OSM    H6S12245  -0.399   1.667   6.593  0.6463  1.2055 -0.5315
  117OSM    H6T12246  -0.280   1.791   6.620  0.7535 -0.1363 -1.5415
  117OSM    C7S12247  -0.325   1.673   6.792  0.2306  0.2886  0.0757
  117OSM    H7S12248  -0.229   1.707   6.836  0.9839 -2.3369  0.6490
  117OSM    H7T12249  -0.331   1.565   6.819  0.8170  0.4693  0.9867
  117OSM    C8S12250  -0.448   1.753   6.849  0.2886  0.2861 -0.0130
  117OSM    H8S12251  -0.539   1.733   6.789 -1.7106  4.7770  1.0325
  117OSM    H8T12252  -0.431   1.863   6.851 -1.9720  0.6910  1.4482
  117OSM    C9S12253  -0.490   1.713   6.995 -0.4237 -0.9452 -0.1437
  117OSM    H9S12254  -0.532   1.610   7.005 -2.4502 -0.0115  2.2165
  117OSM    H9T12255  -0.563   1.785   7.037  0.3090  1.0160 -2.0797
  117OSM   C10S12256  -0.371   1.720   7.091 -0.3776  0.2001 -0.4421
  117OSM   H10S12257  -0.323   1.816   7.061 -1.5570  0.7987 -0.4655
  117OSM   H10T12258  -0.293   1.643   7.073 -0.1501  0.7653 -2.1537
  117OSM   C11S12259  -0.410   1.724   7.244 -0.0606  0.0749  0.4525
  117OSM   H11S12260  -0.481   1.640   7.259 -2.1875  1.4733 -1.1531
  117OSM   H11T12261  -0.482   1.806   7.265 -0.1876  0.0236  0.2212
  117OSM   C12S12262  -0.299   1.721   7.345  0.1061 -0.3575 -0.3687
  117OSM   H12S12263  -0.260   1.825   7.347 -1.9086  0.4261  0.6493
  117OSM   H12T12264  -0.220   1.653   7.305 -0.1587  0.4764 -2.4746
  117OSM   C13S12265  -0.342   1.665   7.478 -0.4609 -0.1497 -0.1685
  117OSM   H13S12266  -0.431   1.717   7.519 -0.4327  1.0670 -1.5941
  117OSM   H13T12267  -0.262   1.677   7.554 -0.5712 -0.3305 -0.0211
  117OSM   C14S12268  -0.382   1.515   7.472 -0.3202 -0.1035 -0.5136
  117OSM   H14S12269  -0.301   1.443   7.448 -0.1163  0.1038 -0.4526
  117OSM   H14T12270  -0.463   1.497   7.399  0.1674 -0.8934 -0.8723
  117OSM   C15S12271  -0.465   1.468   7.599 -0.2414  0.2403 -0.1974
  117OSM   H15S12272  -0.501   1.365   7.578  1.0315 -0.1762 -0.4541
  117OSM   H15T12273  -0.553   1.533   7.614 -0.3022  0.2524 -0.5844
  117OSM   C16S12274  -0.386   1.464   7.736  0.1787 -0.1671 -0.2297
  117OSM   H16S12275  -0.450   1.497   7.820 -0.4036 -0.6490 -0.4753
  117OSM   H16T12276  -0.319   1.553   7.740  0.3646 -0.3479  1.2093
  117OSM   C17S12277  -0.331   1.328   7.777  0.9219  0.5755 -0.6378
  117OSM   H17S12278  -0.419   1.260   7.778 -0.2188  2.0161 -0.0009
  117OSM   H17T12279  -0.287   1.334   7.878 -2.1231 -0.1450  0.8315
  117OSM   C18S12280  -0.224   1.265   7.689  0.0257 -0.3197 -0.0405
  117OSM   H18S12281  -0.263   1.185   7.622 -0.2622 -1.6309  1.6230
  117OSM   H18T12282  -0.148   1.213   7.751  1.3142  1.6109  0.0800
  117OSM   H18U12283  -0.160   1.342   7.641 -0.5530 -0.9099 -1.8586
  117OSM    C1F12284   0.253   1.503   6.742  0.9749  0.7904  0.0580
  117OSM     OF12285   0.347   1.586   6.729 -0.3142 -0.1189  0.3298
  117OSM    C2F12286   0.248   1.393   6.854 -0.0125 -0.7849  0.0403
  117OSM    H2F12287   0.150   1.344   6.869 -0.1452 -0.0999  1.7705
  117OSM    H2G12288   0.273   1.454   6.944 -1.4098 -0.2387  0.0794
  117OSM    C3F12289   0.371   1.299   6.843 -0.4156  0.0368  0.3821
  117OSM    H3F12290   0.462   1.359   6.825  0.1861 -1.1941 -0.7985
  117OSM    H3G12291   0.348   1.235   6.755 -0.8044  0.8439 -0.1135
  117OSM    C4F12292   0.386   1.206   6.965 -0.5787 -1.0323  0.7678
  117OSM    H4F12293   0.415   1.260   7.057  2.4571 -0.5329 -0.3677
  117OSM    H4G12294   0.469   1.136   6.942  0.3392  0.4454 -0.5945
  117OSM    C5F12295   0.258   1.125   6.995  0.3540 -0.7593 -0.6545
  117OSM    H5F12296   0.222   1.080   6.900 -2.9435 -0.6414  0.4362
  117OSM    H5G12297   0.175   1.181   7.042  0.7066 -0.7033 -0.0889
  117OSM    C6F12298   0.290   1.019   7.099 -0.1087 -0.5132  0.2589
  117OSM    H6F12299   0.337   1.059   7.191 -1.5813  1.3619  0.2478
  117OSM    H6G12300   0.346   0.940   7.044 -1.6677 -1.4997  0.0092
  117OSM    C7F12301   0.165   0.943   7.159 -0.1124  0.2153 -0.2399
  117OSM    H7F12302   0.102   0.922   7.070  2.4998 -1.2191 -1.9118
  117OSM    H7G12303   0.116   1.016   7.226 -1.2940 -1.5092  0.8507
  117OSM    C8F12304   0.204   0.808   7.234  0.2571  0.6317  0.1122
  117OSM    H8F12305   0.278   0.832   7.313  2.3770 -0.4525 -1.4499
  117OSM    H8G12306   0.259   0.743   7.162  0.9041  0.5676  0.6553
  117OSM    C9F12307   0.073   0.748   7.287 -0.4060  0.7115  0.0831
  117OSM    H9F12308   0.025   0.676   7.220  2.7471 -0.8872 -0.6320
  117OSM   C10F12309   0.021   0.781   7.400 -0.0283  0.0642  0.1351
  117OSM   H10F12310  -0.071   0.735   7.439 -0.6346  2.0059  1.1239
  117OSM   C11F12311   0.081   0.869   7.505  0.6619 -0.1952 -0.4788
  117OSM   H11F12312   0.008   0.953   7.515  1.8328  0.6686  1.3231
  117OSM   H11G12313   0.168   0.930   7.475 -0.7861  2.2816  0.0346
  117OSM   C12F12314   0.114   0.808   7.647 -0.0333 -0.2914 -0.4245
  117OSM   H12F12315   0.159   0.892   7.704 -0.1545  1.1248 -2.3193
  117OSM   H12G12316   0.187   0.724   7.644 -0.2541 -0.4795 -0.5524
  117OSM   C13F12317  -0.012   0.753   7.714  0.2403 -0.7937  1.1992
  117OSM   H13F12318  -0.041   0.663   7.657  0.7321  0.0407 -0.4183
  117OSM   H13G12319  -0.098   0.824   7.708  0.7585 -0.2553 -0.0700
  117OSM   C14F12320   0.007   0.727   7.862 -0.5014 -0.7938 -0.0665
  117OSM   H14F12321   0.082   0.645   7.859  0.2354 -0.3416  2.8119
  117OSM   H14G12322  -0.083   0.679   7.905 -0.7873 -0.6281 -0.4714
  117OSM   C15F12323   0.068   0.837   7.952 -0.3133 -0.5810 -0.2610
  117OSM   H15F12324  -0.013   0.911   7.970 -1.5679 -1.9210 -0.2479
  117OSM   H15G12325   0.164   0.883   7.918 -1.4429  0.7870 -1.7673
  117OSM   C16F12326   0.099   0.767   8.087 -0.0054  0.6879  0.4364
  117OSM   H16F12327   0.167   0.681   8.074 -1.0950 -0.5853  2.6520
  117OSM   H16G12328   0.005   0.711   8.107 -0.5076  2.0027  1.9533
  117OSM   C17F12329   0.140   0.853   8.206  0.5463  0.2243 -0.0166
  117OSM   H17F12330   0.236   0.903   8.186  0.0404  1.9136  1.5617
  117OSM   H17G12331   0.056   0.925   8.210 -1.2401 -1.7137 -0.6281
  117OSM   C18F12332   0.133   0.774   8.341  0.9811 -0.4255  0.7260
  117OSM   H18F12333   0.152   0.846   8.423  0.3915 -1.2194  1.5931
  117OSM   H18G12334   0.192   0.680   8.330  0.9841 -0.2945 -0.4778
  117OSM   H18H12335   0.025   0.747   8.339  0.4222  1.4577  2.3550
  118OSM      N12336   4.071   3.937   6.114 -0.2456  0.4014 -0.2227
  118OSM    C1512337   4.134   3.979   6.237 -0.2249  0.3076 -0.4260
  118OSM   H15A12338   4.227   4.030   6.216 -0.8739  2.0400  0.7085
  118OSM   H15B12339   4.170   3.899   6.300  0.6663  1.2173  0.2483
  118OSM   H15C12340   4.075   4.047   6.296  0.2286  1.0129 -0.7707
  118OSM    C1412341   4.017   4.042   6.025  0.3423 -0.4507  0.1716
  118OSM   H14A12342   3.970   4.000   5.937 -0.4537 -0.0633  0.3949
  118OSM   H14B12343   4.091   4.106   5.979 -1.6328  1.0073 -1.1339
  118OSM   H14C12344   3.946   4.107   6.075  0.6555 -1.1179  1.5468
  118OSM    C1312345   4.171   3.871   6.028  0.0700  0.1919  0.8004
  118OSM   H13A12346   4.224   3.943   5.969  1.7726 -3.2567 -2.2852
  118OSM   H13B12347   4.133   3.786   5.972  0.3581 -2.0802  3.8129
  118OSM   H13C12348   4.241   3.817   6.089  0.6588  1.0384  0.8868
  118OSM    C1212349   3.958   3.831   6.151 -0.3184  0.1976  0.0416
  118OSM   H12A12350   3.943   3.777   6.058  0.4317 -1.9647  1.0961
  118OSM   H12B12351   3.862   3.874   6.174 -0.1474  0.0538  1.0421
  118OSM    C1112352   3.997   3.718   6.245 -0.6000  0.0503  0.4142
  118OSM   H11A12353   3.987   3.758   6.348 -0.9969 -0.3518  0.5334
  118OSM   H11B12354   4.104   3.695   6.231 -0.5169  1.1061 -0.8981
  118OSM      P12355   3.757   3.607   6.244  0.4217 -0.7577  0.0120
  118OSM    O1312356   3.691   3.729   6.191  0.2845 -0.0567  0.4182
  118OSM    O1412357   3.705   3.469   6.210  0.0634 -1.0250 -0.3299
  118OSM    O1112358   3.729   3.625   6.400  0.4270  1.1161 -0.0840
  118OSM    O1212359   3.918   3.607   6.231  0.4178 -0.2578 -0.1750
  118OSM    C1S12360   3.776   3.520   6.479  0.2585 -0.6297  0.3688
  118OSM    H1S12361   3.883   3.494   6.460  0.4862 -0.9330  1.8801
  118OSM    H1T12362   3.717   3.432   6.445  0.7179 -0.5990 -0.5442
  118OSM     NF12363   3.784   3.410   6.691  0.2574 -0.3546  0.1996
  118OSM    HNF12364   3.696   3.366   6.706 -1.9140  2.8520 -1.7986
  118OSM    C2S12365   3.758   3.542   6.629  0.1932 -0.5204  0.5575
  118OSM    H2S12366   3.831   3.620   6.659  0.8947  0.3340 -2.9373
  118OSM    C3S12367   3.615   3.609   6.654  0.3341  0.0895  0.0416
  118OSM    H3S12368   3.540   3.527   6.651  0.4551 -0.0334  0.3098
  118OSM     O312369   3.571   3.720   6.573 -0.0869  0.0763 -0.1787
  118OSM    HO312370   3.621   3.698   6.494  1.7232 -0.2577  0.9934
  118OSM    C4S12371   3.622   3.647   6.803 -0.0043 -0.0186 -0.5178
  118OSM    H4S12372   3.629   3.563   6.874  2.1178  0.3967 -0.1586
  118OSM    C5S12373   3.642   3.774   6.852 -0.5185  0.0945  0.6200
  118OSM    H5S12374   3.643   3.852   6.773 -3.1677 -2.6958 -2.4961
  118OSM    C6S12375   3.650   3.835   6.988 -0.0396 -0.1565  0.5179
  118OSM    H6S12376   3.566   3.907   6.994 -0.3076 -0.5021  0.9139
  118OSM    H6T12377   3.737   3.904   6.996 -2.6420  3.5434 -0.4620
  118OSM    C7S12378   3.635   3.744   7.120  1.0484 -0.3638  0.0545
  118OSM    H7S12379   3.719   3.671   7.129  0.0925 -1.5287 -0.2356
  118OSM    H7T12380   3.539   3.690   7.110  0.9916 -0.1639 -0.4916
  118OSM    C8S12381   3.629   3.833   7.257  0.6851 -0.7600 -0.6173
  118OSM    H8S12382   3.549   3.909   7.245  1.6646  0.8923  2.3749
  118OSM    H8T12383   3.720   3.894   7.275  0.2360 -0.4765  0.8065
  118OSM    C9S12384   3.599   3.750   7.380 -0.7854  0.0125 -0.5434
  118OSM    H9S12385   3.691   3.686   7.384 -0.9331 -0.3481 -2.1473
  118OSM    H9T12386   3.513   3.684   7.356 -2.5610  1.1431  2.3112
  118OSM   C10S12387   3.565   3.838   7.500  0.8411  0.2953 -0.5292
  118OSM   H10S12388   3.470   3.892   7.479 -0.5480 -2.3443 -1.6072
  118OSM   H10T12389   3.638   3.920   7.515  0.6452  0.4123 -0.2129
  118OSM   C11S12390   3.570   3.769   7.638 -0.1035  0.1933 -0.1576
  118OSM   H11S12391   3.670   3.720   7.643  0.3400  1.0941  0.0530
  118OSM   H11T12392   3.497   3.685   7.640  1.6276 -1.3763  1.5740
  118OSM   C12S12393   3.562   3.875   7.752  0.2319 -0.6140  0.3362
  118OSM   H12S12394   3.480   3.942   7.718  2.0924  1.6716  0.1106
  118OSM   H12T12395   3.654   3.937   7.752 -0.1623  0.0050 -0.8735
  118OSM   C13S12396   3.523   3.828   7.891 -0.5916  0.2369 -0.0140
  118OSM   H13S12397   3.598   3.755   7.929  0.2734  1.9682  1.7957
  118OSM   H13T12398   3.422   3.782   7.893  0.3939 -2.2179 -1.7657
  118OSM   C14S12399   3.513   3.939   7.998  0.8682 -0.3788  0.4238
  118OSM   H14S12400   3.467   4.028   7.951 -2.4950 -2.3255 -0.3114
  118OSM   H14T12401   3.614   3.968   8.034  1.1011  0.6890 -1.0090
  118OSM   C15S12402   3.430   3.904   8.122 -0.0947 -0.5356 -0.0807
  118OSM   H15S12403   3.487   3.823   8.173  1.9673  0.7271 -0.2496
  118OSM   H15T12404   3.336   3.864   8.080  2.2283 -2.4866 -4.0346
  118OSM   C16S12405   3.412   4.018   8.223 -0.4416  0.4447  0.0172
  118OSM   H16S12406   3.493   4.093   8.211 -1.1740  1.1968 -0.3388
  118OSM   H16T12407   3.408   3.976   8.326  0.0713  0.1703 -0.0687
  118OSM   C17S12408   3.279   4.089   8.206 -0.0169 -0.7032  0.1807
  118OSM   H17S12409   3.290   4.143   8.110  0.2879  1.2374  1.2478
  118OSM   H17T12410   3.266   4.176   8.274 -1.5912 -1.2231  0.5886
  118OSM   C18S12411   3.158   3.998   8.212 -0.8497 -0.8361  0.3408
  118OSM   H18S12412   3.144   3.923   8.131  0.8686 -0.0800 -0.7137
  118OSM   H18T12413   3.064   4.058   8.209  0.6713  1.6355 -0.7854
  118OSM   H18U12414   3.154   3.953   8.314 -1.1994 -0.7486  0.3705
  118OSM    C1F12415   3.904   3.369   6.717 -0.1642  0.8170  0.3325
  118OSM     OF12416   4.002   3.441   6.684  0.4611 -0.0178 -0.3661
  118OSM    C2F12417   3.912   3.227   6.773 -0.4906  0.2244 -0.0210
  118OSM    H2F12418   3.983   3.161   6.719 -1.3350 -0.7825  0.0693
  118OSM    H2G12419   3.812   3.180   6.779  0.0086 -0.8569  0.0759
  118OSM    C3F12420   3.970   3.235   6.919  0.3773 -0.1969  0.4088
  118OSM    H3F12421   4.050   3.309   6.939  0.9877 -0.8881  0.5680
  118OSM    H3G12422   4.023   3.139   6.935  0.8663 -0.0145 -0.0707
  118OSM    C4F12423   3.854   3.244   7.022 -0.4191  0.2711  0.0584
  118OSM    H4F12424   3.787   3.156   7.009  0.3335 -0.2802 -0.1646
  118OSM    H4G12425   3.791   3.333   6.999 -0.0873  0.0950 -1.6455
  118OSM    C5F12426   3.900   3.239   7.170  0.0589 -0.2568 -0.4200
  118OSM    H5F12427   3.954   3.143   7.179  0.8569  0.2166 -0.0715
  118OSM    H5G12428   3.811   3.243   7.236  0.2457  1.6248 -0.2099
  118OSM    C6F12429   3.976   3.373   7.196 -0.0783  0.0872  0.4432
  118OSM    H6F12430   3.934   3.462   7.145 -1.4342 -2.1351 -2.6306
  118OSM    H6G12431   4.078   3.365   7.154 -0.1373  1.6794 -0.0619
  118OSM    C7F12432   3.968   3.401   7.347 -0.2479 -0.1553  0.0859
  118OSM    H7F12433   3.863   3.427   7.372 -0.2001 -2.1513  2.8053
  118OSM    H7G12434   4.038   3.484   7.370 -0.4103  0.4777 -1.5635
  118OSM    C8F12435   3.997   3.276   7.429  0.1554 -0.0338  1.1195
  118OSM    H8F12436   4.097   3.237   7.398  0.4579  1.8957 -0.5781
  118OSM    H8G12437   3.912   3.206   7.420 -0.7516  1.0342  1.1795
  118OSM    C9F12438   3.996   3.321   7.571 -0.2746 -0.3819 -0.2559
  118OSM    H9F12439   3.907   3.384   7.585 -0.8940 -0.5152 -2.9986
  118OSM   C10F12440   4.083   3.287   7.673 -0.1892  0.0906  0.7811
  118OSM   H10F12441   4.070   3.333   7.773  1.1008  0.1082  0.9569
  118OSM   C11F12442   4.204   3.202   7.664  0.7472 -0.0758 -0.3776
  118OSM   H11F12443   4.292   3.247   7.613  0.1562  0.1035 -1.2619
  118OSM   H11G12444   4.176   3.111   7.606 -0.7824  1.0334 -1.4469
  118OSM   C12F12445   4.244   3.138   7.794  0.0895  0.3501 -0.4756
  118OSM   H12F12446   4.321   3.065   7.758 -0.2477  0.4562 -1.4482
  118OSM   H12G12447   4.170   3.066   7.834 -0.0591 -0.4463 -2.1094
  118OSM   C13F12448   4.304   3.216   7.912 -0.4392  0.0472 -0.1451
  118OSM   H13F12449   4.251   3.313   7.919 -1.7724 -0.3772 -2.9834
  118OSM   H13G12450   4.405   3.254   7.886 -0.9645  2.6476  1.2700
  118OSM   C14F12451   4.304   3.141   8.047  0.0207 -0.2418 -0.5569
  118OSM   H14F12452   4.346   3.041   8.022  2.2045  0.4328  0.2393
  118OSM   H14G12453   4.202   3.122   8.087  0.5540  0.3292  1.1818
  118OSM   C15F12454   4.387   3.201   8.161 -0.1887 -0.2521  0.0770
  118OSM   H15F12455   4.333   3.294   8.189 -0.5069  0.0800 -1.5198
  118OSM   H15G12456   4.484   3.242   8.124 -0.5928  1.2313  0.5827
  118OSM   C16F12457   4.396   3.117   8.289 -0.3190 -0.0353 -0.4379
  118OSM   H16F12458   4.442   3.020   8.262  0.7929  0.7910 -1.7246
  118OSM   H16G12459   4.291   3.097   8.318  0.2945  0.1474  2.1198
  118OSM   C17F12460   4.485   3.175   8.404 -0.2765 -0.1926 -0.5692
  118OSM   H17F12461   4.483   3.285   8.395  0.5120 -0.0131  1.1663
  118OSM   H17G12462   4.591   3.147   8.386  0.1113 -0.0142  1.3003
  118OSM   C18F12463   4.438   3.136   8.547 -0.3178  0.4392  0.1269
  118OSM   H18F12464   4.442   3.026   8.562  1.2819  0.1099 -2.2516
  118OSM   H18G12465   4.332   3.167   8.557  0.2300  2.5302  0.0098
  118OSM   H18H12466   4.489   3.176   8.637  0.1951 -0.7196  0.3769
  119OSM      N12467   6.788   1.714   5.927 -0.1866  0.1531 -0.1129
  119OSM    C1512468   6.718   1.583   5.915  0.0348  0.2980  0.3990
  119OSM   H15A12469   6.740   1.524   6.003  0.8061  0.9727  0.6710
  119OSM   H15B12470   6.754   1.530   5.827 -1.2335  0.4781 -0.2506
  119OSM   H15C12471   6.610   1.591   5.918 -0.1089 -0.4485 -1.4830
  119OSM    C1412472   6.937   1.699   5.926 -0.1116 -0.2085 -0.2395
  119OSM   H14A12473   6.965   1.659   5.830 -1.3734 -0.6794 -0.4325
  119OSM   H14B12474   6.976   1.631   6.000 -0.4806  0.2533  0.3891
  119OSM   H14C12475   6.975   1.798   5.945  1.7188 -1.0946  1.0659
  119OSM    C1312476   6.742   1.807   5.817  0.4357 -0.1368  0.3511
  119OSM   H13A12477   6.795   1.776   5.729  2.7290  2.4135  0.6909
  119OSM   H13B12478   6.769   1.910   5.835  1.6723 -0.2948 -0.5170
  119OSM   H13C12479   6.640   1.800   5.783  0.5387  3.3020 -1.1728
  119OSM    C1212480   6.748   1.793   6.053 -0.8325 -0.4605 -0.1077
  119OSM   H12A12481   6.764   1.725   6.134  3.7084  2.3532  1.7702
  119OSM   H12B12482   6.643   1.821   6.053 -0.6431  0.3360 -0.9875
  119OSM    C1112483   6.821   1.922   6.092 -0.0488  0.5749 -0.1894
  119OSM   H11A12484   6.926   1.888   6.105  0.2933  1.5453 -0.3166
  119OSM   H11B12485   6.784   1.959   6.190  1.4285  0.2703  0.5168
  119OSM      P12486   6.692   2.130   5.994  0.0920  0.2776  0.2596
  119OSM    O1312487   6.726   2.214   5.878 -0.0313 -0.7398  0.0094
  119OSM    O1412488   6.562   2.059   5.999 -0.0948 -0.0276 -0.0277
  119OSM    O1112489   6.725   2.204   6.128  0.4170  0.2016 -0.2302
  119OSM    O1212490   6.813   2.031   5.994  0.1192 -0.0455  0.4716
  119OSM    C1S12491   6.625   2.288   6.195  0.3681  0.9878  0.3908
  119OSM    H1S12492   6.538   2.314   6.131  0.7738 -0.4784 -0.8125
  119OSM    H1T12493   6.663   2.389   6.220 -0.1054  0.9984  1.1133
  119OSM     NF12494   6.505   2.304   6.414  0.8514  0.0173  0.4528
  119OSM    HNF12495   6.540   2.380   6.468  1.4092  1.0501 -1.2723
  119OSM    C2S12496   6.608   2.229   6.342  0.7451 -0.4580  0.0796
  119OSM    H2S12497   6.563   2.128   6.341 -1.6314  0.3650  3.6591
  119OSM    C3S12498   6.744   2.226   6.416 -0.2078  0.2430  0.0893
  119OSM    H3S12499   6.787   2.328   6.430  1.6798 -0.6785  1.5533
  119OSM     O312500   6.854   2.165   6.347  0.1004 -0.2272 -0.0961
  119OSM    HO312501   6.830   2.168   6.254  2.2894  0.7225 -0.6927
  119OSM    C4S12502   6.725   2.171   6.555 -0.6192 -0.2080  0.3288
  119OSM    H4S12503   6.676   2.234   6.630 -1.4227 -2.1593  1.5338
  119OSM    C5S12504   6.761   2.046   6.595 -0.1941 -0.0546  0.2990
  119OSM    H5S12505   6.811   1.986   6.517  0.6364 -1.2808  1.7149
  119OSM    C6S12506   6.737   1.989   6.732  0.1954  0.6020 -0.2769
  119OSM    H6S12507   6.736   1.879   6.722  2.4731  0.5344 -0.2725
  119OSM    H6T12508   6.634   2.010   6.767  0.9563  0.5213  2.2623
  119OSM    C7S12509   6.837   2.013   6.848 -0.3823  0.4647  0.9125
  119OSM    H7S12510   6.863   2.121   6.847 -0.2787  0.4384  0.7372
  119OSM    H7T12511   6.930   1.953   6.835 -0.4317  0.5526  0.1188
  119OSM    C8S12512   6.773   1.986   6.988 -0.5567 -0.1364 -0.1280
  119OSM    H8S12513   6.734   1.882   6.995 -1.3079  0.1468  0.0292
  119OSM    H8T12514   6.683   2.050   7.003 -1.0847 -0.6670 -0.9369
  119OSM    C9S12515   6.864   2.020   7.106  0.0081  0.2039  0.6769
  119OSM    H9S12516   6.886   2.129   7.102 -0.0985  0.2293  0.7787
  119OSM    H9T12517   6.967   1.980   7.094 -0.4340 -0.3356 -1.7814
  119OSM   C10S12518   6.822   1.970   7.244  0.2736 -0.2406  0.0137
  119OSM   H10S12519   6.830   1.859   7.240 -0.2877 -0.2689 -0.6659
  119OSM   H10T12520   6.716   1.998   7.266  0.0614 -0.7330 -0.3468
  119OSM   C11S12521   6.904   2.019   7.361 -0.2300 -0.0249 -0.3905
  119OSM   H11S12522   6.911   2.129   7.374  2.8174 -0.2448  0.7875
  119OSM   H11T12523   7.010   1.987   7.351  0.1888 -0.3361  3.4848
  119OSM   C12S12524   6.867   1.959   7.498  1.1208 -0.6071 -0.5209
  119OSM   H12S12525   6.759   1.972   7.522  1.8164  1.0815  1.9991
  119OSM   H12T12526   6.921   2.012   7.578 -1.8705  0.4343  0.9515
  119OSM   C13S12527   6.902   1.813   7.512 -0.1181 -0.2485  0.0621
  119OSM   H13S12528   7.012   1.817   7.505 -0.0877  0.6322  0.7891
  119OSM   H13T12529   6.859   1.745   7.435 -1.7437  2.0887 -1.2255
  119OSM   C14S12530   6.879   1.764   7.654 -0.2668  0.4214  0.0116
  119OSM   H14S12531   6.914   1.659   7.659  0.2625  0.4401 -2.2799
  119OSM   H14T12532   6.769   1.765   7.669 -0.5901  0.0110 -2.1147
  119OSM   C15S12533   6.958   1.845   7.758  0.5021 -0.4655 -0.0875
  119OSM   H15S12534   6.906   1.940   7.785 -1.5606 -1.3875 -0.6229
  119OSM   H15T12535   7.058   1.868   7.718  0.0784  2.3540  0.2433
  119OSM   C16S12536   6.961   1.770   7.885 -0.8742  0.1848  0.2761
  119OSM   H16S12537   7.009   1.671   7.870  1.3559  0.9798  1.6540
  119OSM   H16T12538   6.859   1.758   7.929  0.1488 -0.6431  2.5770
  119OSM   C17S12539   7.054   1.836   7.990 -0.2419 -0.2267 -0.3604
  119OSM   H17S12540   7.028   1.942   8.010 -0.3399 -0.4597  0.8412
  119OSM   H17T12541   7.157   1.824   7.951 -0.2824 -1.4583 -0.1391
  119OSM   C18S12542   7.058   1.768   8.127  0.1653  0.3675  0.3537
  119OSM   H18S12543   7.115   1.673   8.124  0.3596  0.5109 -0.9193
  119OSM   H18T12544   6.952   1.744   8.151 -0.0997 -0.5781 -1.6046
  119OSM   H18U12545   7.097   1.842   8.201  1.8069 -0.3524  0.2332
  119OSM    C1F12546   6.376   2.292   6.383 -0.3064  0.0419 -0.8097
  119OSM     OF12547   6.335   2.191   6.324 -0.1962 -0.1833 -0.1136
  119OSM    C2F12548   6.282   2.414   6.418 -0.3408  0.6222  0.6941
  119OSM    H2F12549   6.233   2.453   6.326  0.2569  0.3271  0.2393
  119OSM    H2G12550   6.338   2.501   6.460 -2.1342  1.1473  2.1237
  119OSM    C3F12551   6.170   2.360   6.508  0.0046 -1.0677  0.2684
  119OSM    H3F12552   6.212   2.328   6.605  0.7759 -0.1487  0.2497
  119OSM    H3G12553   6.125   2.275   6.452  2.0078 -2.6940  1.0201
  119OSM    C4F12554   6.054   2.457   6.542  0.6780  0.4107  0.4070
  119OSM    H4F12555   5.969   2.397   6.581  0.4441 -0.2635 -1.0705
  119OSM    H4G12556   6.026   2.505   6.446  0.7211  0.9972  0.6788
  119OSM    C5F12557   6.082   2.567   6.643 -0.0091 -0.0384  0.1017
  119OSM    H5F12558   5.986   2.618   6.663 -0.1844 -0.2647 -0.1483
  119OSM    H5G12559   6.157   2.644   6.617 -0.5797  0.0835 -1.2679
  119OSM    C6F12560   6.122   2.513   6.782  0.0470  0.2455  0.0158
  119OSM    H6F12561   6.219   2.463   6.768  0.6633  1.7972 -1.6242
  119OSM    H6G12562   6.046   2.443   6.824  0.7199  0.5065  1.7375
  119OSM    C7F12563   6.142   2.625   6.894  0.3239 -0.4797  0.3319
  119OSM    H7F12564   6.096   2.721   6.864 -1.5053 -1.2967  0.3921
  119OSM    H7G12565   6.252   2.643   6.895  0.3647 -0.6767 -0.1596
  119OSM    C8F12566   6.097   2.577   7.032  0.6038  0.4944 -0.0038
  119OSM    H8F12567   6.117   2.667   7.095 -1.1189  0.3111  0.8429
  119OSM    H8G12568   6.161   2.497   7.075 -1.1154 -1.5675 -1.1193
  119OSM    C9F12569   5.952   2.536   7.043  0.1504 -0.2095  0.7575
  119OSM    H9F12570   5.898   2.538   6.948  0.2557 -1.1260  0.6676
  119OSM   C10F12571   5.906   2.475   7.152 -0.3711 -0.2288  0.0655
  119OSM   H10F12572   5.806   2.430   7.153 -0.5748  0.1953 -0.5457
  119OSM   C11F12573   5.998   2.457   7.271 -0.5910  0.0335 -1.0183
  119OSM   H11F12574   6.062   2.544   7.295  0.1011 -0.4447 -1.0827
  119OSM   H11G12575   6.074   2.378   7.249  0.7534  0.5579  1.4277
  119OSM   C12F12576   5.926   2.409   7.399 -0.5801 -0.1460  0.7385
  119OSM   H12F12577   5.901   2.300   7.395  1.0313 -0.5502 -3.2071
  119OSM   H12G12578   5.846   2.480   7.426 -1.0980  0.4277 -1.9900
  119OSM   C13F12579   6.013   2.416   7.527 -0.1827  0.2875  0.4462
  119OSM   H13F12580   6.039   2.521   7.551  0.7677 -0.5134  3.1894
  119OSM   H13G12581   6.109   2.363   7.513 -0.3812 -0.0902  0.5004
  119OSM   C14F12582   5.929   2.365   7.650  0.2458  0.6999  0.1109
  119OSM   H14F12583   5.943   2.255   7.645  2.2307  0.8621  0.8379
  119OSM   H14G12584   5.822   2.393   7.642 -0.5154 -2.3937 -3.1405
  119OSM   C15F12585   5.986   2.409   7.785 -0.1146  0.0843 -0.2505
  119OSM   H15F12586   5.951   2.509   7.818 -0.5794  0.0885 -0.7522
  119OSM   H15G12587   6.095   2.424   7.766 -0.2920  1.5539 -0.2109
  119OSM   C16F12588   5.966   2.302   7.899  0.0955 -0.0580 -0.0252
  119OSM   H16F12589   5.978   2.200   7.856  0.6421 -0.4214  0.9588
  119OSM   H16G12590   5.862   2.328   7.929  0.8348 -0.4119  3.1894
  119OSM   C17F12591   6.065   2.313   8.012  0.6998  0.2932  0.1564
  119OSM   H17F12592   6.165   2.276   7.980  0.2186 -2.3635  1.4668
  119OSM   H17G12593   6.030   2.250   8.096  0.7043 -0.6411 -0.5313
  119OSM   C18F12594   6.086   2.455   8.066 -0.0062  0.4386 -0.3459
  119OSM   H18F12595   6.151   2.450   8.157  0.1892 -1.4348 -0.5455
  119OSM   H18G12596   5.995   2.509   8.098  0.5144  1.8862 -1.2012
  119OSM   H18H12597   6.128   2.523   7.988  1.5363  0.3586  0.3638
  120OSM      N12598   2.652   0.201   5.982  0.2766 -0.4790 -0.0615
  120OSM    C1512599   2.544   0.252   6.062 -0.2620 -0.2163 -0.1343
  120OSM   H15A12600   2.496   0.175   6.122 -0.1214  0.3175  0.6791
  120OSM   H15B12601   2.476   0.311   6.003  1.8980  1.2053 -1.2985
  120OSM   H15C12602   2.583   0.325   6.131  2.1062 -1.7171  0.2429
  120OSM    C1412603   2.603   0.110   5.881  0.2458 -0.4255  0.4134
  120OSM   H14A12604   2.522   0.147   5.820  1.1061 -0.9046 -1.0702
  120OSM   H14B12605   2.569   0.015   5.921 -1.8823 -0.9491 -2.3331
  120OSM   H14C12606   2.683   0.071   5.820  0.5975  0.2943  0.4053
  120OSM    C1312607   2.718   0.315   5.918 -0.0733 -1.0854  0.6511
  120OSM   H13A12608   2.816   0.293   5.880  0.5677  3.1464 -0.6914
  120OSM   H13B12609   2.722   0.399   5.986 -3.8346 -0.1324 -0.0664
  120OSM   H13C12610   2.660   0.351   5.834  0.0171  1.3095  1.5324
  120OSM    C1212611   2.768   0.141   6.071  0.1907  0.8716  0.7576
  120OSM   H12A12612   2.828   0.213   6.124 -0.5471  0.7284  1.8150
  120OSM   H12B12613   2.835   0.096   5.999 -1.6970 -0.4608 -0.2571
  120OSM    C1112614   2.733   0.028   6.180  0.2599  0.4950 -0.8046
  120OSM   H11A12615   2.674   0.086   6.253 -0.5270  0.2099 -1.1938
  120OSM   H11B12616   2.832  -0.004   6.220  0.6889 -0.6963 -2.6602
  120OSM      P12617   2.594  -0.180   6.229  0.0647 -0.3405  0.2540
  120OSM    O1312618   2.451  -0.148   6.233 -0.1252 -0.0858 -0.0096
  120OSM    O1412619   2.624  -0.320   6.192 -0.8158 -0.1172  0.1484
  120OSM    O1112620   2.653  -0.149   6.372  0.0245  0.5189  0.1716
  120OSM    O1212621   2.667  -0.087   6.129  0.6120 -0.3241 -0.4269
  120OSM    C1S12622   2.741  -0.237   6.439 -0.0767 -0.9408  0.0282
  120OSM    H1S12623   2.837  -0.245   6.384 -1.7976 -1.7001 -3.0957
  120OSM    H1T12624   2.697  -0.338   6.445 -1.1327 -0.4860  0.2342
  120OSM     NF12625   2.852  -0.270   6.667 -0.2607 -0.0768  0.4379
  120OSM    HNF12626   2.834  -0.295   6.762  3.2080  0.8018  1.4664
  120OSM    C2S12627   2.772  -0.182   6.585  0.2431  0.2503  0.3957
  120OSM    H2S12628   2.829  -0.088   6.573  0.7927 -0.0931  0.2829
  120OSM    C3S12629   2.641  -0.153   6.661  0.0526  0.2408 -0.6648
  120OSM    H3S12630   2.575  -0.242   6.674 -1.1938  1.4385  2.1458
  120OSM     O312631   2.554  -0.055   6.599 -0.2749 -0.1674  0.1521
  120OSM    HO312632   2.582  -0.067   6.508  2.7968  0.6306  0.8698
  120OSM    C4S12633   2.666  -0.103   6.808  0.1190  0.9162  0.8553
  120OSM    H4S12634   2.647  -0.179   6.886 -0.5658 -0.9677 -1.0364
  120OSM    C5S12635   2.702   0.026   6.840 -0.7045  0.0233  0.4209
  120OSM    H5S12636   2.702   0.108   6.767 -1.8516 -0.2314  0.1209
  120OSM    C6S12637   2.725   0.075   6.983 -0.2421 -0.3238  0.4638
  120OSM    H6S12638   2.681   0.176   7.001 -0.1495 -0.2073  0.0527
  120OSM    H6T12639   2.835   0.089   6.993 -0.2355  0.5020 -0.5655
  120OSM    C7S12640   2.701  -0.027   7.101  0.4097 -0.9538 -0.3247
  120OSM    H7S12641   2.748  -0.122   7.067  1.8037 -0.3171 -0.2133
  120OSM    H7T12642   2.591  -0.033   7.120  0.3617  2.6385  1.2461
  120OSM    C8S12643   2.762   0.031   7.235 -0.0006  0.1940  0.2343
  120OSM    H8S12644   2.679   0.059   7.304  1.3609  0.5767  1.8022
  120OSM    H8T12645   2.819   0.125   7.216 -2.4499  1.9785  1.2168
  120OSM    C9S12646   2.837  -0.084   7.312  0.3770 -0.1719 -0.1918
  120OSM    H9S12647   2.895  -0.034   7.393  0.0576 -0.7418  0.3903
  120OSM    H9T12648   2.908  -0.124   7.237  1.5724 -2.0112  1.8135
  120OSM   C10S12649   2.743  -0.197   7.365 -0.3546  0.6721 -0.0416
  120OSM   H10S12650   2.738  -0.263   7.275 -1.6171  0.7211 -0.0357
  120OSM   H10T12651   2.645  -0.161   7.403  0.7104  0.4883  3.1934
  120OSM   C11S12652   2.805  -0.275   7.476 -0.0467  0.0179  0.0357
  120OSM   H11S12653   2.915  -0.290   7.466  0.0248 -1.4809  2.3813
  120OSM   H11T12654   2.757  -0.373   7.492  0.5217 -0.4225 -0.8802
  120OSM   C12S12655   2.783  -0.198   7.611  0.2376 -0.3428 -0.3765
  120OSM   H12S12656   2.673  -0.191   7.627  0.4798  2.3017  0.7336
  120OSM   H12T12657   2.821  -0.093   7.618 -2.6084  0.7425 -0.0091
  120OSM   C13S12658   2.848  -0.268   7.723 -0.2367  0.1430 -0.1923
  120OSM   H13S12659   2.950  -0.302   7.697  0.1787  1.5426 -0.5064
  120OSM   H13T12660   2.786  -0.359   7.737 -0.9294  0.3353 -1.7860
  120OSM   C14S12661   2.861  -0.192   7.861 -0.0501  0.1893  0.3096
  120OSM   H14S12662   2.759  -0.185   7.904 -1.0882 -1.4844 -1.7069
  120OSM   H14T12663   2.909  -0.091   7.857  0.7468 -0.1045  1.6113
  120OSM   C15S12664   2.952  -0.276   7.953 -0.0566  0.2912 -0.5744
  120OSM   H15S12665   3.051  -0.292   7.905 -0.1677 -2.4760 -0.0329
  120OSM   H15T12666   2.931  -0.385   7.959  0.0147  0.2632 -0.7994
  120OSM   C16S12667   2.969  -0.236   8.104 -0.4391 -0.4944  0.7572
  120OSM   H16S12668   2.994  -0.127   8.108 -0.2768 -0.5161  0.4248
  120OSM   H16T12669   3.064  -0.283   8.138  1.9232  2.7071 -0.7853
  120OSM   C17S12670   2.851  -0.285   8.195 -0.0083  0.1099  0.0699
  120OSM   H17S12671   2.761  -0.224   8.171  0.5353  0.4951 -1.0446
  120OSM   H17T12672   2.884  -0.253   8.296  1.0061 -0.4690 -0.0722
  120OSM   C18S12673   2.811  -0.432   8.182  0.2701 -0.1398  0.1110
  120OSM   H18S12674   2.754  -0.452   8.275 -1.0810  2.0524 -0.1790
  120OSM   H18T12675   2.908  -0.487   8.183  0.9633  1.0385  1.4914
  120OSM   H18U12676   2.755  -0.452   8.088  1.1129 -0.8800 -0.2444
  120OSM    C1F12677   2.971  -0.324   6.634  0.3011  0.8546 -0.4645
  120OSM     OF12678   3.012  -0.344   6.522 -0.6898  0.2438  0.2270
  120OSM    C2F12679   3.062  -0.371   6.739 -0.1531 -0.4705  0.4361
  120OSM    H2F12680   3.153  -0.396   6.680 -0.6804  0.3900 -0.7788
  120OSM    H2G12681   3.030  -0.472   6.773 -2.4731  0.7322  2.1275
  120OSM    C3F12682   3.097  -0.273   6.852  0.2290  0.1761 -0.2511
  120OSM    H3F12683   2.994  -0.248   6.886 -0.3700 -1.9694 -0.3912
  120OSM    H3G12684   3.133  -0.177   6.807 -0.7698  0.9801  0.6129
  120OSM    C4F12685   3.186  -0.327   6.969  0.3423 -0.0686 -0.0480
  120OSM    H4F12686   3.293  -0.323   6.940  0.2680  0.9167 -0.2246
  120OSM    H4G12687   3.161  -0.434   6.989 -0.3443  0.1987  0.5849
  120OSM    C5F12688   3.166  -0.251   7.105 -0.0128  0.3041 -0.0744
  120OSM    H5F12689   3.059  -0.224   7.120  0.2937  1.9303 -0.5547
  120OSM    H5G12690   3.218  -0.153   7.097  0.9410 -0.3161 -1.9789
  120OSM    C6F12691   3.225  -0.324   7.222 -0.4920  0.4107 -0.2071
  120OSM    H6F12692   3.331  -0.348   7.201  0.2850  3.2667  0.1269
  120OSM    H6G12693   3.164  -0.417   7.219 -1.6255  0.9786  2.4018
  120OSM    C7F12694   3.193  -0.256   7.352 -0.3766 -0.0971 -0.5764
  120OSM    H7F12695   3.193  -0.332   7.433 -0.5721 -0.2628 -0.7342
  120OSM    H7G12696   3.096  -0.203   7.353 -0.6247 -0.4213 -3.1051
  120OSM    C8F12697   3.318  -0.169   7.395  0.6061  0.2396 -0.7135
  120OSM    H8F12698   3.274  -0.101   7.471  0.3268  0.9019 -1.4666
  120OSM    H8G12699   3.345  -0.110   7.305  1.3146 -0.1589 -0.7735
  120OSM    C9F12700   3.439  -0.255   7.446  0.1332 -0.1780 -0.0273
  120OSM    H9F12701   3.509  -0.293   7.371  0.2225  0.8816 -0.4970
  120OSM   C10F12702   3.460  -0.283   7.572  0.0653  0.6786  0.2417
  120OSM   H10F12703   3.543  -0.352   7.593  0.4257  1.2842  0.8486
  120OSM   C11F12704   3.372  -0.253   7.690 -0.4343 -0.4864 -0.1655
  120OSM   H11F12705   3.355  -0.351   7.740 -2.0340 -0.0794  0.1338
  120OSM   H11G12706   3.282  -0.194   7.660 -0.0483 -0.6070 -1.6207
  120OSM   C12F12707   3.437  -0.172   7.803 -0.9168 -1.1270  0.8692
  120OSM   H12F12708   3.445  -0.065   7.774 -1.8434 -0.8446  1.6060
  120OSM   H12G12709   3.538  -0.207   7.831 -0.4791 -1.6622 -1.1974
  120OSM   C13F12710   3.356  -0.161   7.934  0.0916  0.0913  0.1828
  120OSM   H13F12711   3.299  -0.255   7.951 -0.0788 -0.0688 -1.2191
  120OSM   H13G12712   3.278  -0.083   7.922  1.1107  1.1175  0.1210
  120OSM   C14F12713   3.440  -0.145   8.063  0.2083 -0.0162  0.0614
  120OSM   H14F12714   3.498  -0.239   8.070  0.0779 -0.2377 -1.4741
  120OSM   H14G12715   3.376  -0.148   8.153  1.7953 -0.2809  1.2386
  120OSM   C15F12716   3.532  -0.021   8.053 -0.2309 -0.0225 -0.3535
  120OSM   H15F12717   3.467   0.057   8.008  0.1294  1.5425  1.6811
  120OSM   H15G12718   3.610  -0.030   7.975 -0.0454  0.8967 -0.2794
  120OSM   C16F12719   3.592   0.019   8.184 -0.1866  0.0878 -0.6250
  120OSM   H16F12720   3.635   0.120   8.166 -0.2172  0.4297  1.0491
  120OSM   H16G12721   3.680  -0.038   8.218 -0.5837 -0.1517  0.0066
  120OSM   C17F12722   3.497   0.029   8.303 -0.4740  0.4363  0.1420
  120OSM   H17F12723   3.476  -0.069   8.350 -1.4494  1.6422  2.3628
  120OSM   H17G12724   3.392   0.051   8.273 -0.8152  2.3292  2.4052
  120OSM   C18F12725   3.536   0.135   8.404  0.5584 -0.5188 -0.8637
  120OSM   H18F12726   3.644   0.124   8.428  0.6855  0.7596 -0.8290
  120OSM   H18G12727   3.492   0.121   8.505  2.4727 -2.5199 -0.2317
  120OSM   H18H12728   3.505   0.235   8.368 -0.9341 -1.2688 -1.7704
  121OSM      N12729   5.110   1.630   5.878 -0.6233  0.5173 -1.1178
  121OSM    C1512730   5.091   1.773   5.897 -0.2673  0.2268  0.8064
  121OSM   H15A12731   5.080   1.803   6.000 -1.4106  0.1156  0.7305
  121OSM   H15B12732   4.997   1.794   5.846 -1.3699 -0.7669  2.3464
  121OSM   H15C12733   5.171   1.825   5.846  1.4056 -2.8848  0.0556
  121OSM    C1412734   4.995   1.559   5.946  0.1468 -0.3607 -0.4425
  121OSM   H14A12735   4.907   1.575   5.885  1.4295  0.0795 -2.2364
  121OSM   H14B12736   4.977   1.591   6.048  1.0134 -0.4219 -0.2625
  121OSM   H14C12737   5.008   1.453   5.962 -2.2332 -0.5110  1.0970
  121OSM    C1312738   5.120   1.592   5.736  0.3710 -0.0802  0.1511
  121OSM   H13A12739   5.186   1.658   5.681  0.7047 -1.0478 -0.6238
  121OSM   H13B12740   5.027   1.610   5.683  1.8121 -0.0582 -2.5874
  121OSM   H13C12741   5.154   1.492   5.717 -0.3679 -0.4383  0.6821
  121OSM    C1212742   5.241   1.582   5.949  0.2180 -0.1846 -0.7347
  121OSM   H12A12743   5.238   1.618   6.051  0.1959 -0.6111 -0.5833
  121OSM   H12B12744   5.327   1.628   5.902  1.8081 -0.8781  1.3635
  121OSM    C1112745   5.277   1.437   5.954  0.9145 -0.9360 -0.5231
  121OSM   H11A12746   5.378   1.430   6.000  1.3213  0.4334 -1.1618
  121OSM   H11B12747   5.273   1.403   5.849  0.3741 -0.5603 -0.6298
  121OSM      P12748   5.195   1.219   6.071 -0.6447 -0.1511 -0.4842
  121OSM    O1312749   5.070   1.154   6.028  0.1885  0.0463  0.0265
  121OSM    O1412750   5.317   1.174   6.000 -0.2155 -0.6324  0.0669
  121OSM    O1112751   5.213   1.217   6.221  0.5170 -0.1855  0.2062
  121OSM    O1212752   5.186   1.374   6.047  0.0079 -0.6784  0.6245
  121OSM    C1S12753   5.289   1.307   6.304  0.4739  0.1461  0.4588
  121OSM    H1S12754   5.289   1.407   6.257 -2.3228 -1.0005 -2.4215
  121OSM    H1T12755   5.395   1.276   6.304  0.1375 -1.1511  2.2933
  121OSM     NF12756   5.330   1.400   6.529  0.6920 -0.0547 -0.8337
  121OSM    HNF12757   5.385   1.340   6.586  1.8479  1.8472  0.1553
  121OSM    C2S12758   5.239   1.328   6.446  0.0988  1.2281 -0.1785
  121OSM    H2S12759   5.140   1.377   6.456 -0.2806  0.1270  2.0786
  121OSM    C3S12760   5.205   1.195   6.513  0.0836 -0.1264 -0.4603
  121OSM    H3S12761   5.299   1.138   6.530 -0.1322 -0.0144  1.2286
  121OSM     O312762   5.114   1.114   6.439  0.3967  0.2352 -0.9451
  121OSM    HO312763   5.124   1.154   6.352 -1.3563 -0.2288 -1.4025
  121OSM    C4S12764   5.155   1.207   6.655 -0.6197  0.1676  0.2533
  121OSM    H4S12765   5.220   1.169   6.735  0.0678 -2.6720 -1.5101
  121OSM    C5S12766   5.035   1.259   6.691 -0.7204 -0.1364 -0.1921
  121OSM    H5S12767   4.977   1.309   6.612 -0.0997  0.0232 -0.5527
  121OSM    C6S12768   4.974   1.275   6.829 -0.9039 -0.3008  0.2689
  121OSM    H6S12769   5.032   1.216   6.903 -0.6225 -0.4044 -0.0320
  121OSM    H6T12770   4.870   1.239   6.835 -1.3280  0.6462 -0.9045
  121OSM    C7S12771   4.984   1.422   6.865 -0.1793 -0.5502 -0.6419
  121OSM    H7S12772   4.937   1.488   6.788 -0.1514 -1.9820 -1.9396
  121OSM    H7T12773   5.090   1.452   6.874  0.4534 -1.5372 -3.6417
  121OSM    C8S12774   4.910   1.444   6.993  0.4821 -0.4783 -0.7046
  121OSM    H8S12775   4.813   1.391   6.990 -1.8430  3.2383  1.1415
  121OSM    H8T12776   4.891   1.553   7.008 -0.0692 -0.4878 -1.2917
  121OSM    C9S12777   4.981   1.396   7.120 -0.2240 -0.3554  0.0061
  121OSM    H9S12778   5.078   1.451   7.127 -0.1682 -0.6318  3.1281
  121OSM    H9T12779   4.997   1.287   7.110  1.7776 -0.2449  1.2551
  121OSM   C10S12780   4.906   1.413   7.254  0.4827 -0.0836 -0.2344
  121OSM   H10S12781   4.826   1.337   7.242 -0.2559  1.1164 -4.1424
  121OSM   H10T12782   4.856   1.512   7.256 -2.8907 -1.6478 -0.6705
  121OSM   C11S12783   4.997   1.364   7.363 -0.3503 -0.4267  0.0345
  121OSM   H11S12784   5.087   1.429   7.350 -0.3080 -0.5979 -0.5562
  121OSM   H11T12785   5.017   1.258   7.341 -2.6199 -0.9112  0.0473
  121OSM   C12S12786   4.938   1.391   7.497 -0.2389  0.1639 -0.6437
  121OSM   H12S12787   4.844   1.332   7.488 -0.5782  0.5275  0.3347
  121OSM   H12T12788   4.929   1.501   7.503 -1.1719  0.0299  0.8699
  121OSM   C13S12789   5.024   1.327   7.603 -0.1035 -0.2025 -0.1403
  121OSM   H13S12790   5.124   1.376   7.601 -0.2003 -0.0085 -2.1832
  121OSM   H13T12791   5.035   1.218   7.584  1.7992  0.2790 -2.1358
  121OSM   C14S12792   4.969   1.346   7.741 -0.2139  0.6348 -0.1498
  121OSM   H14S12793   4.861   1.323   7.754  0.1154 -0.0385  1.7338
  121OSM   H14T12794   4.993   1.450   7.771 -1.4031  1.0217 -0.4911
  121OSM   C15S12795   5.039   1.256   7.842  0.9716 -0.4142 -0.5365
  121OSM   H15S12796   5.144   1.228   7.820  1.2812 -0.7165  1.1556
  121OSM   H15T12797   5.001   1.152   7.830  2.7171 -1.2185  0.4816
  121OSM   C16S12798   5.009   1.291   7.989  0.3021 -0.3954  0.0099
  121OSM   H16S12799   4.902   1.312   8.010  0.2242  1.0593 -1.6026
  121OSM   H16T12800   5.050   1.388   8.025 -1.4204  1.4828 -2.7193
  121OSM   C17S12801   5.053   1.177   8.087  0.1539 -1.0067  0.4333
  121OSM   H17S12802   5.162   1.179   8.109 -0.0985  0.1754  1.6828
  121OSM   H17T12803   5.023   1.077   8.047  1.2395 -1.5576  0.9474
  121OSM   C18S12804   4.972   1.201   8.218 -0.5509  0.0283 -0.6661
  121OSM   H18S12805   5.003   1.124   8.291  1.7603  0.9558 -0.6055
  121OSM   H18T12806   4.863   1.189   8.197 -1.0287 -0.4170  1.7297
  121OSM   H18U12807   4.996   1.304   8.251  0.7927  0.1552 -1.9309
  121OSM    C1F12808   5.358   1.525   6.504 -0.0780  0.0411  0.0596
  121OSM     OF12809   5.286   1.595   6.437 -0.4700  0.2960  0.3011
  121OSM    C2F12810   5.478   1.574   6.576 -0.3235  0.3175  0.2123
  121OSM    H2F12811   5.562   1.549   6.507 -1.5032 -1.3945 -0.6746
  121OSM    H2G12812   5.492   1.508   6.665 -0.9269 -0.9419 -0.5943
  121OSM    C3F12813   5.468   1.713   6.624 -0.4234 -0.1050  0.5111
  121OSM    H3F12814   5.387   1.716   6.699  0.0710 -1.1998  1.1165
  121OSM    H3G12815   5.444   1.788   6.546 -0.4713 -0.3688  0.2697
  121OSM    C4F12816   5.592   1.772   6.689  0.1074  0.2450  0.3457
  121OSM    H4F12817   5.571   1.881   6.693 -0.2346  0.1884  0.1877
  121OSM    H4G12818   5.682   1.758   6.625 -1.0593  0.7808 -1.5002
  121OSM    C5F12819   5.632   1.714   6.827 -0.1767  0.2505  0.3905
  121OSM    H5F12820   5.724   1.772   6.849 -0.0164  0.1446 -0.0013
  121OSM    H5G12821   5.666   1.608   6.831  0.0007  0.3230  0.9100
  121OSM    C6F12822   5.522   1.738   6.931 -0.0602 -0.2907 -0.1146
  121OSM    H6F12823   5.427   1.683   6.914 -0.8475  0.9065  0.2880
  121OSM    H6G12824   5.497   1.845   6.919 -0.7926 -0.4810 -0.3195
  121OSM    C7F12825   5.570   1.714   7.075 -0.5391  0.1357  0.1775
  121OSM    H7F12826   5.677   1.742   7.088 -0.1981 -1.4534  0.9992
  121OSM    H7G12827   5.566   1.605   7.095 -0.1533  0.3326  1.4343
  121OSM    C8F12828   5.480   1.790   7.181  0.1147 -0.0244  0.5618
  121OSM    H8F12829   5.381   1.740   7.192 -0.8376  1.6710  0.0347
  121OSM    H8G12830   5.466   1.896   7.149 -1.7392 -0.5576 -0.5891
  121OSM    C9F12831   5.549   1.804   7.312 -1.0525  0.0735  1.2730
  121OSM    H9F12832   5.630   1.879   7.306 -1.9427  0.9835  0.4432
  121OSM   C10F12833   5.509   1.755   7.425 -0.8245 -0.0478 -0.0597
  121OSM   H10F12834   5.577   1.777   7.509 -0.3273  0.8996 -0.6862
  121OSM   C11F12835   5.388   1.676   7.464 -0.1119  0.0479 -0.0064
  121OSM   H11F12836   5.419   1.574   7.497  1.5057  0.7064  0.6033
  121OSM   H11G12837   5.317   1.653   7.382  2.8689 -0.1272 -2.6871
  121OSM   C12F12838   5.315   1.732   7.587 -0.8952 -0.2114  0.2460
  121OSM   H12F12839   5.215   1.685   7.596  0.4071 -2.9565  1.6851
  121OSM   H12G12840   5.300   1.842   7.582  2.0186  0.2257 -0.8382
  121OSM   C13F12841   5.395   1.700   7.715 -0.0067 -0.7779 -0.1541
  121OSM   H13F12842   5.490   1.757   7.714 -1.0379  1.0598  0.7720
  121OSM   H13G12843   5.415   1.590   7.712 -2.5300 -1.2907 -2.1379
  121OSM   C14F12844   5.322   1.731   7.846 -0.5522 -0.1134  0.5857
  121OSM   H14F12845   5.225   1.676   7.843 -0.0513 -1.0938  1.6431
  121OSM   H14G12846   5.293   1.838   7.845 -0.5713 -0.1201  0.4392
  121OSM   C15F12847   5.409   1.685   7.968 -0.2987  0.7072  0.8084
  121OSM   H15F12848   5.507   1.738   7.967 -0.0850  0.3744 -1.4111
  121OSM   H15G12849   5.422   1.578   7.941  0.1488  1.1294 -0.7570
  121OSM   C16F12850   5.344   1.701   8.106 -0.5390 -0.2124 -0.0511
  121OSM   H16F12851   5.241   1.658   8.099 -0.2043 -1.3491  1.4858
  121OSM   H16G12852   5.349   1.811   8.123 -0.8169 -0.2748  0.4359
  121OSM   C17F12853   5.397   1.631   8.232 -0.1774 -0.1497  0.4099
  121OSM   H17F12854   5.316   1.644   8.307  0.2050  1.9851  0.5169
  121OSM   H17G12855   5.492   1.679   8.265  0.0667  0.1439 -0.6694
  121OSM   C18F12856   5.419   1.480   8.228  0.2359  0.4947  0.1455
  121OSM   H18F12857   5.323   1.426   8.216 -0.1517  0.9003  1.3406
  121OSM   H18G12858   5.469   1.453   8.323  1.3513  1.6396 -0.0741
  121OSM   H18H12859   5.488   1.453   8.144 -0.0636  4.0587 -1.4282
  122OSM      N12860   3.375   4.074   5.803  0.1626  0.6771  0.3478
  122OSM    C1512861   3.274   4.122   5.701  0.6483  0.6038  0.4477
  122OSM   H15A12862   3.257   4.228   5.712  0.2334  0.6304 -0.3573
  122OSM   H15B12863   3.182   4.068   5.715  1.7127 -1.3098  0.3551
  122OSM   H15C12864   3.303   4.106   5.598 -0.2246  1.8585 -0.0258
  122OSM    C1412865   3.312   4.084   5.930  0.9444 -0.1269  0.5110
  122OSM   H14A12866   3.246   3.999   5.943  1.4116 -0.2456  2.5014
  122OSM   H14B12867   3.252   4.172   5.948  0.2582  0.0361 -2.1322
  122OSM   H14C12868   3.386   4.083   6.008  1.0322  1.3246  0.4632
  122OSM    C1312869   3.407   3.929   5.778 -0.4736 -0.7085  0.1210
  122OSM   H13A12870   3.329   3.857   5.799 -0.1614 -0.6282  1.6406
  122OSM   H13B12871   3.478   3.900   5.854 -2.3027 -1.8806  1.4734
  122OSM   H13C12872   3.444   3.912   5.677  1.4019 -0.8219  0.7867
  122OSM    C1212873   3.497   4.169   5.783  0.1693 -0.1674  0.2227
  122OSM   H12A12874   3.461   4.267   5.811  0.4709 -0.6918  2.6476
  122OSM   H12B12875   3.521   4.169   5.677  2.0284  0.1117  0.6103
  122OSM    C1112876   3.623   4.133   5.869  0.3633  0.2732 -0.2619
  122OSM   H11A12877   3.700   4.210   5.850  1.1846 -0.1112  1.3551
  122OSM   H11B12878   3.670   4.033   5.851 -2.2155 -1.6272  2.5353
  122OSM      P12879   3.639   4.249   6.103  0.1949  0.0325  0.2453
  122OSM    O1312880   3.786   4.262   6.095  0.1379 -0.2185  0.2798
  122OSM    O1412881   3.559   4.371   6.070 -0.5063  0.2483 -0.1585
  122OSM    O1112882   3.608   4.197   6.248  0.3803 -0.0466  0.0313
  122OSM    O1212883   3.588   4.134   6.009 -0.4854  0.2076 -0.2656
  122OSM    C1S12884   3.662   4.072   6.305 -0.7782 -0.0352  0.6615
  122OSM    H1S12885   3.772   4.088   6.307 -0.8169  0.8174 -1.3161
  122OSM    H1T12886   3.631   3.977   6.254  0.8250 -0.0751 -0.3155
  122OSM     NF12887   3.716   3.980   6.535 -0.1747 -1.0686  0.4503
  122OSM    HNF12888   3.693   3.885   6.558  1.5914 -1.1999  1.9382
  122OSM    C2S12889   3.623   4.062   6.454 -0.0495  0.0742  0.3408
  122OSM    H2S12890   3.640   4.166   6.489  0.5900 -0.0778  0.5051
  122OSM    C3S12891   3.473   4.018   6.459 -0.0165 -0.1982  0.9008
  122OSM    H3S12892   3.455   3.923   6.405  0.0977  0.6462 -0.6989
  122OSM     O312893   3.386   4.115   6.393 -0.4744  0.4530 -0.1395
  122OSM    HO312894   3.448   4.171   6.345 -1.7673  0.9256 -1.3095
  122OSM    C4S12895   3.427   3.997   6.599 -0.1001  0.0089 -0.4124
  122OSM    H4S12896   3.410   3.894   6.631  0.5901 -0.1788 -0.6330
  122OSM    C5S12897   3.388   4.095   6.682  0.5715  0.3565  0.3731
  122OSM    H5S12898   3.393   4.201   6.653  1.1987 -0.4554 -2.8605
  122OSM    C6S12899   3.334   4.070   6.819 -0.1376 -0.3491 -0.6539
  122OSM    H6S12900   3.349   3.961   6.832 -1.0314 -0.5070 -0.8603
  122OSM    H6T12901   3.225   4.092   6.821  0.4230  2.7899  1.2632
  122OSM    C7S12902   3.406   4.149   6.932  0.2776  0.0539 -0.3622
  122OSM    H7S12903   3.389   4.253   6.898 -1.5485  0.4991  1.6681
  122OSM    H7T12904   3.516   4.145   6.942  0.2038  0.0136  0.6147
  122OSM    C8S12905   3.351   4.130   7.074 -0.1659  0.2014 -0.4852
  122OSM    H8S12906   3.376   4.026   7.104 -0.3762 -0.0010 -1.0037
  122OSM    H8T12907   3.242   4.144   7.093  0.0142  0.8029  0.1778
  122OSM    C9S12908   3.422   4.220   7.175  0.5274 -0.1500  0.0630
  122OSM    H9S12909   3.406   4.325   7.142 -1.8189 -0.2641  0.6758
  122OSM    H9T12910   3.531   4.196   7.175  0.7475  0.7628  0.9402
  122OSM   C10S12911   3.371   4.195   7.316 -0.3035 -0.6820 -0.4951
  122OSM   H10S12912   3.382   4.086   7.338  1.3526 -0.9203 -2.2772
  122OSM   H10T12913   3.267   4.236   7.311  1.1618  3.3407 -2.0240
  122OSM   C11S12914   3.438   4.270   7.424 -0.3255 -0.3175 -0.0826
  122OSM   H11S12915   3.433   4.381   7.416  3.7275  0.1002  0.9939
  122OSM   H11T12916   3.548   4.253   7.428 -0.5508 -1.7508  0.7199
  122OSM   C12S12917   3.378   4.244   7.562  0.4482 -0.1840  0.1436
  122OSM   H12S12918   3.346   4.138   7.575 -0.1128  0.2310  2.5616
  122OSM   H12T12919   3.288   4.305   7.585 -0.2642 -0.3375 -2.0392
  122OSM   C13S12920   3.480   4.266   7.666  0.0822 -0.5644  0.2497
  122OSM   H13S12921   3.521   4.369   7.659  1.7227 -1.1149  1.2356
  122OSM   H13T12922   3.566   4.198   7.653  1.0503  0.4107  1.2749
  122OSM   C14S12923   3.414   4.246   7.804  0.3986 -0.0578  0.3277
  122OSM   H14S12924   3.492   4.233   7.882 -0.3050  2.3509  1.5063
  122OSM   H14T12925   3.351   4.154   7.802 -0.2250  0.3074  2.0595
  122OSM   C15S12926   3.321   4.356   7.850 -0.0157 -0.4250  0.2057
  122OSM   H15S12927   3.275   4.317   7.943 -0.4459  1.9804  1.0469
  122OSM   H15T12928   3.232   4.374   7.786 -1.0658  0.0811  1.7519
  122OSM   C16S12929   3.383   4.486   7.897 -0.1211  0.4346  0.0382
  122OSM   H16S12930   3.423   4.543   7.810  1.8954 -0.9226  0.0258
  122OSM   H16T12931   3.463   4.484   7.973 -0.8443 -0.2961  0.8004
  122OSM   C17S12932   3.268   4.563   7.962 -0.0225  0.0220 -0.2210
  122OSM   H17S12933   3.251   4.522   8.064  0.1308  2.0308  0.6635
  122OSM   H17T12934   3.179   4.542   7.898 -0.5042 -1.0346  0.7653
  122OSM   C18S12935   3.279   4.716   7.961 -0.2840  0.6708 -0.1055
  122OSM   H18S12936   3.286   4.749   7.856  0.9179  0.3660 -0.1381
  122OSM   H18T12937   3.372   4.739   8.018 -1.4508  1.0195  1.7267
  122OSM   H18U12938   3.196   4.756   8.023 -0.8254 -0.3063 -0.1721
  122OSM    C1F12939   3.842   4.010   6.540 -0.4231 -0.4134  0.2754
  122OSM     OF12940   3.881   4.122   6.517 -0.1707  0.1517 -0.7458
  122OSM    C2F12941   3.931   3.896   6.581  0.0314 -0.4432  0.9475
  122OSM    H2F12942   4.021   3.905   6.516 -0.4586  0.2007  0.3433
  122OSM    H2G12943   3.884   3.799   6.552  2.1946 -1.4113  0.4391
  122OSM    C3F12944   3.968   3.909   6.724 -0.1460  0.8068 -0.3755
  122OSM    H3F12945   3.871   3.931   6.775  0.3196  1.1492  0.3835
  122OSM    H3G12946   4.044   3.988   6.737  1.8430 -1.2644  1.5095
  122OSM    C4F12947   4.025   3.775   6.784  0.3883 -0.1475 -0.1025
  122OSM    H4F12948   4.087   3.727   6.705 -1.2298 -0.2109 -1.3985
  122OSM    H4G12949   3.938   3.707   6.793 -0.9829  1.4267 -0.9322
  122OSM    C5F12950   4.108   3.803   6.910  0.5453 -0.1604 -0.6417
  122OSM    H5F12951   4.182   3.886   6.906  0.6200 -0.2656 -1.6106
  122OSM    H5G12952   4.156   3.709   6.943 -1.6210 -0.4486  1.9978
  122OSM    C6F12953   4.021   3.848   7.035  0.4737 -0.3862 -0.0516
  122OSM    H6F12954   3.957   3.760   7.061  0.0422  0.3277  1.3815
  122OSM    H6G12955   3.962   3.932   6.992  0.9303  0.4179  0.8658
  122OSM    C7F12956   4.093   3.888   7.164 -0.0457 -0.4726  0.1401
  122OSM    H7F12957   4.119   3.994   7.143 -0.1218 -1.0211 -3.3107
  122OSM    H7G12958   4.191   3.837   7.174  0.2111 -0.3650 -1.4611
  122OSM    C8F12959   4.013   3.874   7.295 -0.0731  0.2551  0.2652
  122OSM    H8F12960   3.984   3.767   7.288 -0.5256  0.3910  0.0214
  122OSM    H8G12961   3.925   3.941   7.280  0.4698  1.0462  0.5169
  122OSM    C9F12962   4.085   3.907   7.419  0.2951 -0.1240 -0.2932
  122OSM    H9F12963   4.165   3.983   7.415 -1.3313  1.8332  1.4878
  122OSM   C10F12964   4.049   3.862   7.542  0.2540  0.8363 -0.1395
  122OSM   H10F12965   4.110   3.886   7.631 -0.4813  1.3389  0.2406
  122OSM   C11F12966   3.931   3.770   7.567 -0.4964 -0.1180 -0.4227
  122OSM   H11F12967   3.927   3.682   7.500 -2.0192 -0.6202  0.2782
  122OSM   H11G12968   3.834   3.824   7.556  0.6732  1.7504 -2.3508
  122OSM   C12F12969   3.931   3.712   7.708 -0.0147  0.3720  0.6878
  122OSM   H12F12970   3.854   3.633   7.719 -0.3695  0.2750 -1.8924
  122OSM   H12G12971   3.885   3.783   7.779 -1.1849  0.3845 -0.0568
  122OSM   C13F12972   4.061   3.658   7.770 -0.4671  0.2749  0.4014
  122OSM   H13F12973   4.127   3.745   7.791 -0.2419 -0.2336  1.9453
  122OSM   H13G12974   4.104   3.596   7.689 -0.4173  2.8418 -1.6817
  122OSM   C14F12975   4.038   3.583   7.902  0.4723 -0.7427 -0.5789
  122OSM   H14F12976   4.122   3.511   7.911  0.9833 -0.6445 -3.4482
  122OSM   H14G12977   3.943   3.526   7.890  0.6472 -1.9278  2.6508
  122OSM   C15F12978   4.045   3.670   8.028  0.3394  0.0755 -0.0697
  122OSM   H15F12979   4.142   3.720   8.048  0.9510 -0.4251 -1.6485
  122OSM   H15G12980   4.042   3.602   8.116  2.3667  0.7618  0.5920
  122OSM   C16F12981   3.930   3.761   8.049 -0.4762 -0.2860  0.6838
  122OSM   H16F12982   3.836   3.703   8.059 -0.4405 -0.0328  3.4997
  122OSM   H16G12983   3.931   3.835   7.967 -2.9215  1.6534  2.2639
  122OSM   C17F12984   3.952   3.826   8.194  0.5091 -0.2345  0.6960
  122OSM   H17F12985   4.031   3.904   8.194 -3.4930  4.2818  1.0588
  122OSM   H17G12986   3.959   3.745   8.270 -0.6412 -0.0490  1.0092
  122OSM   C18F12987   3.833   3.907   8.236 -0.5337 -0.5542 -0.1113
  122OSM   H18F12988   3.828   4.013   8.204 -2.1093 -0.2901  0.9022
  122OSM   H18G12989   3.831   3.911   8.347 -2.2131 -1.0262 -0.1045
  122OSM   H18H12990   3.735   3.865   8.205 -1.6280  1.1177  0.9371
  123OSM      N12991   1.297   4.928   5.966 -0.1525 -0.0885  0.1934
  123OSM    C1512992   1.383   4.837   6.040  0.0854 -0.7510 -0.2689
  123OSM   H15A12993   1.467   4.887   6.085  0.1389  0.2407 -1.4143
  123OSM   H15B12994   1.407   4.750   5.980  0.3820 -0.4085 -0.6581
  123OSM   H15C12995   1.329   4.800   6.126  2.6437 -0.5319  1.5490
  123OSM    C1412996   1.359   4.987   5.847  0.3822  0.3835  0.1177
  123OSM   H14A12997   1.347   4.922   5.761 -1.1002 -0.0676  0.6367
  123OSM   H14B12998   1.460   5.021   5.863  1.3008 -1.5646 -1.1956
  123OSM   H14C12999   1.315   5.084   5.830 -2.3216 -0.2213  2.7725
  123OSM    C1313000   1.179   4.853   5.914 -0.1899  0.2094  0.0010
  123OSM   H13A13001   1.121   4.920   5.851 -0.8744  1.2045  1.6377
  123OSM   H13B13002   1.122   4.801   5.989  0.6614 -1.8455 -0.7104
  123OSM   H13C13003   1.217   4.770   5.856  1.3446  0.0976  1.1070
  123OSM    C1213004   1.252   5.047   6.059  0.3293 -0.5181 -0.6180
  123OSM   H12A13005   1.195   5.124   6.009  1.8348  1.9089  1.1958
  123OSM   H12B13006   1.340   5.095   6.098 -0.1827 -1.0196  1.2427
  123OSM    C1113007   1.190   4.995   6.191  0.7355 -0.1332 -0.6229
  123OSM   H11A13008   1.125   4.906   6.178  0.3285 -0.1683  1.3396
  123OSM   H11B13009   1.130   5.076   6.238  1.5949 -0.9628  2.1443
  123OSM      P13010   1.408   5.030   6.349 -0.4071 -0.1261  0.3216
  123OSM    O1313011   1.483   4.925   6.416  0.4011 -0.1099 -0.1717
  123OSM    O1413012   1.479   5.110   6.247 -0.9837 -0.1605  0.5548
  123OSM    O1113013   1.358   5.141   6.454  0.5787 -0.0040 -0.5700
  123OSM    O1213014   1.281   4.952   6.289  0.7934 -0.6680  0.0589
  123OSM    C1S13015   1.223   5.187   6.466  0.2096  0.1496 -0.4014
  123OSM    H1S13016   1.153   5.102   6.475 -0.6000  0.9663  1.4862
  123OSM    H1T13017   1.192   5.254   6.383  0.4242  2.4165  1.2418
  123OSM     NF13018   1.055   5.292   6.609 -0.6987  0.2627 -0.2863
  123OSM    HNF13019   1.011   5.372   6.569  0.1873  0.8756 -0.0566
  123OSM    C2S13020   1.197   5.274   6.588 -0.7369  0.4152 -0.3452
  123OSM    H2S13021   1.240   5.215   6.672 -0.2391  1.1852 -0.0380
  123OSM    C3S13022   1.276   5.408   6.574 -0.4661 -0.0524 -0.6994
  123OSM    H3S13023   1.219   5.465   6.498  1.6709  4.1856  0.5878
  123OSM     O313024   1.410   5.393   6.520 -0.2167  0.0810 -0.5845
  123OSM    HO313025   1.423   5.299   6.501  3.5117  0.4435 -0.7205
  123OSM    C4S13026   1.296   5.488   6.701 -0.2116  0.7379 -0.4313
  123OSM    H4S13027   1.352   5.440   6.783  1.1879  2.5187 -0.3014
  123OSM    C5S13028   1.256   5.622   6.724  0.1248  0.7122 -0.2475
  123OSM    H5S13029   1.208   5.683   6.646  0.5257 -1.0224 -1.9082
  123OSM    C6S13030   1.274   5.692   6.856 -0.1114  0.7266 -0.9564
  123OSM    H6S13031   1.167   5.704   6.885 -0.3268 -4.2612  1.2402
  123OSM    H6T13032   1.330   5.788   6.863  1.2797  0.0484 -2.2235
  123OSM    C7S13033   1.326   5.600   6.969  0.7895 -0.4081  0.1017
  123OSM    H7S13034   1.433   5.585   6.945  0.4749 -1.5016 -0.6831
  123OSM    H7T13035   1.266   5.506   6.966 -2.8333  1.6458  1.4036
  123OSM    C8S13036   1.316   5.656   7.102  0.5655  0.2033 -0.4741
  123OSM    H8S13037   1.224   5.718   7.112  0.2662 -0.5238  2.2558
  123OSM    H8T13038   1.397   5.727   7.130  1.5813 -1.5387  1.2315
  123OSM    C9S13039   1.297   5.549   7.209 -0.3654 -0.1303 -0.0665
  123OSM    H9S13040   1.374   5.471   7.191 -1.0024 -1.1297  1.3257
  123OSM    H9T13041   1.195   5.510   7.190 -0.6474  0.6933 -0.2999
  123OSM   C10S13042   1.302   5.588   7.362  0.3115  0.2792  0.2380
  123OSM   H10S13043   1.400   5.563   7.408 -0.3161 -3.3171 -0.1375
  123OSM   H10T13044   1.229   5.519   7.406 -0.5602 -0.8007 -2.6575
  123OSM   C11S13045   1.244   5.726   7.393 -0.1184  0.1165 -0.0594
  123OSM   H11S13046   1.170   5.757   7.315  0.1797 -0.9066 -0.7647
  123OSM   H11T13047   1.320   5.806   7.397  0.6096 -0.6301  2.6792
  123OSM   C12S13048   1.176   5.726   7.530 -0.0658  0.6359  0.2433
  123OSM   H12S13049   1.115   5.634   7.539  1.5888 -0.4102  1.3061
  123OSM   H12T13050   1.115   5.819   7.537 -0.5214  0.6804 -2.8249
  123OSM   C13S13051   1.284   5.732   7.641 -0.3852  0.1822  0.1482
  123OSM   H13S13052   1.346   5.823   7.635 -1.5160  0.9609  0.0018
  123OSM   H13T13053   1.346   5.641   7.626 -1.0581 -0.4840  1.2534
  123OSM   C14S13054   1.227   5.723   7.787  1.0602 -0.1151  0.1833
  123OSM   H14S13055   1.312   5.678   7.841  1.9061 -0.4270 -1.3588
  123OSM   H14T13056   1.129   5.671   7.784 -0.0214  1.7728  0.7600
  123OSM   C15S13057   1.194   5.867   7.836 -0.2575  0.2653  0.4449
  123OSM   H15S13058   1.105   5.913   7.789 -0.7103  0.0856  1.1170
  123OSM   H15T13059   1.281   5.934   7.823 -0.0237 -0.3722 -1.5989
  123OSM   C16S13060   1.181   5.852   7.992  0.4963 -0.2906 -0.0260
  123OSM   H16S13061   1.279   5.824   8.036 -1.0869 -3.2894  1.9786
  123OSM   H16T13062   1.096   5.782   8.008 -2.4816  3.1580  0.6077
  123OSM   C17S13063   1.138   5.986   8.053 -0.1563  0.1255  0.2255
  123OSM   H17S13064   1.151   5.967   8.162 -0.5917 -0.3043  0.2103
  123OSM   H17T13065   1.034   6.007   8.021  0.1771 -1.0184 -1.7853
  123OSM   C18S13066   1.209   6.109   8.005  0.2073  0.2017  0.5376
  123OSM   H18S13067   1.166   6.134   7.905 -0.8174 -2.4861  0.2095
  123OSM   H18T13068   1.317   6.084   7.997  0.2045  0.5876 -1.3046
  123OSM   H18U13069   1.198   6.189   8.081 -0.4287  1.5229 -0.8748
  123OSM    C1F13070   0.980   5.194   6.673  0.4230 -0.2876  0.2040
  123OSM     OF13071   1.037   5.087   6.698  0.1222  0.0336  0.1892
  123OSM    C2F13072   0.837   5.227   6.703  0.2373 -0.1523 -0.3683
  123OSM    H2F13073   0.781   5.232   6.607 -0.4567  0.1329  0.0479
  123OSM    H2G13074   0.827   5.330   6.743 -0.1949 -0.1712 -0.4258
  123OSM    C3F13075   0.754   5.131   6.796  0.1562  0.3047 -0.2091
  123OSM    H3F13076   0.749   5.045   6.726 -1.6291  1.3342 -1.4252
  123OSM    H3G13077   0.648   5.163   6.794  0.9419  3.1299 -0.9749
  123OSM    C4F13078   0.811   5.122   6.937  0.6834  0.8376 -0.4583
  123OSM    H4F13079   0.910   5.072   6.935  0.2201 -0.0838 -2.3465
  123OSM    H4G13080   0.745   5.057   6.997  3.2403 -1.6350 -0.1246
  123OSM    C5F13081   0.838   5.255   7.004  0.0683  0.0880  0.2150
  123OSM    H5F13082   0.753   5.326   6.998 -1.1460 -1.4097 -0.9820
  123OSM    H5G13083   0.929   5.299   6.958  0.8414 -0.9725  0.6987
  123OSM    C6F13084   0.875   5.235   7.152 -0.5763  0.0777 -0.3941
  123OSM    H6F13085   0.961   5.165   7.142  2.8125  3.8344 -0.1662
  123OSM    H6G13086   0.788   5.191   7.205 -3.0677  2.6643 -2.0504
  123OSM    C7F13087   0.932   5.350   7.236  0.0468 -0.3879  0.2001
  123OSM    H7F13088   1.023   5.392   7.188 -0.0211 -1.7505 -1.1751
  123OSM    H7G13089   0.972   5.307   7.331  0.8357  1.9106  0.9830
  123OSM    C8F13090   0.829   5.454   7.284 -0.4943  0.8506 -0.7226
  123OSM    H8F13091   0.753   5.378   7.313 -0.3806  0.8165 -0.5094
  123OSM    H8G13092   0.783   5.519   7.207 -2.5990  1.0304  0.6178
  123OSM    C9F13093   0.880   5.540   7.395 -0.5429 -0.2885 -0.4232
  123OSM    H9F13094   0.969   5.600   7.370 -0.2097 -0.1873  0.9321
  123OSM   C10F13095   0.821   5.566   7.511 -0.3927  0.4807  0.6314
  123OSM   H10F13096   0.871   5.630   7.585  0.3591  0.6320 -0.0019
  123OSM   C11F13097   0.693   5.500   7.566 -0.4097 -0.3184  0.1265
  123OSM   H11F13098   0.658   5.427   7.490  1.3758  0.3605 -1.4246
  123OSM   H11G13099   0.613   5.575   7.583 -0.1846 -0.1588  0.4882
  123OSM   C12F13100   0.720   5.433   7.695  0.6986  0.5040  0.7171
  123OSM   H12F13101   0.796   5.352   7.687  0.4788  0.0753  2.4922
  123OSM   H12G13102   0.621   5.387   7.716  1.2917 -0.6830  1.0440
  123OSM   C13F13103   0.753   5.509   7.822 -0.3806 -0.0080 -0.1141
  123OSM   H13F13104   0.861   5.533   7.826 -0.5698  0.7257  1.6191
  123OSM   H13G13105   0.734   5.443   7.910 -1.0270  0.5137  0.1440
  123OSM   C14F13106   0.685   5.644   7.842  0.7860 -0.3954  0.0546
  123OSM   H14F13107   0.583   5.626   7.803  0.1207 -0.3001  1.6712
  123OSM   H14G13108   0.737   5.726   7.788  0.7783 -0.0963  0.5023
  123OSM   C15F13109   0.670   5.678   7.989  0.8342  0.6216  0.0715
  123OSM   H15F13110   0.616   5.589   8.028  0.2370  0.2205 -1.5960
  123OSM   H15G13111   0.598   5.760   8.004  2.0601  1.2868  3.1781
  123OSM   C16F13112   0.806   5.689   8.053 -0.7861 -0.5029  0.4659
  123OSM   H16F13113   0.874   5.742   7.983  0.4712 -1.1086  1.1930
  123OSM   H16G13114   0.847   5.591   8.084  0.6069 -0.4558 -1.0850
  123OSM   C17F13115   0.796   5.762   8.190 -0.0568  0.0121  0.1643
  123OSM   H17F13116   0.713   5.719   8.250 -1.7436  2.2239 -0.4055
  123OSM   H17G13117   0.764   5.868   8.177  1.2986  0.7612  2.3301
  123OSM   C18F13118   0.931   5.743   8.258  0.1613  0.5877  0.0532
  123OSM   H18F13119   0.933   5.777   8.364 -1.1104 -2.0470  1.0007
  123OSM   H18G13120   1.004   5.807   8.203 -0.6687  0.5582 -1.1389
  123OSM   H18H13121   0.957   5.636   8.268 -1.7499  0.1038  0.1864
  124OSM      N13122   4.322   1.449   5.896 -0.7052 -0.5242  0.5836
  124OSM    C1513123   4.433   1.408   5.807 -0.0252  0.2232 -0.9772
  124OSM   H15A13124   4.448   1.482   5.730  1.2436  2.4654  1.2655
  124OSM   H15B13125   4.420   1.309   5.765 -1.9052  0.6219 -1.4439
  124OSM   H15C13126   4.525   1.417   5.862 -0.7752 -0.5565  0.4497
  124OSM    C1413127   4.330   1.353   6.012  0.2186  0.3170 -0.1947
  124OSM   H14A13128   4.300   1.254   5.981  0.5543 -0.0890  0.7535
  124OSM   H14B13129   4.262   1.380   6.092 -2.0420 -0.7484 -1.6595
  124OSM   H14C13130   4.430   1.333   6.047  1.2603 -0.5294 -3.3796
  124OSM    C1313131   4.338   1.586   5.952  0.3639 -0.0889 -0.5013
  124OSM   H13A13132   4.343   1.658   5.871 -0.8734  0.8856  0.2609
  124OSM   H13B13133   4.421   1.583   6.021 -0.8890  0.1354  1.0589
  124OSM   H13C13134   4.256   1.612   6.017  2.4495  3.1371  1.1154
  124OSM    C1213135   4.198   1.437   5.808  1.2055 -0.0252 -0.4407
  124OSM   H12A13136   4.210   1.342   5.758 -1.2369 -1.2065  1.0471
  124OSM   H12B13137   4.190   1.518   5.738 -0.4055  0.3705  0.1706
  124OSM    C1113138   4.067   1.431   5.891  0.1679  0.0365 -0.9966
  124OSM   H11A13139   4.077   1.343   5.958 -0.7060 -0.4177 -1.4427
  124OSM   H11B13140   3.994   1.409   5.810 -0.7949 -0.5538  0.0027
  124OSM      P13141   4.009   1.583   6.106 -0.2507  0.1010 -0.1299
  124OSM    O1313142   4.009   1.733   6.123  0.2988 -0.4532 -0.2385
  124OSM    O1413143   3.888   1.508   6.148  0.6688 -0.1810 -0.2094
  124OSM    O1113144   4.136   1.521   6.181 -0.3628 -0.2869  0.0231
  124OSM    O1213145   4.043   1.556   5.951 -0.3149 -0.3732 -0.0190
  124OSM    C1S13146   4.219   1.592   6.280  0.1326  0.0202 -0.4941
  124OSM    H1S13147   4.219   1.703   6.271 -0.8704 -0.0256 -1.2911
  124OSM    H1T13148   4.325   1.560   6.271 -0.0184 -0.9839  0.9380
  124OSM     NF13149   4.251   1.619   6.521  0.1501 -0.3536 -0.0496
  124OSM    HNF13150   4.308   1.562   6.579  1.6405 -0.1413 -1.2294
  124OSM    C2S13151   4.181   1.543   6.417  0.0403  0.4628 -0.6632
  124OSM    H2S13152   4.075   1.568   6.439  0.1334 -0.6381  1.2969
  124OSM    C3S13153   4.200   1.392   6.432  0.5128 -0.3729 -0.2486
  124OSM    H3S13154   4.306   1.361   6.426  0.1891 -1.7845  0.8994
  124OSM     O313155   4.139   1.312   6.332 -0.6710  0.0564  0.1891
  124OSM    HO313156   4.119   1.371   6.259 -0.3288  0.1406  0.1602
  124OSM    C4S13157   4.133   1.345   6.552  0.3620  0.2698 -0.1491
  124OSM    H4S13158   4.027   1.376   6.558  0.1046 -0.4545 -0.8008
  124OSM    C5S13159   4.179   1.275   6.657  0.0297 -0.0729  0.2055
  124OSM    H5S13160   4.277   1.225   6.654  0.5399  0.8762  0.6747
  124OSM    C6S13161   4.092   1.237   6.769  0.2160  1.3998 -0.3985
  124OSM    H6S13162   4.152   1.205   6.857 -2.4482 -0.2569  0.9577
  124OSM    H6T13163   4.031   1.151   6.733  1.3639  1.5807 -2.9602
  124OSM    C7S13164   3.996   1.341   6.843 -0.0330  0.6469  0.1105
  124OSM    H7S13165   3.927   1.371   6.762  0.3522  0.8390 -0.1471
  124OSM    H7T13166   4.047   1.437   6.866 -0.8939  1.1361  0.0065
  124OSM    C8S13167   3.925   1.287   6.971  0.1530 -0.5576 -0.1677
  124OSM    H8S13168   3.892   1.183   6.953 -2.1765  0.3146 -1.4988
  124OSM    H8T13169   3.847   1.361   7.001  2.2918  1.3994  0.8424
  124OSM    C9S13170   4.025   1.278   7.094  0.3850  0.2069 -0.5414
  124OSM    H9S13171   4.097   1.363   7.098  0.0403  0.5352 -1.2214
  124OSM    H9T13172   4.077   1.180   7.099  1.1315  0.6107 -0.0112
  124OSM   C10S13173   3.958   1.267   7.235  0.3850 -0.6230 -0.0499
  124OSM   H10S13174   3.903   1.171   7.238  1.4623 -1.2766 -0.5942
  124OSM   H10T13175   3.885   1.349   7.256 -2.1468 -2.8660  0.5166
  124OSM   C11S13176   4.069   1.268   7.336 -0.6738  0.3706 -0.6290
  124OSM   H11S13177   4.142   1.351   7.325  0.0502  0.1244  1.8185
  124OSM   H11T13178   4.117   1.169   7.322 -3.2030 -0.6494 -3.1806
  124OSM   C12S13179   4.016   1.257   7.478 -0.1008 -0.3640  0.3379
  124OSM   H12S13180   3.957   1.166   7.504 -0.5404 -0.3974 -0.7409
  124OSM   H12T13181   3.951   1.344   7.496 -0.6347 -0.8001  0.5483
  124OSM   C13S13182   4.128   1.259   7.584 -0.5278 -0.2045 -0.6737
  124OSM   H13S13183   4.193   1.346   7.561  1.0947 -1.5541 -1.3741
  124OSM   H13T13184   4.186   1.165   7.580 -0.9644 -0.4419 -1.9912
  124OSM   C14S13185   4.073   1.268   7.731 -0.7964  0.2017 -0.6190
  124OSM   H14S13186   3.980   1.215   7.760 -0.2485 -0.6965 -0.4729
  124OSM   H14T13187   4.045   1.374   7.749  1.6073  1.2210 -2.3687
  124OSM   C15S13188   4.180   1.230   7.833 -0.3355  0.2101 -0.4165
  124OSM   H15S13189   4.274   1.279   7.802 -0.3823 -0.1380 -1.1146
  124OSM   H15T13190   4.206   1.122   7.840 -2.1058 -0.2031  0.7523
  124OSM   C16S13191   4.136   1.281   7.972  0.6999  0.9314 -0.1469
  124OSM   H16S13192   4.055   1.209   8.000  0.2927  1.2908 -0.3870
  124OSM   H16T13193   4.090   1.381   7.960 -0.0903  0.5100 -0.7647
  124OSM   C17S13194   4.252   1.283   8.072 -0.0104 -0.0561  0.2107
  124OSM   H17S13195   4.352   1.314   8.036  0.0095  0.0781  0.3781
  124OSM   H17T13196   4.277   1.176   8.088  1.0454 -0.3230 -2.6506
  124OSM   C18S13197   4.214   1.358   8.203 -0.2158 -0.5531  0.2235
  124OSM   H18S13198   4.136   1.313   8.268  0.4779  0.1503  1.5775
  124OSM   H18T13199   4.190   1.464   8.182 -0.5173 -0.1571  2.3933
  124OSM   H18U13200   4.310   1.354   8.260  1.2654 -0.9807 -2.1361
  124OSM    C1F13201   4.234   1.748   6.546 -0.9350  0.2071 -0.2739
  124OSM     OF13202   4.140   1.802   6.488  0.2952 -0.4024 -0.6233
  124OSM    C2F13203   4.326   1.815   6.648 -0.7154 -0.3234 -0.4528
  124OSM    H2F13204   4.425   1.764   6.641 -1.5443 -2.6280  2.3915
  124OSM    H2G13205   4.289   1.803   6.752 -0.6640 -3.2063 -0.6886
  124OSM    C3F13206   4.352   1.965   6.611  0.2336  0.3126 -0.4963
  124OSM    H3F13207   4.256   2.018   6.593  1.1272  1.2073 -3.0417
  124OSM    H3G13208   4.393   1.974   6.508  3.3125 -2.3591  0.3408
  124OSM    C4F13209   4.437   2.045   6.709  0.4604 -0.3363  0.2588
  124OSM    H4F13210   4.448   2.152   6.683 -0.7362 -0.2547  0.0280
  124OSM    H4G13211   4.542   2.008   6.714  0.9941  1.2009  1.4659
  124OSM    C5F13212   4.378   2.039   6.854 -0.1259  0.4363  0.1201
  124OSM    H5F13213   4.345   1.935   6.878  1.0417 -0.1159 -0.5918
  124OSM    H5G13214   4.292   2.110   6.856 -0.4013  0.1037  1.4839
  124OSM    C6F13215   4.491   2.074   6.961  0.6901 -0.3786  1.3331
  124OSM    H6F13216   4.534   2.172   6.934 -1.7607  0.6344  0.8394
  124OSM    H6G13217   4.564   1.991   6.949  0.0343 -0.8993  0.8339
  124OSM    C7F13218   4.432   2.094   7.096  0.7013 -0.4704 -0.7064
  124OSM    H7F13219   4.375   2.003   7.121 -0.8309  0.5505 -0.3774
  124OSM    H7G13220   4.360   2.178   7.098  1.3769  0.1198  1.6453
  124OSM    C8F13221   4.541   2.119   7.204  0.3684  0.7725  0.9889
  124OSM    H8F13222   4.486   2.168   7.287 -1.1154  1.3094 -0.2350
  124OSM    H8G13223   4.603   2.203   7.166 -0.3319  0.6423 -0.5113
  124OSM    C9F13224   4.625   1.994   7.231 -0.7485 -0.6337 -0.0436
  124OSM    H9F13225   4.719   1.989   7.173 -0.4165 -2.9283  0.6167
  124OSM   C10F13226   4.613   1.917   7.342  0.2884 -0.1992  0.0295
  124OSM   H10F13227   4.674   1.825   7.343 -0.5172 -0.7406 -0.1000
  124OSM   C11F13228   4.505   1.920   7.452  0.2768  0.1901  0.5221
  124OSM   H11F13229   4.495   1.818   7.495 -0.3456  0.6675  1.5750
  124OSM   H11G13230   4.410   1.968   7.421  0.7416  1.2806  0.7424
  124OSM   C12F13231   4.550   2.012   7.577 -0.3327  0.6522 -0.0996
  124OSM   H12F13232   4.583   2.107   7.530  0.8750 -0.6445 -2.0572
  124OSM   H12G13233   4.638   1.963   7.625 -0.4781  1.2716  0.8018
  124OSM   C13F13234   4.447   2.053   7.689  0.2852 -0.1960  0.6964
  124OSM   H13F13235   4.398   1.963   7.731  0.2817  0.4892  2.2259
  124OSM   H13G13236   4.356   2.105   7.651 -0.9873 -2.0179  1.0927
  124OSM   C14F13237   4.526   2.129   7.800 -0.1049  0.6430  0.0229
  124OSM   H14F13238   4.547   2.231   7.762  1.3264  0.1738 -0.5145
  124OSM   H14G13239   4.622   2.079   7.825 -0.0284  0.0838 -1.3015
  124OSM   C15F13240   4.442   2.148   7.928  0.8645 -0.3174 -0.8472
  124OSM   H15F13241   4.511   2.196   8.001 -0.9794  0.4619  0.4779
  124OSM   H15G13242   4.415   2.047   7.965  1.6725 -0.4708 -0.6639
  124OSM   C16F13243   4.313   2.239   7.923 -0.4229  0.0322  0.0202
  124OSM   H16F13244   4.237   2.194   7.855  0.6035  0.0463 -1.1882
  124OSM   H16G13245   4.341   2.332   7.869 -4.4619 -0.1979 -2.9585
  124OSM   C17F13246   4.251   2.271   8.068 -0.1086  0.0550 -0.2932
  124OSM   H17F13247   4.155   2.328   8.060 -0.8682 -0.8660  1.5526
  124OSM   H17G13248   4.330   2.333   8.115 -1.6230  0.1166  2.4238
  124OSM   C18F13249   4.223   2.149   8.152  0.0578  0.0986 -0.4372
  124OSM   H18F13250   4.173   2.180   8.246 -0.0768  1.2314 -0.8663
  124OSM   H18G13251   4.319   2.095   8.166  0.6558  1.3075  0.2043
  124OSM   H18H13252   4.162   2.087   8.083 -0.8778  0.4399  0.0603
  125OSM      N13253   5.130   2.449   5.874 -0.2776 -0.3076 -0.1747
  125OSM    C1513254   4.997   2.384   5.900  0.1394 -0.0793 -0.2325
  125OSM   H15A13255   5.001   2.280   5.871 -1.8398 -0.2723  0.0930
  125OSM   H15B13256   4.916   2.442   5.858  0.1047  0.2363  0.2716
  125OSM   H15C13257   4.985   2.365   6.005  1.3154 -3.7485 -0.6261
  125OSM    C1413258   5.159   2.439   5.723 -0.8033  0.2092 -0.0159
  125OSM   H14A13259   5.255   2.474   5.689 -1.5224  1.0392 -1.2884
  125OSM   H14B13260   5.090   2.496   5.661 -1.1647 -1.6907 -1.4461
  125OSM   H14C13261   5.143   2.340   5.684 -1.0797  1.2438 -2.7830
  125OSM    C1313262   5.125   2.589   5.913  0.3727 -0.6151  0.9021
  125OSM   H13A13263   5.213   2.636   5.872 -0.3777 -0.7346 -0.9395
  125OSM   H13B13264   5.119   2.598   6.020 -0.0431 -0.7828  0.8968
  125OSM   H13C13265   5.048   2.639   5.856  1.0399 -0.3153  0.2524
  125OSM    C1213266   5.242   2.390   5.949  0.4550 -0.3733 -0.4367
  125OSM   H12A13267   5.328   2.453   5.933 -0.2037  0.3494 -1.2867
  125OSM   H12B13268   5.265   2.291   5.911  1.9679 -0.4629  0.6361
  125OSM    C1113269   5.219   2.367   6.105  0.1986 -0.5692  0.6283
  125OSM   H11A13270   5.195   2.469   6.141 -2.0488 -0.8701  0.1624
  125OSM   H11B13271   5.306   2.322   6.158  0.5169 -1.9513 -0.9667
  125OSM      P13272   5.119   2.132   6.172 -0.4985 -0.1867 -0.0552
  125OSM    O1313273   4.987   2.064   6.155  0.1314 -1.1871  0.6306
  125OSM    O1413274   5.229   2.073   6.100 -0.4501 -1.0245 -0.0856
  125OSM    O1113275   5.159   2.125   6.322 -0.1348 -0.6717 -0.4677
  125OSM    O1213276   5.099   2.290   6.143 -0.1730 -0.3959 -0.3644
  125OSM    C1S13277   5.068   2.178   6.418 -0.2501 -0.8393 -0.3565
  125OSM    H1S13278   5.006   2.094   6.455 -1.8434  0.4819  0.0529
  125OSM    H1T13279   4.995   2.251   6.377 -1.3864 -2.7491 -1.9327
  125OSM     NF13280   5.132   2.391   6.535 -0.5950 -1.0540 -0.1740
  125OSM    HNF13281   5.204   2.448   6.497 -2.1781  1.1044 -0.0795
  125OSM    C2S13282   5.147   2.246   6.539 -0.3013 -0.4255  0.7970
  125OSM    H2S13283   5.084   2.210   6.623 -0.9699  2.9470  1.8784
  125OSM    C3S13284   5.293   2.194   6.567  0.5227  0.3858  0.6229
  125OSM    H3S13285   5.365   2.239   6.495  1.2189 -0.9635  0.4376
  125OSM     O313286   5.307   2.052   6.545 -0.7116  0.2898  0.0387
  125OSM    HO313287   5.248   2.030   6.472 -2.2604 -0.2650  1.4161
  125OSM    C4S13288   5.327   2.230   6.710 -0.0036  0.3680  0.2613
  125OSM    H4S13289   5.308   2.150   6.783  2.4118 -0.3066  0.2575
  125OSM    C5S13290   5.385   2.343   6.750 -0.4471 -0.5992  0.1044
  125OSM    H5S13291   5.418   2.409   6.668 -0.0061 -2.5903 -1.3955
  125OSM    C6S13292   5.428   2.376   6.892 -0.5796  0.7598  0.8163
  125OSM    H6S13293   5.345   2.434   6.936 -0.8063 -0.9978  2.8607
  125OSM    H6T13294   5.530   2.419   6.892  1.2745 -2.8851 -2.5316
  125OSM    C7S13295   5.440   2.248   6.988 -0.4322 -0.4551 -0.5645
  125OSM    H7S13296   5.510   2.174   6.943  3.1537  0.8338  2.3833
  125OSM    H7T13297   5.341   2.203   7.008  0.0411 -1.2236  0.1633
  125OSM    C8S13298   5.483   2.294   7.125  0.5318 -0.5263 -0.2721
  125OSM    H8S13299   5.399   2.360   7.157 -1.0058 -2.9423  1.0537
  125OSM    H8T13300   5.582   2.344   7.115 -0.2322  0.7975 -1.6832
  125OSM    C9S13301   5.481   2.187   7.237 -0.3888 -0.0667  0.2264
  125OSM    H9S13302   5.561   2.112   7.222  1.6430  2.0858 -0.4497
  125OSM    H9T13303   5.377   2.148   7.233 -0.6838  0.7438 -0.2579
  125OSM   C10S13304   5.509   2.258   7.373 -0.4086 -0.1146 -0.1473
  125OSM   H10S13305   5.450   2.352   7.360 -0.6451 -0.5801 -3.3579
  125OSM   H10T13306   5.619   2.270   7.378 -0.5642  0.8680  2.1652
  125OSM   C11S13307   5.458   2.184   7.491  0.5155  0.8586 -0.6504
  125OSM   H11S13308   5.498   2.081   7.488  3.5890  1.9347 -0.1867
  125OSM   H11T13309   5.347   2.193   7.490  0.3945 -0.2469  0.2170
  125OSM   C12S13310   5.498   2.248   7.621  0.1544  0.7357 -0.4944
  125OSM   H12S13311   5.435   2.334   7.653  1.2144  0.8234  1.5533
  125OSM   H12T13312   5.598   2.295   7.621  0.5594 -0.0784  0.3544
  125OSM   C13S13313   5.500   2.155   7.748 -0.3097 -0.1442  0.5148
  125OSM   H13S13314   5.555   2.064   7.718 -4.1832 -2.1482 -1.1608
  125OSM   H13T13315   5.396   2.115   7.752  0.2688 -1.9804 -1.3851
  125OSM   C14S13316   5.543   2.228   7.876  0.1614  0.1682 -0.3626
  125OSM   H14S13317   5.479   2.318   7.892 -0.8198 -0.7227  0.8460
  125OSM   H14T13318   5.644   2.261   7.841 -0.3721  0.2880 -1.8651
  125OSM   C15S13319   5.552   2.142   8.006 -0.1258  0.6144  0.1458
  125OSM   H15S13320   5.630   2.065   7.990 -1.0308 -1.1213  3.3217
  125OSM   H15T13321   5.450   2.103   8.027  0.2788 -0.2537  0.5646
  125OSM   C16S13322   5.597   2.224   8.120  0.0645  0.5478 -0.4905
  125OSM   H16S13323   5.512   2.275   8.171  1.1635  2.2849 -0.3257
  125OSM   H16T13324   5.657   2.305   8.074  0.9731  0.6804  0.8788
  125OSM   C17S13325   5.681   2.135   8.207 -0.2290  0.2659  0.3946
  125OSM   H17S13326   5.764   2.088   8.149 -0.9437 -1.2317  0.5636
  125OSM   H17T13327   5.617   2.051   8.241 -2.6752  1.6058 -0.6768
  125OSM   C18S13328   5.747   2.212   8.325  0.4294  0.3724 -0.1280
  125OSM   H18S13329   5.794   2.296   8.270 -0.2217  0.1749 -1.0254
  125OSM   H18T13330   5.821   2.144   8.372  1.8112  1.3734 -0.8030
  125OSM   H18U13331   5.671   2.245   8.399 -0.0245 -0.9770  0.0462
  125OSM    C1F13332   5.018   2.453   6.559 -0.1957 -0.6860 -0.2974
  125OSM     OF13333   4.925   2.394   6.603 -0.4540 -0.1045  0.4152
  125OSM    C2F13334   5.007   2.598   6.518  0.4608  0.1946 -0.1616
  125OSM    H2F13335   4.902   2.612   6.485  0.1244 -0.8248  0.4270
  125OSM    H2G13336   5.086   2.611   6.440  1.7021 -1.0382  0.8283
  125OSM    C3F13337   5.022   2.687   6.645  0.3687 -0.3567  0.0117
  125OSM    H3F13338   4.948   2.648   6.719  3.0252 -1.5469  2.2348
  125OSM    H3G13339   5.005   2.793   6.614  0.7704 -0.5185 -0.7746
  125OSM    C4F13340   5.159   2.679   6.710 -0.4588 -0.2589  0.8989
  125OSM    H4F13341   5.237   2.689   6.632 -1.8367 -0.8041 -0.6150
  125OSM    H4G13342   5.174   2.576   6.748  1.3466 -0.0111  0.9402
  125OSM    C5F13343   5.180   2.782   6.824  0.2503 -0.1756  0.0199
  125OSM    H5F13344   5.085   2.783   6.881  1.5463 -1.6391  2.3953
  125OSM    H5G13345   5.180   2.884   6.780 -1.4463  1.2787  3.0724
  125OSM    C6F13346   5.292   2.746   6.915 -0.4652 -0.9815 -0.4893
  125OSM    H6F13347   5.387   2.769   6.863  0.4542  0.7920  1.8082
  125OSM    H6G13348   5.292   2.639   6.944  0.8932 -0.6475  0.9277
  125OSM    C7F13349   5.296   2.833   7.040  0.2582 -0.3811 -0.2047
  125OSM    H7F13350   5.206   2.826   7.105  2.7021  1.2256  3.7795
  125OSM    H7G13351   5.290   2.940   7.012  1.7155 -0.0138  0.7608
  125OSM    C8F13352   5.425   2.818   7.134 -0.0671  0.4723  0.1703
  125OSM    H8F13353   5.510   2.864   7.077 -0.3276  1.3059  0.4445
  125OSM    H8G13354   5.433   2.708   7.143 -1.4892  0.1930 -1.3884
  125OSM    C9F13355   5.412   2.891   7.260 -0.0928 -0.0710 -0.3270
  125OSM    H9F13356   5.345   2.978   7.262 -0.1085 -0.0850 -0.2661
  125OSM   C10F13357   5.466   2.843   7.372  0.4202  0.2953 -0.0726
  125OSM   H10F13358   5.462   2.898   7.467  0.2036  0.6267 -0.2673
  125OSM   C11F13359   5.553   2.720   7.390 -0.2786  0.4097  0.0933
  125OSM   H11F13360   5.633   2.729   7.313 -0.4544 -0.0248 -0.1392
  125OSM   H11G13361   5.494   2.628   7.374 -1.7510  0.7036  3.1122
  125OSM   C12F13362   5.625   2.721   7.520 -0.4231  1.0161 -0.0005
  125OSM   H12F13363   5.665   2.822   7.545 -1.6565  1.1205  1.6569
  125OSM   H12G13364   5.715   2.656   7.512  1.3968  3.4605 -0.5921
  125OSM   C13F13365   5.546   2.658   7.634  0.3581 -0.2713 -0.3348
  125OSM   H13F13366   5.539   2.548   7.629 -1.3665 -0.2330  0.3200
  125OSM   H13G13367   5.442   2.697   7.625 -1.1806 -3.4528  1.9269
  125OSM   C14F13368   5.607   2.696   7.771  0.5767 -0.2328  0.4723
  125OSM   H14F13369   5.615   2.807   7.767  1.1600 -0.3001 -0.4071
  125OSM   H14G13370   5.711   2.658   7.778  1.2263  1.6047  1.8066
  125OSM   C15F13371   5.519   2.648   7.884 -0.5631  0.5854 -0.4290
  125OSM   H15F13372   5.520   2.538   7.895  1.6954  0.4213 -1.8152
  125OSM   H15G13373   5.413   2.673   7.859 -1.2908 -0.9300  0.9829
  125OSM   C16F13374   5.545   2.716   8.021 -0.9697  0.0009  0.0036
  125OSM   H16F13375   5.459   2.703   8.090 -0.9802  0.7102  0.1404
  125OSM   H16G13376   5.571   2.824   8.010 -1.0362  0.0280  0.1082
  125OSM   C17F13377   5.675   2.660   8.087  0.2802  0.2872 -0.6348
  125OSM   H17F13378   5.753   2.696   8.016 -1.7839  0.8498 -2.7144
  125OSM   H17G13379   5.662   2.549   8.088  2.0482 -0.0148 -2.4822
  125OSM   C18F13380   5.698   2.697   8.235 -0.1504  0.3203 -0.5716
  125OSM   H18F13381   5.601   2.689   8.289 -0.1762  0.9249 -0.5157
  125OSM   H18G13382   5.738   2.801   8.238  1.0385 -0.0746 -1.6714
  125OSM   H18H13383   5.772   2.627   8.280  0.3348  0.3481 -1.2990
  126OSM      N13384   4.113   4.492   6.541 -0.6707  0.0591  0.6304
  126OSM    C1513385   4.184   4.573   6.653  0.1929  0.2235  0.3481
  126OSM   H15A13386   4.269   4.634   6.625 -0.1334  0.8730  0.7415
  126OSM   H15B13387   4.203   4.507   6.736 -1.9943 -1.7396 -0.6279
  126OSM   H15C13388   4.117   4.650   6.691 -1.9592 -0.6459 -1.4936
  126OSM    C1413389   4.198   4.391   6.476 -0.6003  0.3863 -0.1141
  126OSM   H14A13390   4.144   4.349   6.393  0.0544 -0.5782 -0.0722
  126OSM   H14B13391   4.232   4.311   6.541  2.0294  1.6888  0.2326
  126OSM   H14C13392   4.289   4.442   6.448 -0.9159 -0.2249 -2.4457
  126OSM    C1313393   3.990   4.428   6.595  0.3129  0.2526  0.5788
  126OSM   H13A13394   3.943   4.363   6.523  2.5369 -1.6391  0.7058
  126OSM   H13B13395   3.913   4.503   6.608  1.8872  2.3110 -1.1762
  126OSM   H13C13396   4.002   4.387   6.694 -0.9144  3.5104  2.2395
  126OSM    C1213397   4.069   4.585   6.430 -0.0359 -0.0882 -0.0780
  126OSM   H12A13398   4.015   4.529   6.354  0.4009  0.2585 -0.6521
  126OSM   H12B13399   4.151   4.622   6.370  0.8397 -0.5254  0.8348
  126OSM    C1113400   3.974   4.701   6.469  0.1215 -0.2479 -0.4359
  126OSM   H11A13401   3.956   4.755   6.374  1.1275 -2.2359 -1.8354
  126OSM   H11B13402   4.020   4.775   6.538 -0.4736 -0.6113  0.3629
  126OSM      P13403   3.721   4.651   6.449  0.0829 -0.1121 -0.0097
  126OSM    O1313404   3.750   4.690   6.308  0.1250  0.0906  0.1933
  126OSM    O1413405   3.657   4.519   6.475  0.4989  0.1845  0.1525
  126OSM    O1113406   3.617   4.757   6.509 -0.1637  0.0088 -0.0291
  126OSM    O1213407   3.852   4.670   6.529  0.1560  0.4747  0.1655
  126OSM    C1S13408   3.598   4.790   6.644 -0.2124 -0.4139 -0.1957
  126OSM    H1S13409   3.611   4.701   6.709 -0.1869  0.3649  0.8958
  126OSM    H1T13410   3.494   4.822   6.665 -0.1143  0.7464 -1.3520
  126OSM     NF13411   3.633   4.959   6.824  0.1562  0.5774  0.2818
  126OSM    HNF13412   3.581   5.043   6.826 -1.0075  0.0800 -2.8192
  126OSM    C2S13413   3.687   4.910   6.692  0.0486  0.4305 -0.0431
  126OSM    H2S13414   3.791   4.878   6.710  0.3570  0.5418 -1.5167
  126OSM    C3S13415   3.703   5.022   6.589  0.0641  0.4825 -0.1519
  126OSM    H3S13416   3.603   5.063   6.561 -1.1805 -1.9537  0.4021
  126OSM     O313417   3.760   4.977   6.465 -0.1835  0.3872  0.0800
  126OSM    HO313418   3.710   4.897   6.447 -0.2106  0.5101 -0.4014
  126OSM    C4S13419   3.775   5.141   6.648 -0.2779 -0.1280 -0.9263
  126OSM    H4S13420   3.706   5.220   6.682  0.0717  0.1256 -0.7985
  126OSM    C5S13421   3.906   5.167   6.648 -1.0158  0.3062 -0.5384
  126OSM    H5S13422   3.977   5.098   6.601  0.1740  0.6693  0.6720
  126OSM    C6S13423   3.954   5.307   6.677  0.5665  0.3244  0.1673
  126OSM    H6S13424   3.868   5.377   6.683 -0.5571 -0.8789 -1.0260
  126OSM    H6T13425   4.009   5.334   6.584  0.2039  1.4429  0.2720
  126OSM    C7S13426   4.049   5.325   6.797  0.4003  0.5037  0.1509
  126OSM    H7S13427   4.115   5.236   6.805 -2.7676 -2.2539 -1.6306
  126OSM    H7T13428   3.985   5.327   6.888 -0.6885 -2.9662 -0.3817
  126OSM    C8S13429   4.115   5.461   6.789  0.6748 -0.2865  0.2030
  126OSM    H8S13430   4.032   5.532   6.807 -1.9370 -3.1728  0.2217
  126OSM    H8T13431   4.167   5.467   6.690  0.1261  0.5463 -0.0467
  126OSM    C9S13432   4.231   5.467   6.896  0.0047 -0.3072 -0.0681
  126OSM    H9S13433   4.288   5.560   6.879 -1.7019  0.8966  0.4244
  126OSM    H9T13434   4.300   5.383   6.876  1.6580  0.3844  2.2698
  126OSM   C10S13435   4.182   5.435   7.040 -0.2271  0.3046 -0.4035
  126OSM   H10S13436   4.141   5.334   7.059 -1.1993  0.6042 -0.8478
  126OSM   H10T13437   4.106   5.506   7.077 -1.2176 -1.3312  0.8312
  126OSM   C11S13438   4.295   5.443   7.144 -0.4627  0.3634  0.1876
  126OSM   H11S13439   4.318   5.551   7.161 -0.2256  0.4994 -0.9228
  126OSM   H11T13440   4.384   5.404   7.091 -0.3479  1.5006 -0.5042
  126OSM   C12S13441   4.270   5.356   7.271 -0.1693  0.5947 -0.3150
  126OSM   H12S13442   4.259   5.249   7.242  3.4824  0.5057 -1.9455
  126OSM   H12T13443   4.176   5.396   7.315 -0.0598  1.1596 -0.5837
  126OSM   C13S13444   4.376   5.373   7.375 -0.0910  0.3458  0.3688
  126OSM   H13S13445   4.407   5.479   7.390  1.0693  0.4051 -1.9495
  126OSM   H13T13446   4.473   5.324   7.354 -0.1031  0.3142  0.3869
  126OSM   C14S13447   4.328   5.308   7.503 -0.0869 -0.2153 -0.4749
  126OSM   H14S13448   4.315   5.201   7.477 -0.7305 -0.3730  0.4329
  126OSM   H14T13449   4.230   5.350   7.534  0.0591 -1.0352  1.2201
  126OSM   C15S13450   4.426   5.315   7.624 -0.0555 -0.2476  0.0374
  126OSM   H15S13451   4.430   5.419   7.663 -0.5779 -0.8325  1.7728
  126OSM   H15T13452   4.529   5.284   7.599  0.2749  2.0593 -1.7583
  126OSM   C16S13453   4.368   5.236   7.744  0.2763 -0.1686  0.4953
  126OSM   H16S13454   4.320   5.147   7.700  0.3787 -1.0543  2.0965
  126OSM   H16T13455   4.288   5.297   7.791  0.1330  0.6488 -0.7445
  126OSM   C17S13456   4.468   5.198   7.854 -0.3994 -0.0672  0.3301
  126OSM   H17S13457   4.541   5.282   7.860 -0.7264  0.1845  0.8732
  126OSM   H17T13458   4.514   5.103   7.821  1.5764  0.8129  0.3994
  126OSM   C18S13459   4.418   5.170   7.994 -0.6173  0.2405 -0.2224
  126OSM   H18S13460   4.496   5.193   8.070  0.2850  0.8441 -1.3046
  126OSM   H18T13461   4.396   5.061   8.003 -0.0641  0.1202 -0.3077
  126OSM   H18U13462   4.321   5.219   8.019 -3.5984 -4.4742 -1.2320
  126OSM    C1F13463   3.629   4.883   6.925  0.6391  0.4647 -0.2912
  126OSM     OF13464   3.681   4.774   6.925  0.7032 -0.3571 -0.3049
  126OSM    C2F13465   3.555   4.939   7.046  0.0852  0.5691  0.1818
  126OSM    H2F13466   3.449   4.904   7.046 -0.3318  1.6054  2.8114
  126OSM    H2G13467   3.561   5.049   7.032 -0.9298  0.6816  0.5075
  126OSM    C3F13468   3.621   4.903   7.182 -0.3900 -0.4854 -0.2297
  126OSM    H3F13469   3.722   4.948   7.196 -1.1382  0.6334  1.9942
  126OSM    H3G13470   3.619   4.792   7.192  0.3711 -0.4280  0.7337
  126OSM    C4F13471   3.550   4.972   7.304 -0.0817  0.1657  0.6991
  126OSM    H4F13472   3.439   4.964   7.299 -0.1384  1.5380 -1.3450
  126OSM    H4G13473   3.580   5.079   7.297  2.5111 -0.5887 -1.2503
  126OSM    C5F13474   3.585   4.898   7.435 -0.8191  0.4807 -0.3778
  126OSM    H5F13475   3.695   4.882   7.425 -0.7995  1.0575 -1.1822
  126OSM    H5G13476   3.538   4.797   7.428 -2.2343  0.8747  2.2633
  126OSM    C6F13477   3.543   4.957   7.568 -0.7753 -0.1598 -0.4406
  126OSM    H6F13478   3.436   4.985   7.582 -0.5969  0.2053  0.2260
  126OSM    H6G13479   3.594   5.052   7.594 -1.9905  0.4967 -0.4005
  126OSM    C7F13480   3.570   4.856   7.677  0.2603 -0.0419 -0.0255
  126OSM    H7F13481   3.677   4.828   7.674  0.3022  0.1489 -0.4541
  126OSM    H7G13482   3.512   4.764   7.653 -2.2138  1.7174 -1.2674
  126OSM    C8F13483   3.519   4.907   7.817 -0.1037  0.2301  0.0868
  126OSM    H8F13484   3.514   4.813   7.877  1.4413 -1.0516 -1.6783
  126OSM    H8G13485   3.412   4.938   7.810 -0.0208  0.9572  1.6354
  126OSM    C9F13486   3.597   5.010   7.887 -0.4396 -0.6151  0.2349
  126OSM    H9F13487   3.621   5.087   7.813  0.8933 -2.1669 -1.0283
  126OSM   C10F13488   3.625   5.039   8.013  0.7196 -0.1898  0.6138
  126OSM   H10F13489   3.673   5.133   8.041  0.6572 -0.1121  0.4593
  126OSM   C11F13490   3.583   4.964   8.137 -0.6176  0.6926  0.0392
  126OSM   H11F13491   3.518   4.878   8.111  0.3241  0.4216 -1.5563
  126OSM   H11G13492   3.518   5.030   8.198 -0.3414  0.4769  0.5728
  126OSM   C12F13493   3.709   4.931   8.215 -0.4160 -0.4546  0.2353
  126OSM   H12F13494   3.766   5.023   8.241  0.5443 -0.0165 -3.0029
  126OSM   H12G13495   3.775   4.861   8.161 -0.4703  0.9936 -1.7957
  126OSM   C13F13496   3.677   4.866   8.346  0.2937  1.0875 -0.1761
  126OSM   H13F13497   3.611   4.778   8.329 -0.9957  1.9574  0.1805
  126OSM   H13G13498   3.607   4.936   8.396  0.6722  1.1009  0.3464
  126OSM   C14F13499   3.788   4.828   8.447  0.2637 -0.0384  0.2508
  126OSM   H14F13500   3.871   4.784   8.389  0.6241  0.6138  0.2541
  126OSM   H14G13501   3.741   4.756   8.517 -1.6037  0.0942 -0.7854
  126OSM   C15F13502   3.860   4.942   8.516 -1.1719 -0.2143 -0.3862
  126OSM   H15F13503   3.781   5.017   8.539 -0.2589  0.6895 -0.0819
  126OSM   H15G13504   3.933   4.990   8.447 -0.4568 -1.6049 -0.6374
  126OSM   C16F13505   3.927   4.898   8.653 -0.3371  0.4041  0.5392
  126OSM   H16F13506   4.017   4.836   8.635 -0.7662 -0.2538  0.6399
  126OSM   H16G13507   3.869   4.822   8.708 -2.7564  1.1318 -0.8668
  126OSM   C17F13508   3.969   5.016   8.740 -0.1079 -0.2057 -0.4285
  126OSM   H17F13509   3.875   5.070   8.764 -1.0511 -1.5659 -0.9284
  126OSM   H17G13510   4.030   5.095   8.691  0.2075  0.2620  0.6648
  126OSM   C18F13511   4.031   4.977   8.870 -0.2677  0.2767 -0.3582
  126OSM   H18F13512   4.142   4.981   8.867 -0.1598  4.5152  1.8373
  126OSM   H18G13513   4.021   4.874   8.911  1.6569  0.6004  1.0441
  126OSM   H18H13514   4.004   5.042   8.956 -4.7945 -0.5508 -0.9021
  127OSM      N13515   6.335   5.033   5.878 -0.0232  0.4185 -0.0849
  127OSM    C1513516   6.258   4.972   5.764  0.5850 -0.5553  0.2996
  127OSM   H15A13517   6.315   4.994   5.676 -0.5995  0.8905 -0.1461
  127OSM   H15B13518   6.160   5.016   5.756  0.6138 -0.5606 -0.0877
  127OSM   H15C13519   6.251   4.867   5.788 -1.5419 -0.3121  0.9499
  127OSM    C1413520   6.470   4.981   5.877  0.2292 -0.5258 -0.0157
  127OSM   H14A13521   6.523   5.006   5.786  1.5780 -0.7824  0.6697
  127OSM   H14B13522   6.483   4.875   5.890  1.6295 -0.3791 -0.0672
  127OSM   H14C13523   6.519   5.034   5.958 -0.7122 -0.2720  0.4069
  127OSM    C1313524   6.337   5.179   5.851 -0.1258  0.8201  0.0935
  127OSM   H13A13525   6.238   5.221   5.843 -0.4422  0.1191  0.2019
  127OSM   H13B13526   6.382   5.203   5.756 -1.6206 -0.5931 -1.0308
  127OSM   H13C13527   6.395   5.228   5.927  2.5844 -1.4230 -0.3427
  127OSM    C1213528   6.277   4.995   6.011  0.7462 -0.4762 -0.2589
  127OSM   H12A13529   6.274   4.887   6.016 -0.1222 -0.7235 -3.6329
  127OSM   H12B13530   6.171   5.017   6.007  0.8148 -0.0337  0.2161
  127OSM    C1113531   6.337   5.046   6.147 -0.1909 -0.0084  0.1070
  127OSM   H11A13532   6.435   4.995   6.161  0.7305  1.4603 -0.6937
  127OSM   H11B13533   6.288   5.001   6.236 -0.8113  0.0754 -0.1850
  127OSM      P13534   6.254   5.290   6.177 -0.2376 -0.1298  0.1659
  127OSM    O1313535   6.314   5.421   6.167  0.1499 -1.0157  0.7925
  127OSM    O1413536   6.140   5.270   6.088  1.3143 -0.1782 -0.2298
  127OSM    O1113537   6.213   5.258   6.329  0.3856 -0.0617  0.4431
  127OSM    O1213538   6.368   5.181   6.149  0.4829  0.1562  0.9741
  127OSM    C1S13539   6.315   5.228   6.421 -0.2685  0.1291 -0.7007
  127OSM    H1S13540   6.390   5.310   6.424 -1.3703  1.1529 -0.6100
  127OSM    H1T13541   6.368   5.132   6.402 -1.2864 -0.4048 -0.8894
  127OSM     NF13542   6.381   5.193   6.652  0.1541 -0.1939 -0.0069
  127OSM    HNF13543   6.399   5.097   6.672  0.9719  0.2728  1.6243
  127OSM    C2S13544   6.260   5.225   6.568 -0.1995  0.7462 -0.0468
  127OSM    H2S13545   6.225   5.327   6.596  0.5218  0.8232  0.6188
  127OSM    C3S13546   6.144   5.124   6.582  0.5247 -0.0070  0.1453
  127OSM    H3S13547   6.192   5.023   6.578 -3.0740 -1.9014  0.2563
  127OSM     O313548   6.037   5.135   6.492 -0.2122 -0.0945  0.2229
  127OSM    HO313549   6.085   5.182   6.424 -0.0132  0.7574  0.9241
  127OSM    C4S13550   6.099   5.143   6.723 -0.2652  0.4355 -0.1517
  127OSM    H4S13551   6.154   5.072   6.787 -1.2527  0.1346  0.3887
  127OSM    C5S13552   5.998   5.212   6.773 -0.0678  0.2352 -0.9472
  127OSM    H5S13553   5.926   5.264   6.708 -0.4637  2.3524  1.0876
  127OSM    C6S13554   5.958   5.204   6.919 -0.3988 -0.9380  0.1971
  127OSM    H6S13555   5.973   5.103   6.962  1.1055 -0.6660  0.3608
  127OSM    H6T13556   5.853   5.233   6.942  0.1756 -1.0614  3.4622
  127OSM    C7S13557   6.047   5.298   7.002  0.8594 -1.2414 -0.7822
  127OSM    H7S13558   6.047   5.400   6.958  1.7917 -0.8085  0.1858
  127OSM    H7T13559   6.152   5.262   6.999  1.2665 -0.1070 -0.3172
  127OSM    C8S13560   6.009   5.323   7.154 -0.9161 -0.1485  0.1060
  127OSM    H8S13561   5.994   5.220   7.193 -1.4600 -0.6186 -1.2818
  127OSM    H8T13562   5.905   5.362   7.157 -0.2615  1.6903  3.2456
  127OSM    C9S13563   6.108   5.403   7.234  0.0656 -0.0470 -0.0560
  127OSM    H9S13564   6.107   5.513   7.215 -3.1939 -0.0949 -0.6241
  127OSM    H9T13565   6.210   5.363   7.214  0.0251 -0.4095  0.4556
  127OSM   C10S13566   6.083   5.386   7.384  0.1985 -0.1483 -0.5647
  127OSM   H10S13567   6.088   5.276   7.399 -0.7211  0.1003  2.0693
  127OSM   H10T13568   5.978   5.420   7.400  0.2172  0.6575 -1.9475
  127OSM   C11S13569   6.178   5.452   7.480 -0.1048 -0.1076 -0.0078
  127OSM   H11S13570   6.196   5.560   7.458 -0.5037  0.4640  2.1670
  127OSM   H11T13571   6.278   5.408   7.468  0.4358  1.7106 -3.5198
  127OSM   C12S13572   6.144   5.433   7.627 -0.1017 -0.0230 -0.6816
  127OSM   H12S13573   6.151   5.325   7.651 -1.2449  0.3843  1.7575
  127OSM   H12T13574   6.042   5.460   7.663  0.6899 -0.0430  1.7154
  127OSM   C13S13575   6.247   5.502   7.725  0.6777 -0.9190 -0.0288
  127OSM   H13S13576   6.229   5.610   7.704 -1.1695 -1.3405 -0.8556
  127OSM   H13T13577   6.353   5.478   7.704  0.8363 -0.3254  0.0659
  127OSM   C14S13578   6.216   5.485   7.872 -0.6026  0.4935  0.1614
  127OSM   H14S13579   6.231   5.386   7.921 -2.0058  1.5993  3.1136
  127OSM   H14T13580   6.114   5.525   7.892 -0.3833  0.7226  0.8667
  127OSM   C15S13581   6.301   5.591   7.952  0.8854 -0.6806 -0.4161
  127OSM   H15S13582   6.297   5.686   7.895  2.0363 -0.5136 -0.2258
  127OSM   H15T13583   6.406   5.558   7.961  1.0585 -0.7703 -2.4445
  127OSM   C16S13584   6.225   5.623   8.086 -0.0819  0.8369  0.3481
  127OSM   H16S13585   6.196   5.522   8.121 -1.1503  0.4953 -1.4245
  127OSM   H16T13586   6.130   5.673   8.057  0.3946  1.5021 -0.0923
  127OSM   C17S13587   6.308   5.712   8.177  0.1138  0.0137 -0.3602
  127OSM   H17S13588   6.323   5.813   8.133 -0.7222  0.4369  0.2901
  127OSM   H17T13589   6.409   5.666   8.181  0.5960  0.9817 -0.9144
  127OSM   C18S13590   6.245   5.735   8.317 -0.5630  0.3418  0.3675
  127OSM   H18S13591   6.205   5.635   8.347  0.1645 -0.3256 -0.8002
  127OSM   H18T13592   6.161   5.807   8.315  1.2498  2.5959  1.2373
  127OSM   H18U13593   6.317   5.768   8.394 -0.0589 -0.4010  0.2320
  127OSM    C1F13594   6.472   5.279   6.691  0.1538 -0.1383 -0.9095
  127OSM     OF13595   6.476   5.390   6.648 -0.6610 -0.5256  0.6652
  127OSM    C2F13596   6.568   5.223   6.794  0.3200 -0.0500 -0.1050
  127OSM    H2F13597   6.547   5.121   6.833 -0.2001  0.7182  1.7042
  127OSM    H2G13598   6.554   5.283   6.887  1.3524 -1.0939  0.7568
  127OSM    C3F13599   6.718   5.240   6.756  0.5484 -0.6285  0.2870
  127OSM    H3F13600   6.750   5.340   6.721  1.2738 -0.9541  0.0103
  127OSM    H3G13601   6.750   5.171   6.675 -0.5952 -1.6416  0.6603
  127OSM    C4F13602   6.812   5.221   6.882  0.3410 -0.2942 -0.3592
  127OSM    H4F13603   6.765   5.279   6.964  0.3967 -1.5793  0.6136
  127OSM    H4G13604   6.910   5.272   6.866 -0.4984  1.2052 -0.8362
  127OSM    C5F13605   6.826   5.076   6.933 -0.3534 -0.6167  0.5491
  127OSM    H5F13606   6.906   5.017   6.882 -1.8234 -1.1451 -1.2386
  127OSM    H5G13607   6.729   5.022   6.927 -0.2842 -1.1147  2.9336
  127OSM    C6F13608   6.859   5.076   7.081  0.0437  1.2096 -1.1887
  127OSM    H6F13609   6.786   5.136   7.139  0.8337  0.2447  0.9097
  127OSM    H6G13610   6.955   5.126   7.104 -0.7484  2.1947  0.1589
  127OSM    C7F13611   6.856   4.940   7.148  0.2424  0.4914  1.2017
  127OSM    H7F13612   6.945   4.886   7.108  0.2415  0.7182  0.8932
  127OSM    H7G13613   6.771   4.882   7.108  0.8833  0.6566 -0.4730
  127OSM    C8F13614   6.831   4.963   7.295 -0.6264 -0.0018 -0.1865
  127OSM    H8F13615   6.816   4.875   7.362  0.8182  0.1350  0.3532
  127OSM    H8G13616   6.740   5.026   7.310 -1.6256 -1.5669  0.5975
  127OSM    C9F13617   6.949   5.040   7.357 -0.5409  0.0570 -0.0557
  127OSM    H9F13618   6.999   5.113   7.291 -1.1131 -0.5823 -1.2352
  127OSM   C10F13619   7.001   5.020   7.481  0.2089  0.5082  0.3389
  127OSM   H10F13620   7.074   5.096   7.510 -1.1667  1.7833  0.5628
  127OSM   C11F13621   6.943   4.930   7.591 -0.1206 -0.0146 -0.6465
  127OSM   H11F13622   7.014   4.849   7.620 -0.5900 -0.4900 -0.8131
  127OSM   H11G13623   6.853   4.872   7.561  0.4445 -0.5686 -1.3240
  127OSM   C12F13624   6.905   5.014   7.719 -0.4118 -0.2819  0.1011
  127OSM   H12F13625   6.992   5.071   7.758  2.1238 -3.1662 -0.8889
  127OSM   H12G13626   6.883   4.937   7.795  1.7419 -0.9493  0.1197
  127OSM   C13F13627   6.776   5.097   7.696 -0.0338 -0.4229  0.0538
  127OSM   H13F13628   6.691   5.025   7.690 -1.6296  1.1205  2.5011
  127OSM   H13G13629   6.784   5.148   7.598  0.4921 -1.4736 -0.4603
  127OSM   C14F13630   6.737   5.200   7.805  0.5226 -0.0318 -0.1169
  127OSM   H14F13631   6.650   5.260   7.770  0.0787 -0.3343  0.4597
  127OSM   H14G13632   6.827   5.262   7.825  0.3274  0.6424 -1.2396
  127OSM   C15F13633   6.689   5.129   7.936  0.1846 -0.1334 -0.2311
  127OSM   H15F13634   6.758   5.057   7.985  0.1050  0.3042  0.5423
  127OSM   H15G13635   6.601   5.070   7.904  1.0753 -0.8983 -1.3972
  127OSM   C16F13636   6.648   5.248   8.031 -0.4645  1.0303 -1.2062
  127OSM   H16F13637   6.587   5.322   7.976 -1.6144  0.2469 -1.0149
  127OSM   H16G13638   6.734   5.296   8.081 -0.0253 -0.9039  0.0208
  127OSM   C17F13639   6.564   5.179   8.151 -0.0128 -0.8291  0.5953
  127OSM   H17F13640   6.628   5.119   8.220  0.1512 -1.2645  0.0667
  127OSM   H17G13641   6.483   5.114   8.113 -1.2070  0.7150  0.3804
  127OSM   C18F13642   6.503   5.287   8.232  0.4931 -0.5762 -0.1960
  127OSM   H18F13643   6.457   5.370   8.173 -0.9694 -1.8709 -0.9629
  127OSM   H18G13644   6.582   5.330   8.297 -0.7022  0.4232  0.6293
  127OSM   H18H13645   6.424   5.249   8.299  0.1427  1.2158  0.4540
  128OSM      N13646   2.011   3.973   5.883 -0.0548 -0.4584 -0.3696
  128OSM    C1513647   2.105   3.869   5.842  0.0963  0.6618 -0.5090
  128OSM   H15A13648   2.078   3.831   5.745 -0.8130  1.8783 -0.7592
  128OSM   H15B13649   2.103   3.784   5.909 -0.1205  0.4160 -0.8270
  128OSM   H15C13650   2.207   3.902   5.832  0.2552 -0.4737 -3.8101
  128OSM    C1413651   2.066   4.014   6.025 -0.1876 -0.3432 -0.0417
  128OSM   H14A13652   2.010   4.097   6.064 -0.5207 -0.8795  0.6547
  128OSM   H14B13653   2.170   4.042   6.030 -0.1482 -0.4394 -0.3064
  128OSM   H14C13654   2.053   3.927   6.089  2.6936 -0.2874  0.7491
  128OSM    C1313655   2.029   4.091   5.791 -0.4122 -0.1034 -1.0072
  128OSM   H13A13656   2.007   4.060   5.690 -0.0390 -3.9453 -0.0832
  128OSM   H13B13657   2.127   4.135   5.790 -0.9304  1.0921 -0.8881
  128OSM   H13C13658   1.965   4.172   5.822  1.6031  0.6085  1.7318
  128OSM    C1213659   1.868   3.918   5.880  0.1302 -0.2258  0.6055
  128OSM   H12A13660   1.850   3.866   5.787  2.9371  0.8646 -0.6744
  128OSM   H12B13661   1.802   4.003   5.880  2.2898  1.5363  1.0359
  128OSM    C1113662   1.816   3.821   5.992  0.7072  0.3023 -0.3963
  128OSM   H11A13663   1.711   3.788   5.972 -0.1929  1.8057  1.5630
  128OSM   H11B13664   1.813   3.879   6.087 -1.3210  0.1720 -0.3347
  128OSM      P13665   1.936   3.641   6.144 -0.1585 -0.2475  0.0731
  128OSM    O1313666   1.817   3.589   6.215  0.2485 -0.2730 -0.1206
  128OSM    O1413667   2.047   3.552   6.116  0.0873 -0.2212 -0.1029
  128OSM    O1113668   1.992   3.769   6.212  1.0181  0.2148  0.0725
  128OSM    O1213669   1.898   3.704   6.006  0.1193  0.4823  0.4802
  128OSM    C1S13670   1.935   3.828   6.336  0.2477  0.0262  0.3566
  128OSM    H1S13671   1.832   3.796   6.362  0.3462 -0.0361  0.6776
  128OSM    H1T13672   1.928   3.939   6.328  1.3957  0.0737 -0.1905
  128OSM     NF13673   1.949   3.855   6.586 -0.4352  0.8802 -0.1551
  128OSM    HNF13674   1.998   3.929   6.630 -0.0307 -0.6521  2.1118
  128OSM    C2S13675   2.009   3.786   6.466  0.4057  0.0529  0.5181
  128OSM    H2S13676   1.998   3.677   6.486  1.8311 -0.0553  0.8256
  128OSM    C3S13677   2.157   3.821   6.444  0.5145 -0.0717  0.3899
  128OSM    H3S13678   2.153   3.931   6.433 -2.4014 -0.1528 -0.0846
  128OSM     O313679   2.225   3.776   6.329 -0.0904  0.6660  0.8957
  128OSM    HO313680   2.157   3.769   6.262 -1.3560  0.3728  2.1565
  128OSM    C4S13681   2.242   3.781   6.558  0.3510 -0.6275  0.6265
  128OSM    H4S13682   2.280   3.867   6.617 -0.7671 -0.2924  0.8889
  128OSM    C5S13683   2.288   3.661   6.603  0.0794  0.1964  0.3882
  128OSM    H5S13684   2.261   3.572   6.544 -2.4322 -0.0149  1.7422
  128OSM    C6S13685   2.360   3.625   6.735  0.8819 -0.6631  0.8087
  128OSM    H6S13686   2.455   3.578   6.700  0.5549  0.1955 -1.3217
  128OSM    H6T13687   2.295   3.552   6.788  1.6266 -1.4839  0.6142
  128OSM    C7S13688   2.398   3.729   6.847  0.4693 -0.0864  0.8796
  128OSM    H7S13689   2.466   3.799   6.794  0.8174 -1.6001 -0.7808
  128OSM    H7T13690   2.454   3.669   6.922  1.8161 -3.7441 -2.6528
  128OSM    C8S13691   2.277   3.803   6.911 -0.1545 -0.7601 -0.7322
  128OSM    H8S13692   2.193   3.731   6.912  0.3187 -1.3178  0.4649
  128OSM    H8T13693   2.247   3.886   6.845 -0.3620  1.8669  2.4246
  128OSM    C9S13694   2.316   3.850   7.053 -0.0032 -0.0742 -0.2693
  128OSM    H9S13695   2.420   3.816   7.071 -0.3224 -0.0982  1.7167
  128OSM    H9T13696   2.247   3.806   7.128 -1.2928  1.9091 -0.2274
  128OSM   C10S13697   2.331   3.999   7.074  0.2356 -0.0316  0.3643
  128OSM   H10S13698   2.235   4.049   7.047  0.6068  2.4574  3.1237
  128OSM   H10T13699   2.405   4.028   6.996 -1.9002 -1.2522 -2.2785
  128OSM   C11S13700   2.367   4.043   7.212 -1.1154 -1.0025  0.6922
  128OSM   H11S13701   2.457   3.983   7.237 -0.1865  0.3451  0.6747
  128OSM   H11T13702   2.290   4.019   7.288 -3.1943  1.9822 -0.3085
  128OSM   C12S13703   2.424   4.190   7.226  1.4289 -0.2270  0.1902
  128OSM   H12S13704   2.345   4.259   7.192  2.8074  0.8598 -0.9096
  128OSM   H12T13705   2.497   4.205   7.144 -1.3366 -0.6256 -2.5183
  128OSM   C13S13706   2.492   4.215   7.362  0.5490 -0.1719 -0.5011
  128OSM   H13S13707   2.543   4.314   7.358 -0.1191  0.2140  0.1903
  128OSM   H13T13708   2.559   4.133   7.394  0.0523 -0.8344 -1.1346
  128OSM   C14S13709   2.395   4.254   7.482  0.5811  0.3758  0.7502
  128OSM   H14S13710   2.350   4.168   7.536 -1.5921 -0.1930 -1.7332
  128OSM   H14T13711   2.316   4.303   7.422  0.2751 -1.9315 -0.8836
  128OSM   C15S13712   2.459   4.355   7.578  0.9308 -0.3475 -0.2721
  128OSM   H15S13713   2.384   4.436   7.578 -1.1111 -2.1013 -1.8166
  128OSM   H15T13714   2.559   4.394   7.550  0.3091 -0.1844 -2.4362
  128OSM   C16S13715   2.479   4.294   7.720  0.2376  0.7040 -0.2893
  128OSM   H16S13716   2.556   4.215   7.707  0.7600  1.3913 -1.4332
  128OSM   H16T13717   2.385   4.237   7.738  1.2362 -0.8625  0.1971
  128OSM   C17S13718   2.527   4.398   7.819 -0.4132 -0.2403 -0.3776
  128OSM   H17S13719   2.453   4.481   7.828  0.5320  0.3530  4.5360
  128OSM   H17T13720   2.629   4.430   7.790 -0.7529  1.4202  0.1454
  128OSM   C18S13721   2.533   4.340   7.960  0.1684  0.4435 -0.5077
  128OSM   H18S13722   2.428   4.321   7.990  0.0718  2.1161  0.3111
  128OSM   H18T13723   2.573   4.407   8.039 -1.7501  0.0865  0.8277
  128OSM   H18U13724   2.588   4.243   7.961  0.1929  0.4584 -0.4079
  128OSM    C1F13725   1.822   3.857   6.627 -0.5698  0.6460  0.3782
  128OSM     OF13726   1.728   3.816   6.561  0.8785 -0.2352 -0.3777
  128OSM    C2F13727   1.797   3.912   6.768  0.3238 -0.2778 -0.5839
  128OSM    H2F13728   1.784   3.821   6.829  0.8676  0.1413  0.1710
  128OSM    H2G13729   1.696   3.958   6.769 -0.0940 -1.0947 -2.0994
  128OSM    C3F13730   1.913   3.994   6.826  0.4807 -0.1481 -0.0626
  128OSM    H3F13731   1.916   4.087   6.765 -1.2051 -0.0223  0.0039
  128OSM    H3G13732   2.010   3.946   6.804 -0.2735 -1.0046 -1.6856
  128OSM    C4F13733   1.891   4.021   6.976 -0.4047 -0.4552 -0.5217
  128OSM    H4F13734   1.804   4.087   6.995  0.2287  0.5997 -1.2078
  128OSM    H4G13735   1.964   4.093   7.018 -2.0362  0.4750  0.8740
  128OSM    C5F13736   1.886   3.906   7.070 -1.0383 -0.9743 -0.3301
  128OSM    H5F13737   1.967   3.838   7.036 -1.0000 -0.1653 -1.9618
  128OSM    H5G13738   1.792   3.848   7.066 -1.2368 -0.5961 -1.5616
  128OSM    C6F13739   1.935   3.969   7.207 -0.2532 -0.1041  0.0305
  128OSM    H6F13740   1.870   4.051   7.243 -0.3858 -0.4427  0.5770
  128OSM    H6G13741   2.035   4.012   7.186  0.7043 -1.5821  1.3352
  128OSM    C7F13742   1.935   3.851   7.311 -0.4813 -0.1708  0.0324
  128OSM    H7F13743   2.008   3.767   7.312 -1.2030 -0.8092 -0.4173
  128OSM    H7G13744   1.837   3.802   7.292 -0.7116 -1.2197  3.3297
  128OSM    C8F13745   1.921   3.913   7.452 -0.2315 -0.0490  0.1537
  128OSM    H8F13746   1.883   3.826   7.509  0.8594 -0.8297 -0.2765
  128OSM    H8G13747   1.851   3.998   7.456  0.6700  1.0082 -2.9956
  128OSM    C9F13748   2.055   3.973   7.509 -0.5392 -0.4668  0.3933
  128OSM    H9F13749   2.073   4.077   7.481 -0.0380 -1.1719 -2.1436
  128OSM   C10F13750   2.145   3.915   7.599  0.4893 -0.3036  0.1200
  128OSM   H10F13751   2.240   3.965   7.622  0.9438 -0.7220 -0.8294
  128OSM   C11F13752   2.126   3.776   7.654 -0.7384  0.1520  0.4547
  128OSM   H11F13753   2.224   3.724   7.652 -0.9794 -0.2894  0.0791
  128OSM   H11G13754   2.062   3.724   7.580  3.5508 -2.2659 -1.9392
  128OSM   C12F13755   2.091   3.763   7.810 -0.5919 -0.1063  0.7247
  128OSM   H12F13756   2.175   3.815   7.861  0.3886 -1.0055  0.0842
  128OSM   H12G13757   2.117   3.655   7.825  1.0781  0.0283 -0.8388
  128OSM   C13F13758   1.947   3.795   7.839  0.2871  0.0018  0.5348
  128OSM   H13F13759   1.878   3.732   7.779 -3.0330  0.9194  3.0612
  128OSM   H13G13760   1.929   3.903   7.822 -1.5944 -0.5475 -1.4923
  128OSM   C14F13761   1.918   3.770   7.986  0.2822 -0.4177 -0.2779
  128OSM   H14F13762   1.984   3.831   8.052  1.4729 -1.0866 -0.8166
  128OSM   H14G13763   1.949   3.665   8.007 -0.1708 -0.3417  0.8106
  128OSM   C15F13764   1.769   3.788   8.018  0.0340 -0.4082 -0.2431
  128OSM   H15F13765   1.722   3.717   7.946  0.2893  0.2586 -1.0944
  128OSM   H15G13766   1.732   3.886   7.980  1.9204  0.6078  0.3987
  128OSM   C16F13767   1.733   3.764   8.164  0.7012 -0.3245 -0.0101
  128OSM   H16F13768   1.625   3.780   8.183  1.0990 -0.0800  2.3435
  128OSM   H16G13769   1.786   3.846   8.216  5.2936 -2.6233 -0.4630
  128OSM   C17F13770   1.780   3.636   8.220 -0.0267  0.6004  0.7682
  128OSM   H17F13771   1.891   3.635   8.209 -0.0041  2.0346  0.6768
  128OSM   H17G13772   1.753   3.548   8.157  0.6460 -0.0267  1.3300
  128OSM   C18F13773   1.730   3.621   8.366 -1.2821 -0.1575  0.1136
  128OSM   H18F13774   1.785   3.693   8.429 -2.2411  0.1691  0.5954
  128OSM   H18G13775   1.744   3.515   8.397 -1.1202  0.1683  1.1811
  128OSM   H18H13776   1.625   3.656   8.370 -1.8244 -1.3616 -1.9463
  129OSM      N13777   0.519   4.054   6.112 -0.4626 -0.0548  0.0076
  129OSM    C1513778   0.506   3.974   6.240  0.2786  0.1482  0.4777
  129OSM   H15A13779   0.498   4.047   6.319 -0.0864  1.2298 -0.5253
  129OSM   H15B13780   0.596   3.917   6.257 -0.9642 -2.1229 -0.1433
  129OSM   H15C13781   0.427   3.901   6.240  0.9579 -0.6022  0.0565
  129OSM    C1413782   0.538   3.955   5.999  0.1895  0.6346 -0.2104
  129OSM   H14A13783   0.595   3.872   6.035 -0.6854 -0.7468 -1.8494
  129OSM   H14B13784   0.592   3.989   5.911 -1.8156 -1.5754 -2.4518
  129OSM   H14C13785   0.444   3.907   5.977  0.8935 -0.8594 -0.0412
  129OSM    C1313786   0.396   4.144   6.095 -0.3532 -0.0690 -0.0699
  129OSM   H13A13787   0.371   4.197   6.186 -0.2665 -0.0263 -0.0710
  129OSM   H13B13788   0.308   4.084   6.077  0.1978 -0.6804 -0.7762
  129OSM   H13C13789   0.401   4.223   6.020  1.6271  1.8457  1.9326
  129OSM    C1213790   0.642   4.142   6.135 -1.0454 -0.6557 -0.2522
  129OSM   H12A13791   0.630   4.206   6.222 -1.3014 -1.2068  0.1260
  129OSM   H12B13792   0.648   4.215   6.056 -1.9825 -1.3086 -0.9596
  129OSM    C1113793   0.785   4.078   6.149 -0.6091 -0.0534  0.1480
  129OSM   H11A13794   0.862   4.157   6.160  0.7441 -1.5853  2.5225
  129OSM   H11B13795   0.796   4.020   6.055 -0.0385 -1.5857  1.1282
  129OSM      P13796   0.922   3.907   6.288  0.6480 -0.0555 -0.1687
  129OSM    O1313797   0.916   3.777   6.215  0.0392  0.2630  0.0117
  129OSM    O1413798   1.038   3.993   6.261  0.3950 -0.0556 -0.9553
  129OSM    O1113799   0.900   3.869   6.445  0.1267  0.2071 -0.0424
  129OSM    O1213800   0.794   3.996   6.258  0.0325  0.3484 -0.3009
  129OSM    C1S13801   0.992   3.775   6.495 -1.0503  0.3285 -0.3407
  129OSM    H1S13802   1.095   3.817   6.506  0.0675 -2.2836 -0.0678
  129OSM    H1T13803   1.001   3.679   6.440 -1.5109  0.3076 -0.3812
  129OSM     NF13804   1.071   3.641   6.697  0.0631 -0.1210 -0.1096
  129OSM    HNF13805   1.052   3.543   6.702  1.3712 -0.3464  1.0379
  129OSM    C2S13806   0.957   3.729   6.643  0.4610  0.1001 -0.7404
  129OSM    H2S13807   0.955   3.830   6.689 -1.1185 -0.5499  0.6896
  129OSM    C3S13808   0.816   3.665   6.648  0.2546  0.2412  0.1070
  129OSM    H3S13809   0.819   3.577   6.579  1.2556  0.6125 -0.3360
  129OSM     O313810   0.714   3.743   6.585  0.6116  0.6771  0.3417
  129OSM    HO313811   0.769   3.803   6.535  2.2539 -0.5502  0.6028
  129OSM    C4S13812   0.769   3.625   6.784 -0.4966  0.2892 -0.1486
  129OSM    H4S13813   0.787   3.701   6.861 -1.4351 -0.3319  0.7159
  129OSM    C5S13814   0.700   3.514   6.817 -0.7136 -0.4871 -0.4653
  129OSM    H5S13815   0.682   3.436   6.742 -1.5488 -0.8795  0.1180
  129OSM    C6S13816   0.648   3.477   6.947 -0.2977 -0.3135  0.4256
  129OSM    H6S13817   0.686   3.552   7.020  1.5834 -1.7626  1.0022
  129OSM    H6T13818   0.688   3.382   6.988  0.4223  0.6942  2.1903
  129OSM    C7S13819   0.495   3.488   6.968  0.0067 -0.1328  0.1749
  129OSM    H7S13820   0.455   3.398   6.916 -0.3028 -0.0945  0.3501
  129OSM    H7T13821   0.458   3.579   6.916 -0.0253 -1.4986 -2.3756
  129OSM    C8S13822   0.461   3.492   7.117 -0.5472  0.1590 -0.0380
  129OSM    H8S13823   0.351   3.489   7.133 -0.2701 -2.3762  2.2147
  129OSM    H8T13824   0.489   3.583   7.175 -0.6798 -0.0754  0.4024
  129OSM    C9S13825   0.521   3.372   7.193 -0.5089  0.6280  0.4575
  129OSM    H9S13826   0.631   3.379   7.180 -0.7155  0.5164 -1.7184
  129OSM    H9T13827   0.480   3.283   7.140 -2.4168  1.3663  0.6023
  129OSM   C10S13828   0.478   3.374   7.336 -0.4346  0.3952 -0.6799
  129OSM   H10S13829   0.378   3.326   7.343 -0.5844  0.5935 -1.4011
  129OSM   H10T13830   0.474   3.483   7.362  0.5848  0.9490 -2.6678
  129OSM   C11S13831   0.565   3.300   7.436 -0.6560  0.2585  0.2364
  129OSM   H11S13832   0.668   3.341   7.425  0.0373 -1.1661  1.1500
  129OSM   H11T13833   0.561   3.192   7.410  0.8998 -0.2281  1.8586
  129OSM   C12S13834   0.523   3.331   7.583 -0.6483 -0.4773  1.1419
  129OSM   H12S13835   0.422   3.287   7.598 -1.0934  0.9938  2.8245
  129OSM   H12T13836   0.507   3.440   7.594 -1.0411 -0.5949  1.8325
  129OSM   C13S13837   0.627   3.273   7.677 -0.1470  0.3629  0.5981
  129OSM   H13S13838   0.732   3.309   7.668  0.4305 -1.7608 -2.5990
  129OSM   H13T13839   0.642   3.165   7.655  2.5595  0.4129  1.7773
  129OSM   C14S13840   0.583   3.283   7.828 -0.1747 -0.4195 -0.1759
  129OSM   H14S13841   0.472   3.282   7.834 -0.1288 -1.5080  1.1341
  129OSM   H14T13842   0.613   3.385   7.860 -0.9065  0.1445 -1.2047
  129OSM   C15S13843   0.638   3.168   7.912 -0.3383 -0.0656  0.1764
  129OSM   H15S13844   0.749   3.158   7.908 -0.4114 -1.4169  0.8421
  129OSM   H15T13845   0.595   3.075   7.869  1.1907 -1.8322  2.2057
  129OSM   C16S13846   0.618   3.181   8.063 -0.3438  0.3455  0.2840
  129OSM   H16S13847   0.509   3.187   8.082 -0.3600 -0.4774  0.4630
  129OSM   H16T13848   0.677   3.271   8.091 -0.0288  0.7254 -1.5095
  129OSM   C17S13849   0.670   3.065   8.143 -0.5371 -0.3525  0.4212
  129OSM   H17S13850   0.779   3.049   8.130 -0.4495  0.1423  0.5123
  129OSM   H17T13851   0.627   2.969   8.108  2.0192 -1.2941 -0.3903
  129OSM   C18S13852   0.667   3.087   8.298  0.0945  0.3494 -0.6868
  129OSM   H18S13853   0.677   2.985   8.341  0.6274  0.1004 -1.3795
  129OSM   H18T13854   0.564   3.126   8.314  0.6860  1.3811  0.8241
  129OSM   H18U13855   0.733   3.163   8.345  0.8332 -1.5656  1.5363
  129OSM    C1F13856   1.191   3.705   6.716 -0.1663 -0.3025 -0.4807
  129OSM     OF13857   1.200   3.824   6.736 -0.5068 -0.2784 -0.1306
  129OSM    C2F13858   1.311   3.616   6.702 -0.4329  0.3447 -0.3024
  129OSM    H2F13859   1.380   3.655   6.624  1.9838 -2.1773  0.4158
  129OSM    H2G13860   1.269   3.521   6.663  0.4636 -0.5438  0.8148
  129OSM    C3F13861   1.403   3.606   6.834 -0.0144  0.2847 -0.0218
  129OSM    H3F13862   1.486   3.535   6.815  0.6864  0.9151  0.6442
  129OSM    H3G13863   1.348   3.568   6.922 -0.4619  0.5951 -0.1643
  129OSM    C4F13864   1.473   3.738   6.863  0.2289  0.1469  0.6132
  129OSM    H4F13865   1.399   3.818   6.882 -0.4268 -0.4833  0.7749
  129OSM    H4G13866   1.543   3.770   6.782 -1.1946 -1.6413 -1.4501
  129OSM    C5F13867   1.556   3.739   6.988 -0.0092 -0.2473  0.1984
  129OSM    H5F13868   1.609   3.836   6.980  1.4453 -0.9740  0.5383
  129OSM    H5G13869   1.639   3.664   6.993  1.2237  0.8712 -2.1350
  129OSM    C6F13870   1.478   3.732   7.129  1.1875 -0.0483  0.3482
  129OSM    H6F13871   1.435   3.632   7.149  1.4178 -0.2108  0.0253
  129OSM    H6G13872   1.408   3.819   7.138  2.4683  1.1002 -0.3807
  129OSM    C7F13873   1.579   3.750   7.248 -0.0462  0.3780  0.7305
  129OSM    H7F13874   1.642   3.840   7.231 -1.9300  2.1791  2.6885
  129OSM    H7G13875   1.631   3.653   7.243 -0.5925  0.1075  0.1992
  129OSM    C8F13876   1.506   3.761   7.387 -0.0642 -0.0923 -0.6283
  129OSM    H8F13877   1.432   3.845   7.385  0.6264  0.6354  1.4618
  129OSM    H8G13878   1.579   3.794   7.465 -0.6683 -0.3128  0.0452
  129OSM    C9F13879   1.421   3.643   7.436 -0.0020 -0.9889  0.4589
  129OSM    H9F13880   1.334   3.627   7.371 -0.4512 -2.2246  1.3243
  129OSM   C10F13881   1.439   3.587   7.558  0.6474  0.1360  0.3177
  129OSM   H10F13882   1.364   3.512   7.587  1.8024 -0.5377  1.7112
  129OSM   C11F13883   1.541   3.603   7.667 -1.0145  0.1179 -0.0682
  129OSM   H11F13884   1.590   3.702   7.671  0.9592 -0.8529  0.9065
  129OSM   H11G13885   1.622   3.530   7.647 -0.0931  1.6879 -2.4427
  129OSM   C12F13886   1.484   3.586   7.805  0.2646  0.0763 -0.5085
  129OSM   H12F13887   1.573   3.575   7.871 -0.4039  0.3659  0.4651
  129OSM   H12G13888   1.429   3.491   7.823  0.0709  0.3151  0.1549
  129OSM   C13F13889   1.391   3.699   7.847 -0.1994 -0.3497  0.4091
  129OSM   H13F13890   1.298   3.689   7.787  0.0146 -1.0724  0.1880
  129OSM   H13G13891   1.449   3.791   7.823 -0.0908  0.1782  2.5091
  129OSM   C14F13892   1.357   3.692   7.993 -0.3330  0.1123 -0.6052
  129OSM   H14F13893   1.448   3.722   8.049 -0.0187 -0.4413 -0.8092
  129OSM   H14G13894   1.341   3.586   8.025  1.0938  0.0276 -0.0928
  129OSM   C15F13895   1.245   3.790   8.042  0.8216  0.7268 -0.3679
  129OSM   H15F13896   1.151   3.743   8.008  1.0101 -0.4954  0.7102
  129OSM   H15G13897   1.257   3.890   7.997 -0.4811  0.9561 -0.2268
  129OSM   C16F13898   1.228   3.799   8.196 -0.7605  0.0248  0.0459
  129OSM   H16F13899   1.318   3.856   8.226 -0.2220  0.4483 -2.1714
  129OSM   H16G13900   1.233   3.694   8.230 -0.2547  0.0329  0.0035
  129OSM   C17F13901   1.104   3.877   8.237  0.2812  0.7900  0.2612
  129OSM   H17F13902   1.011   3.846   8.187  0.7659 -1.2987  0.5691
  129OSM   H17G13903   1.120   3.985   8.216 -1.7858  0.3832 -4.9117
  129OSM   C18F13904   1.072   3.860   8.384  0.2769  0.1874 -0.4108
  129OSM   H18F13905   1.160   3.888   8.445  0.9273 -1.2385 -0.6426
  129OSM   H18G13906   1.042   3.758   8.417  0.4506  0.1158 -0.4718
  129OSM   H18H13907   0.993   3.932   8.414  0.4711  0.3790 -0.3656
  130OSM      N13908   3.342   1.844   6.239  1.1501  0.7274  0.1374
  130OSM    C1513909   3.456   1.749   6.244  0.1810 -0.0185  0.6619
  130OSM   H15A13910   3.433   1.660   6.188 -0.4972 -0.1919  1.2111
  130OSM   H15B13911   3.469   1.710   6.344  0.2038 -0.3436  0.5310
  130OSM   H15C13912   3.543   1.805   6.213  0.5546  0.0108  1.7091
  130OSM    C1413913   3.338   1.910   6.107 -0.8308 -0.2092  0.2447
  130OSM   H14A13914   3.347   1.827   6.038 -2.2557  0.7256 -1.1434
  130OSM   H14B13915   3.413   1.988   6.098 -3.0534  1.9083 -1.3998
  130OSM   H14C13916   3.245   1.963   6.093 -0.9735 -0.2901  0.8951
  130OSM    C1313917   3.220   1.758   6.262  0.9567 -0.3648  0.2384
  130OSM   H13A13918   3.216   1.697   6.351 -0.7986  0.3192  0.6818
  130OSM   H13B13919   3.186   1.703   6.176 -3.5788  1.6051  0.4540
  130OSM   H13C13920   3.138   1.822   6.292  1.7435  0.3044  1.0201
  130OSM    C1213921   3.345   1.948   6.357  0.3923  1.3071  0.8839
  130OSM   H12A13922   3.422   2.021   6.334  0.4776  1.0197  0.2311
  130OSM   H12B13923   3.376   1.892   6.444  3.3028  1.4854  0.0895
  130OSM    C1113924   3.218   2.039   6.377  0.2572 -0.3638  0.0983
  130OSM   H11A13925   3.245   2.096   6.469  2.4615 -1.5334  0.2426
  130OSM   H11B13926   3.123   1.985   6.394 -0.2090 -0.3924 -2.3013
  130OSM      P13927   3.260   2.268   6.270  0.1877 -0.1838 -0.1828
  130OSM    O1313928   3.400   2.249   6.232  0.1054 -0.4658 -0.4917
  130OSM    O1413929   3.192   2.359   6.181  0.6912 -0.1012  0.0601
  130OSM    O1113930   3.255   2.329   6.413  1.1633  0.3797 -0.3908
  130OSM    O1213931   3.188   2.125   6.270  0.1253 -0.1318  0.2524
  130OSM    C1S13932   3.124   2.359   6.473  0.4376 -0.4595  0.2181
  130OSM    H1S13933   3.047   2.284   6.446  2.2517 -1.5767 -2.1836
  130OSM    H1T13934   3.084   2.457   6.440 -1.5993 -1.3183  0.0126
  130OSM     NF13935   2.993   2.371   6.686 -0.0909 -0.1752 -0.4030
  130OSM    HNF13936   2.972   2.465   6.712 -0.8511 -0.3453 -0.3823
  130OSM    C2S13937   3.132   2.358   6.628  1.0368  0.0857  0.6491
  130OSM    H2S13938   3.170   2.257   6.657  0.8968 -0.1965 -0.1246
  130OSM    C3S13939   3.240   2.462   6.688  0.1454 -0.3780  0.4037
  130OSM    H3S13940   3.218   2.560   6.639 -0.5635 -1.0461 -0.6724
  130OSM     O313941   3.375   2.429   6.662 -0.5333 -0.1652  0.1617
  130OSM    HO313942   3.373   2.368   6.589 -1.3696  1.5260 -1.2977
  130OSM    C4S13943   3.234   2.472   6.838 -0.5546  0.1383  0.0148
  130OSM    H4S13944   3.313   2.412   6.885  1.6156  1.8639 -1.2198
  130OSM    C5S13945   3.171   2.558   6.911 -0.2577 -0.2735  0.1451
  130OSM    H5S13946   3.094   2.628   6.874  0.3788  0.4420  0.1520
  130OSM    C6S13947   3.180   2.562   7.060  1.0444 -0.1995 -0.3977
  130OSM    H6S13948   3.230   2.650   7.105  1.9049 -1.6341  1.5984
  130OSM    H6T13949   3.255   2.493   7.104  0.1550 -0.3844  0.8596
  130OSM    C7S13950   3.045   2.525   7.133  0.4075  0.3487  0.4703
  130OSM    H7S13951   3.017   2.422   7.102  0.0784  0.7479 -0.6051
  130OSM    H7T13952   2.973   2.604   7.103 -1.5070 -1.4784  0.0451
  130OSM    C8S13953   3.055   2.522   7.291  0.3549 -0.5870  0.7999
  130OSM    H8S13954   3.096   2.619   7.326 -0.1533 -1.1042  2.9627
  130OSM    H8T13955   3.134   2.448   7.316  1.2005  0.2939  0.7889
  130OSM    C9S13956   2.941   2.450   7.365 -0.9630  0.1781  1.1311
  130OSM    H9S13957   2.931   2.347   7.324  0.0675  0.2197  0.7474
  130OSM    H9T13958   2.840   2.491   7.345 -0.8858 -0.3814 -0.6510
  130OSM   C10S13959   2.950   2.440   7.515 -0.0429  0.1588 -0.5038
  130OSM   H10S13960   3.052   2.413   7.551  0.0917  1.4428  0.1456
  130OSM   H10T13961   2.875   2.365   7.548 -1.0163 -0.1379 -3.1504
  130OSM   C11S13962   2.915   2.570   7.587  0.2089  0.7559  0.0813
  130OSM   H11S13963   2.804   2.567   7.582  0.1824  2.2580 -0.8393
  130OSM   H11T13964   2.957   2.656   7.531 -0.5113  0.2695 -1.2581
  130OSM   C12S13965   2.969   2.565   7.730  0.4618 -0.3230  0.4509
  130OSM   H12S13966   3.079   2.576   7.720  0.3925  0.8269  0.8166
  130OSM   H12T13967   2.963   2.466   7.781  3.2045  0.0081  1.5329
  130OSM   C13S13968   2.924   2.663   7.840  0.2638  0.3838  0.4790
  130OSM   H13S13969   2.821   2.638   7.873 -0.2959  2.8090  0.7279
  130OSM   H13T13970   2.918   2.761   7.788  0.8581 -0.2060 -0.7466
  130OSM   C14S13971   3.022   2.676   7.953 -0.2159  0.0118  0.4198
  130OSM   H14S13972   3.109   2.733   7.914  0.3978 -1.0174  0.2551
  130OSM   H14T13973   3.065   2.578   7.982 -0.6705  0.1626  1.6922
  130OSM   C15S13974   2.984   2.747   8.077  0.3046 -0.7173 -0.1660
  130OSM   H15S13975   2.884   2.794   8.061  0.8195  0.9431  1.1505
  130OSM   H15T13976   3.063   2.825   8.089 -1.9464  1.6142  0.4680
  130OSM   C16S13977   2.962   2.658   8.210  0.4550 -0.2456  0.1508
  130OSM   H16S13978   3.068   2.639   8.238  0.9593  2.4807  0.3720
  130OSM   H16T13979   2.909   2.574   8.161 -0.6394  1.0186 -0.8901
  130OSM   C17S13980   2.888   2.726   8.328 -0.0611  0.3930  0.4022
  130OSM   H17S13981   2.920   2.663   8.414  0.8127 -0.6434 -0.6617
  130OSM   H17T13982   2.780   2.704   8.319  0.0310  0.4547 -0.9179
  130OSM   C18S13983   2.921   2.875   8.346 -0.0533  0.0620  0.1871
  130OSM   H18S13984   3.029   2.898   8.360  0.0154 -0.3449  0.3240
  130OSM   H18T13985   2.867   2.925   8.430  0.5973  0.0132  0.6374
  130OSM   H18U13986   2.896   2.928   8.251  1.4041 -0.9191 -0.7710
  130OSM    C1F13987   2.909   2.264   6.686  0.2773 -0.5881  0.6128
  130OSM     OF13988   2.946   2.154   6.650  0.5028 -0.3572 -0.6781
  130OSM    C2F13989   2.773   2.283   6.737  0.1854  0.5564 -0.3583
  130OSM    H2F13990   2.700   2.294   6.653 -1.8508  0.9424  1.3642
  130OSM    H2G13991   2.770   2.374   6.801  4.3610  1.5999 -1.3459
  130OSM    C3F13992   2.716   2.172   6.836  0.1312 -0.0659 -0.9958
  130OSM    H3F13993   2.772   2.180   6.931  0.3093  0.4480 -1.1398
  130OSM    H3G13994   2.732   2.071   6.791  0.4088 -1.5087  2.0999
  130OSM    C4F13995   2.570   2.181   6.862 -0.0056 -0.1216  0.1702
  130OSM    H4F13996   2.543   2.096   6.929  0.8279 -0.4873  0.0497
  130OSM    H4G13997   2.514   2.167   6.767 -0.8729  2.0631  0.2999
  130OSM    C5F13998   2.527   2.313   6.928  0.2865  0.0429  0.1612
  130OSM    H5F13999   2.418   2.327   6.916  0.0836 -0.5105  1.2223
  130OSM    H5G14000   2.578   2.401   6.882  0.1461  0.5946  1.0251
  130OSM    C6F14001   2.562   2.316   7.079  0.7400 -0.0864  0.1589
  130OSM    H6F14002   2.621   2.407   7.100  1.8701 -0.7626 -0.0214
  130OSM    H6G14003   2.621   2.227   7.107 -1.0438 -1.6114 -0.6536
  130OSM    C7F14004   2.436   2.301   7.164 -0.2078 -0.0740 -0.7935
  130OSM    H7F14005   2.371   2.218   7.131  0.0121  0.0921 -1.6864
  130OSM    H7G14006   2.369   2.388   7.146 -1.7999 -1.2918 -0.9755
  130OSM    C8F14007   2.473   2.290   7.318  0.2577  0.0283 -0.3137
  130OSM    H8F14008   2.542   2.205   7.335  0.5388  0.0648 -1.1893
  130OSM    H8G14009   2.374   2.261   7.357  0.5385  2.5084  2.5950
  130OSM    C9F14010   2.535   2.410   7.379 -0.0721 -0.2017 -0.4405
  130OSM    H9F14011   2.615   2.455   7.317  2.0285 -2.4295  0.4909
  130OSM   C10F14012   2.510   2.468   7.501  0.3696  0.0081  0.1587
  130OSM   H10F14013   2.563   2.561   7.523 -1.2861  0.7999  0.9791
  130OSM   C11F14014   2.423   2.422   7.606  0.1578 -0.1993 -0.6986
  130OSM   H11F14015   2.405   2.313   7.591  0.4567 -0.0022 -2.7660
  130OSM   H11G14016   2.318   2.455   7.596 -0.5917 -1.1900  2.5594
  130OSM   C12F14017   2.466   2.435   7.758  0.0233 -0.4139 -0.2282
  130OSM   H12F14018   2.560   2.381   7.784 -0.9723 -1.2023  1.9940
  130OSM   H12G14019   2.398   2.371   7.817 -0.6063 -0.4895 -1.0155
  130OSM   C13F14020   2.468   2.580   7.809 -0.3862 -0.2607 -0.0008
  130OSM   H13F14021   2.379   2.645   7.793  0.1918  1.2097  2.3205
  130OSM   H13G14022   2.547   2.642   7.760 -0.0019  0.1260  1.0874
  130OSM   C14F14023   2.484   2.591   7.961  0.0889  0.3918 -0.7801
  130OSM   H14F14024   2.589   2.562   7.987 -0.9591 -1.0708  2.3324
  130OSM   H14G14025   2.419   2.515   8.008  2.5584 -1.5527 -0.3270
  130OSM   C15F14026   2.451   2.732   8.020  0.3068  0.6487 -0.5322
  130OSM   H15F14027   2.344   2.755   8.004 -0.1316  0.3231  1.6949
  130OSM   H15G14028   2.513   2.805   7.963  2.2149 -1.7017 -1.6820
  130OSM   C16F14029   2.482   2.720   8.172  0.1539 -0.3257  0.4728
  130OSM   H16F14030   2.580   2.668   8.180 -0.3730 -1.2754  0.9536
  130OSM   H16G14031   2.408   2.657   8.226  0.9978  1.0447  3.4586
  130OSM   C17F14032   2.476   2.850   8.246  0.0772  0.4626  0.6269
  130OSM   H17F14033   2.374   2.889   8.224  0.0601  0.6557  1.0437
  130OSM   H17G14034   2.553   2.918   8.204  0.2194 -0.2871 -0.3889
  130OSM   C18F14035   2.496   2.840   8.402 -0.6224 -0.5128 -0.3595
  130OSM   H18F14036   2.400   2.811   8.450 -2.8135  2.8836 -2.2071
  130OSM   H18G14037   2.529   2.939   8.440 -1.6287 -1.5149  3.4590
  130OSM   H18H14038   2.565   2.756   8.423 -0.2705 -0.4489 -1.2006
  131OSM      N14039   5.203   6.301   5.845  0.0913  0.9369 -0.0192
  131OSM    C1514040   5.343   6.337   5.874  0.2435 -0.2469 -0.4041
  131OSM   H15A14041   5.343   6.426   5.935  0.6309  0.5869 -1.5840
  131OSM   H15B14042   5.398   6.368   5.786  1.4951 -1.1393  0.0397
  131OSM   H15C14043   5.396   6.254   5.917 -1.6944 -0.6187  1.4461
  131OSM    C1414044   5.191   6.189   5.743  0.4101 -0.2333  0.3685
  131OSM   H14A14045   5.090   6.181   5.707  0.1381  1.1883  0.7263
  131OSM   H14B14046   5.218   6.091   5.779  0.4929 -0.4487 -0.2789
  131OSM   H14C14047   5.256   6.200   5.658  1.4250  0.5623  1.2079
  131OSM    C1314048   5.144   6.253   5.968  1.3025  0.3305 -0.3037
  131OSM   H13A14049   5.197   6.173   6.017 -0.4352 -0.9260 -0.3792
  131OSM   H13B14050   5.042   6.217   5.962  1.5752 -0.6449  0.5530
  131OSM   H13C14051   5.139   6.331   6.042  0.3048 -0.6726  0.7342
  131OSM    C1214052   5.120   6.421   5.800  0.3538 -0.2715  0.1694
  131OSM   H12A14053   5.016   6.396   5.795 -0.3373  1.8892  2.0803
  131OSM   H12B14054   5.156   6.457   5.704 -0.5430  1.4622  0.4317
  131OSM    C1114055   5.124   6.553   5.880 -0.4971  0.7209  0.0200
  131OSM   H11A14056   5.050   6.625   5.837 -1.6182  0.1551  0.9522
  131OSM   H11B14057   5.225   6.597   5.867  0.4684 -1.2078  0.6248
  131OSM      P14058   5.139   6.627   6.132 -0.1946  0.4906 -0.0022
  131OSM    O1314059   5.170   6.752   6.067 -0.1439 -0.6639 -0.4739
  131OSM    O1414060   5.032   6.625   6.238 -0.0898  0.3051  0.0332
  131OSM    O1114061   5.273   6.553   6.186  0.3942  0.0625  0.1392
  131OSM    O1214062   5.094   6.520   6.018 -0.0568  0.2922 -0.1940
  131OSM    C1S14063   5.381   6.637   6.220 -0.2354 -0.0752 -0.1211
  131OSM    H1S14064   5.351   6.739   6.252  1.0062  0.0858  0.6173
  131OSM    H1T14065   5.461   6.645   6.143  1.6663 -0.6152  1.6855
  131OSM     NF14066   5.526   6.668   6.433 -0.5485 -0.2722  0.8756
  131OSM    HNF14067   5.625   6.680   6.423 -0.5057  0.7056  2.1563
  131OSM    C2S14068   5.453   6.576   6.347  0.0492 -0.1852 -0.0071
  131OSM    H2S14069   5.367   6.531   6.402  1.0775 -4.0486 -1.2572
  131OSM    C3S14070   5.540   6.454   6.302 -0.2760 -0.2488 -1.0012
  131OSM    H3S14071   5.631   6.493   6.251 -0.1274  1.8379  0.7019
  131OSM     O314072   5.471   6.360   6.212 -0.0226 -0.6000  0.2467
  131OSM    HO314073   5.385   6.400   6.194  0.0400 -0.5899 -0.0306
  131OSM    C4S14074   5.601   6.380   6.419 -0.6254  0.7330  0.2865
  131OSM    H4S14075   5.709   6.404   6.413 -0.8882  2.8084  2.4066
  131OSM    C5S14076   5.556   6.294   6.506 -0.0812  0.1995 -0.2107
  131OSM    H5S14077   5.450   6.267   6.502  0.7732 -3.6921  0.0697
  131OSM    C6S14078   5.625   6.232   6.616 -0.8078 -0.0343 -0.8128
  131OSM    H6S14079   5.733   6.257   6.624 -0.3852 -1.7859 -0.4805
  131OSM    H6T14080   5.633   6.121   6.610 -2.2541 -0.1614 -0.7500
  131OSM    C7S14081   5.567   6.265   6.755 -0.4293  0.1424 -0.3802
  131OSM    H7S14082   5.536   6.371   6.744 -0.5495  0.3708  1.7350
  131OSM    H7T14083   5.645   6.256   6.834  0.5501 -0.5574 -1.4003
  131OSM    C8S14084   5.446   6.173   6.785  0.2116 -0.8171  0.2058
  131OSM    H8S14085   5.472   6.065   6.784 -0.0351 -0.9053 -1.6767
  131OSM    H8T14086   5.370   6.184   6.705 -0.2493 -0.1950  0.7219
  131OSM    C9S14087   5.377   6.208   6.915 -0.0806  0.0871  0.4198
  131OSM    H9S14088   5.279   6.155   6.911  0.7846 -1.4990 -2.4821
  131OSM    H9T14089   5.347   6.315   6.912 -0.9285 -0.0993 -3.6900
  131OSM   C10S14090   5.448   6.159   7.038  0.0849 -0.4696  0.2355
  131OSM   H10S14091   5.548   6.208   7.039 -0.0560  0.2206 -3.7373
  131OSM   H10T14092   5.460   6.048   7.034 -0.6622 -0.5150 -1.6099
  131OSM   C11S14093   5.384   6.192   7.168 -0.0210  0.6485 -0.7516
  131OSM   H11S14094   5.273   6.180   7.173  0.2383 -1.7160  1.1125
  131OSM   H11T14095   5.398   6.302   7.179 -1.2285  0.7384  0.1457
  131OSM   C12S14096   5.445   6.137   7.304  0.0693 -0.0171  0.4697
  131OSM   H12S14097   5.549   6.175   7.317 -0.2581  0.6740  1.2012
  131OSM   H12T14098   5.429   6.028   7.309 -2.0131  0.2015 -0.5983
  131OSM   C13S14099   5.362   6.189   7.424 -0.2128 -0.2529 -0.2025
  131OSM   H13S14100   5.261   6.147   7.406  1.1498 -3.4795 -1.1790
  131OSM   H13T14101   5.358   6.300   7.419 -0.6112 -0.2712 -0.3213
  131OSM   C14S14102   5.420   6.144   7.553  0.6422 -1.1696 -0.3497
  131OSM   H14S14103   5.526   6.174   7.559 -0.0073  1.1209  0.5949
  131OSM   H14T14104   5.417   6.033   7.557  1.2711 -1.1581  0.7940
  131OSM   C15S14105   5.338   6.201   7.668  0.3018  0.3059 -0.5829
  131OSM   H15S14106   5.240   6.149   7.665 -0.6982  2.1120 -0.7573
  131OSM   H15T14107   5.316   6.309   7.657 -1.2935  0.2951  1.7579
  131OSM   C16S14108   5.415   6.179   7.792 -0.5665 -0.3445 -0.1983
  131OSM   H16S14109   5.526   6.176   7.782 -0.2798  2.2265  1.4158
  131OSM   H16T14110   5.382   6.083   7.839  1.4037 -0.8838  0.1741
  131OSM   C17S14111   5.374   6.282   7.898 -0.2964 -0.0040  0.4183
  131OSM   H17S14112   5.394   6.384   7.860  2.9117 -0.6289  0.1012
  131OSM   H17T14113   5.440   6.275   7.987  0.4858  0.5439 -0.1009
  131OSM   C18S14114   5.226   6.281   7.958  0.1632  0.5287  0.2435
  131OSM   H18S14115   5.222   6.342   8.051  3.6030  0.2722  0.7119
  131OSM   H18T14116   5.207   6.180   8.000 -0.4979  0.8583  0.7578
  131OSM   H18U14117   5.143   6.309   7.890 -0.5213 -2.7978 -0.4438
  131OSM    C1F14118   5.475   6.761   6.507  0.1907  0.6686  0.4918
  131OSM     OF14119   5.363   6.806   6.499  0.6642  0.2831 -0.4958
  131OSM    C2F14120   5.557   6.818   6.617 -0.5007  0.2939 -0.0755
  131OSM    H2F14121   5.574   6.927   6.611  0.4850  0.4266  3.2112
  131OSM    H2G14122   5.664   6.789   6.610 -0.0645  1.9216 -0.5379
  131OSM    C3F14123   5.494   6.787   6.755  0.1858 -0.2907 -0.7676
  131OSM    H3F14124   5.471   6.679   6.758  1.2172 -0.4989  0.2301
  131OSM    H3G14125   5.402   6.849   6.752  1.7803  2.3018  0.4855
  131OSM    C4F14126   5.582   6.823   6.885  0.1245 -0.0131 -0.3220
  131OSM    H4F14127   5.613   6.928   6.870 -0.6930  0.3613  0.5306
  131OSM    H4G14128   5.679   6.769   6.880  0.5090  0.6925 -0.6534
  131OSM    C5F14129   5.510   6.808   7.018  0.5812  0.0089 -0.0388
  131OSM    H5F14130   5.468   6.705   7.023  0.6134 -0.1419 -2.0360
  131OSM    H5G14131   5.417   6.869   7.028  1.0320  0.9221 -1.1592
  131OSM    C6F14132   5.606   6.834   7.135 -0.4685 -0.2994 -0.3445
  131OSM    H6F14133   5.692   6.896   7.101 -1.3027  2.4274  2.0940
  131OSM    H6G14134   5.635   6.737   7.182  0.5370 -0.1800 -0.6842
  131OSM    C7F14135   5.561   6.934   7.250  0.2960  0.3747  0.6520
  131OSM    H7F14136   5.475   6.875   7.289  1.6261 -2.6983 -0.7855
  131OSM    H7G14137   5.527   7.024   7.194 -0.0043  0.2859  0.6872
  131OSM    C8F14138   5.660   6.964   7.364  0.0083  0.1513  0.0184
  131OSM    H8F14139   5.734   7.039   7.330 -0.0657 -0.4305 -1.4845
  131OSM    H8G14140   5.713   6.873   7.400  2.0866  1.3023  0.0150
  131OSM    C9F14141   5.573   7.011   7.472  0.1381  0.5447  0.1165
  131OSM    H9F14142   5.495   7.077   7.430  1.5334  2.1659 -0.0661
  131OSM   C10F14143   5.565   6.980   7.608 -0.6144  0.4842 -0.1512
  131OSM   H10F14144   5.506   7.043   7.677  1.1167 -0.6042  2.5064
  131OSM   C11F14145   5.648   6.888   7.699  0.1027 -0.0947  0.3857
  131OSM   H11F14146   5.734   6.866   7.632 -0.1267 -1.4425  0.5160
  131OSM   H11G14147   5.594   6.797   7.730  0.3622 -0.1999  0.5386
  131OSM   C12F14148   5.702   6.946   7.825 -0.6573  0.0781  0.6260
  131OSM   H12F14149   5.625   6.955   7.904 -0.4201 -1.9960  1.1552
  131OSM   H12G14150   5.735   7.049   7.802 -3.2145  0.2509 -3.2689
  131OSM   C13F14151   5.798   6.854   7.898 -0.3968 -0.1374  0.2462
  131OSM   H13F14152   5.870   6.807   7.829 -0.0635 -0.1150  0.5766
  131OSM   H13G14153   5.733   6.786   7.958 -2.2924  2.4960  1.3647
  131OSM   C14F14154   5.888   6.929   7.998  0.3807  0.3714  0.6960
  131OSM   H14F14155   5.964   6.987   7.942  1.4645 -1.4146  0.2134
  131OSM   H14G14156   5.953   6.856   8.051  0.7295 -0.1553 -0.4197
  131OSM   C15F14157   5.820   7.020   8.103  1.4083 -0.3749  0.7101
  131OSM   H15F14158   5.754   6.955   8.164  0.2820  1.0232  1.0444
  131OSM   H15G14159   5.756   7.089   8.044  0.4245 -0.8894  1.1546
  131OSM   C16F14160   5.916   7.084   8.196 -0.3086 -0.0134  0.3543
  131OSM   H16F14161   5.850   7.158   8.247  0.2392 -1.2639  3.0314
  131OSM   H16G14162   5.988   7.147   8.139 -3.5647  4.0387  0.2560
  131OSM   C17F14163   5.978   6.988   8.293 -0.4020 -0.1362  0.7254
  131OSM   H17F14164   6.052   6.924   8.241 -0.8494  0.0103 -0.1071
  131OSM   H17G14165   5.906   6.915   8.334  0.0363 -0.6595  0.5791
  131OSM   C18F14166   6.045   7.060   8.404  0.3864 -0.0768 -0.7581
  131OSM   H18F14167   6.134   7.117   8.371 -0.8747  2.7068  0.3833
  131OSM   H18G14168   6.079   6.997   8.490  2.8573  1.8150 -0.2440
  131OSM   H18H14169   5.978   7.136   8.448  0.5126 -1.0410  1.2129
  132OSM      N14170   2.639   2.450   6.021 -0.0995  0.1322  0.3240
  132OSM    C1514171   2.498   2.494   6.052 -0.7620  0.3732  0.1328
  132OSM   H15A14172   2.431   2.417   6.016 -0.3854 -0.3244  0.9006
  132OSM   H15B14173   2.476   2.593   6.016 -1.1179  0.4445  0.5429
  132OSM   H15C14174   2.491   2.489   6.159  1.2293 -2.4575  0.2356
  132OSM    C1414175   2.664   2.315   6.096 -0.1834  0.3787  0.6710
  132OSM   H14A14176   2.651   2.351   6.197 -1.6027  0.9213  0.3176
  132OSM   H14B14177   2.766   2.279   6.087 -0.7605 -1.1627 -0.0603
  132OSM   H14C14178   2.596   2.237   6.066  1.1771 -0.2818 -0.8300
  132OSM    C1314179   2.651   2.425   5.868  0.4697 -0.4602  0.2820
  132OSM   H13A14180   2.610   2.509   5.816  0.0374 -0.9969 -0.2534
  132OSM   H13B14181   2.591   2.338   5.845  1.8448 -1.9831  2.0863
  132OSM   H13C14182   2.751   2.403   5.832  0.8492  0.4819  0.7225
  132OSM    C1214183   2.737   2.558   6.064 -0.0637  0.3477 -0.3074
  132OSM   H12A14184   2.712   2.648   6.011  0.0630  0.2776 -0.4887
  132OSM   H12B14185   2.836   2.524   6.037 -0.2209 -1.8050  1.5185
  132OSM    C1114186   2.738   2.579   6.219  0.3566  0.3350  0.1346
  132OSM   H11A14187   2.816   2.657   6.230  0.6124 -0.1861  2.8004
  132OSM   H11B14188   2.782   2.499   6.282  0.3948  0.6566  0.5193
  132OSM      P14189   2.596   2.651   6.419  0.5232 -0.4871  0.4994
  132OSM    O1314190   2.505   2.762   6.437  0.3924 -0.3282  0.2904
  132OSM    O1414191   2.539   2.520   6.466  0.0940 -0.8658  0.1792
  132OSM    O1114192   2.739   2.685   6.479  0.0213 -0.6244  0.7229
  132OSM    O1214193   2.619   2.641   6.264 -0.5704  0.5592 -0.5216
  132OSM    C1S14194   2.807   2.807   6.450 -0.2613 -0.4809 -0.2719
  132OSM    H1S14195   2.748   2.871   6.381  1.1331  1.0479 -0.1032
  132OSM    H1T14196   2.901   2.786   6.394  0.1691  2.1595 -0.6644
  132OSM     NF14197   2.890   3.020   6.543 -0.2186 -0.1096 -0.0188
  132OSM    HNF14198   2.985   3.038   6.564 -0.7324  0.7173  1.8007
  132OSM    C2S14199   2.842   2.887   6.578  0.0554  0.3362  0.2090
  132OSM    H2S14200   2.747   2.902   6.634 -0.0977 -0.5724  0.2056
  132OSM    C3S14201   2.939   2.813   6.675  0.2795  0.1727  0.9276
  132OSM    H3S14202   3.037   2.813   6.621  0.5715  0.0534  1.4555
  132OSM     O314203   2.912   2.672   6.701  0.5984 -0.3907  0.7792
  132OSM    HO314204   2.847   2.649   6.633  0.4317 -1.3256  1.2319
  132OSM    C4S14205   2.962   2.874   6.805  0.9048 -0.2274 -0.1353
  132OSM    H4S14206   2.876   2.869   6.872  1.4327 -1.2224  0.4874
  132OSM    C5S14207   3.077   2.933   6.850 -0.2275 -0.6270 -0.3482
  132OSM    H5S14208   3.168   2.940   6.789  0.9952 -0.1743  1.4274
  132OSM    C6S14209   3.098   2.994   6.981 -0.2966  0.4529 -0.6555
  132OSM    H6S14210   3.139   3.097   6.978 -2.1250  1.2150 -1.1639
  132OSM    H6T14211   3.164   2.935   7.047  0.4011  0.2989 -1.4733
  132OSM    C7S14212   2.961   3.005   7.056  0.8800  0.0625 -0.3208
  132OSM    H7S14213   2.916   2.904   7.066 -0.1320  0.4286 -1.0742
  132OSM    H7T14214   2.894   3.080   7.008  1.6502  1.8337  1.2042
  132OSM    C8S14215   2.986   3.042   7.203  0.0677 -0.0560  0.4052
  132OSM    H8S14216   3.083   2.998   7.234  0.4371  0.6818  0.3195
  132OSM    H8T14217   2.904   3.003   7.266  0.4866 -1.4315  0.1274
  132OSM    C9S14218   3.005   3.194   7.215 -0.3693  0.2725 -0.1706
  132OSM    H9S14219   2.943   3.248   7.140  1.7368  2.3116 -0.5636
  132OSM    H9T14220   3.109   3.223   7.190  0.0805  1.1232  2.4106
  132OSM   C10S14221   2.970   3.235   7.359 -0.0914 -0.2237  0.3172
  132OSM   H10S14222   2.863   3.248   7.385  0.4693  1.0212  2.2290
  132OSM   H10T14223   3.009   3.339   7.373  2.4373 -1.4335  3.5230
  132OSM   C11S14224   3.048   3.152   7.464  0.5712 -0.4335  0.4867
  132OSM   H11S14225   3.156   3.145   7.437  0.8421 -0.9755  1.6575
  132OSM   H11T14226   3.000   3.058   7.496 -1.3050  1.1101  2.5225
  132OSM   C12S14227   3.042   3.223   7.599 -0.1936 -0.0096 -0.1013
  132OSM   H12S14228   2.942   3.215   7.647 -0.6699  1.5287 -0.7928
  132OSM   H12T14229   3.054   3.333   7.590 -1.5320  0.0417 -1.9068
  132OSM   C13S14230   3.134   3.156   7.701  0.5341 -0.4085 -0.0154
  132OSM   H13S14231   3.237   3.154   7.659  0.7306 -2.8632  0.4523
  132OSM   H13T14232   3.097   3.052   7.709 -0.9877  0.1772  1.1136
  132OSM   C14S14233   3.141   3.212   7.845  0.4713 -0.0110  0.3032
  132OSM   H14S14234   3.039   3.242   7.876 -0.7194  0.0682 -3.1939
  132OSM   H14T14235   3.197   3.308   7.837  2.0242 -0.9131 -0.0898
  132OSM   C15S14236   3.209   3.124   7.946  0.0414  0.6068 -0.1231
  132OSM   H15S14237   3.308   3.091   7.907  1.2232  1.7549  1.7052
  132OSM   H15T14238   3.155   3.030   7.970  1.3098 -1.0238 -3.1691
  132OSM   C16S14239   3.242   3.201   8.077  0.0824  0.5197  0.2653
  132OSM   H16S14240   3.144   3.212   8.129  1.0890 -1.7476  2.8680
  132OSM   H16T14241   3.283   3.301   8.050  1.8453  0.4802  2.4924
  132OSM   C17S14242   3.347   3.129   8.162  0.1830  0.0938 -0.6165
  132OSM   H17S14243   3.430   3.125   8.089  1.8516  0.0006  1.1807
  132OSM   H17T14244   3.301   3.030   8.181  1.6395 -0.5402 -0.2718
  132OSM   C18S14245   3.383   3.179   8.306 -0.5957 -0.5177 -0.3372
  132OSM   H18S14246   3.438   3.104   8.367  1.0843  1.1210  0.2566
  132OSM   H18T14247   3.286   3.212   8.350 -0.6541 -1.5624  0.3595
  132OSM   H18U14248   3.449   3.265   8.285  2.1919 -2.6443 -0.8047
  132OSM    C1F14249   2.813   3.114   6.486  0.0450 -1.2278 -0.9401
  132OSM     OF14250   2.690   3.104   6.485 -0.2435  0.4184  0.1874
  132OSM    C2F14251   2.882   3.232   6.427 -0.1376  0.8311 -0.2495
  132OSM    H2F14252   2.917   3.204   6.326  0.7052  1.2905 -0.0940
  132OSM    H2G14253   2.975   3.257   6.483 -0.3909  0.5876  0.2891
  132OSM    C3F14254   2.803   3.365   6.428  0.4086 -0.0843 -0.0836
  132OSM    H3F14255   2.742   3.382   6.337 -0.5623  0.9933  0.7545
  132OSM    H3G14256   2.885   3.441   6.425 -1.4263  1.9951  0.2942
  132OSM    C4F14257   2.712   3.398   6.552  0.2310  0.1699  0.0264
  132OSM    H4F14258   2.632   3.322   6.539  0.6656 -0.0029 -1.7860
  132OSM    H4G14259   2.649   3.489   6.540 -1.2412 -0.7852  0.1944
  132OSM    C5F14260   2.773   3.387   6.697  0.9973 -0.3092  0.1616
  132OSM    H5F14261   2.767   3.492   6.732  0.8304 -0.3788  0.3405
  132OSM    H5G14262   2.881   3.361   6.690  0.4370 -3.1261  0.8779
  132OSM    C6F14263   2.695   3.298   6.796 -0.1843 -0.0705 -0.1920
  132OSM    H6F14264   2.732   3.197   6.768  1.3738  1.0728 -2.5889
  132OSM    H6G14265   2.589   3.299   6.765 -0.0904 -0.1614 -0.5225
  132OSM    C7F14266   2.713   3.327   6.950  0.0850 -0.2244  0.2206
  132OSM    H7F14267   2.820   3.349   6.969  0.2689 -1.4189  0.6856
  132OSM    H7G14268   2.693   3.231   7.002 -0.5837  0.3435  1.0418
  132OSM    C8F14269   2.621   3.430   7.014  0.1087  0.4812  0.6054
  132OSM    H8F14270   2.633   3.525   6.956  3.4466 -1.1560 -1.7160
  132OSM    H8G14271   2.657   3.459   7.115 -1.6340  0.3186  1.3183
  132OSM    C9F14272   2.471   3.386   7.013  0.3138 -0.1824 -0.2173
  132OSM    H9F14273   2.443   3.317   6.932  2.4059  0.2047 -1.3694
  132OSM   C10F14274   2.377   3.438   7.091 -0.2098  0.0087 -0.0374
  132OSM   H10F14275   2.284   3.380   7.096  0.7849 -1.5996  0.3981
  132OSM   C11F14276   2.401   3.538   7.207 -0.1088 -0.6235 -0.2857
  132OSM   H11F14277   2.303   3.583   7.231 -1.0147 -2.6086 -0.0682
  132OSM   H11G14278   2.462   3.621   7.164  0.8377 -1.4145 -0.5087
  132OSM   C12F14279   2.462   3.482   7.337  0.3036  0.4634 -0.2267
  132OSM   H12F14280   2.570   3.462   7.323  0.5500  0.9649  0.8622
  132OSM   H12G14281   2.401   3.396   7.372 -1.8211  2.3472  0.9524
  132OSM   C13F14282   2.457   3.587   7.448 -0.2345  0.1267  0.2154
  132OSM   H13F14283   2.495   3.536   7.540  0.1312  2.4744  1.4468
  132OSM   H13G14284   2.352   3.612   7.476  0.0706  2.2587 -0.4077
  132OSM   C14F14285   2.529   3.715   7.425  0.1173  0.0403  0.2404
  132OSM   H14F14286   2.477   3.762   7.339  0.8357 -0.1040 -0.2765
  132OSM   H14G14287   2.631   3.697   7.388  0.0660  0.6477 -0.2162
  132OSM   C15F14288   2.525   3.810   7.544  0.0453  0.1905  1.4714
  132OSM   H15F14289   2.420   3.838   7.563 -0.5374 -0.5095 -0.4601
  132OSM   H15G14290   2.572   3.903   7.507 -2.1531  0.1162 -1.9615
  132OSM   C16F14291   2.589   3.761   7.674  0.3253 -0.1604 -0.4774
  132OSM   H16F14292   2.687   3.722   7.641 -0.2349 -1.1426 -1.0281
  132OSM   H16G14293   2.536   3.675   7.721  2.7178 -0.6553  1.5482
  132OSM   C17F14294   2.607   3.872   7.774 -0.0010  0.3956 -0.0236
  132OSM   H17F14295   2.655   3.968   7.747  0.5593  0.3847  0.9256
  132OSM   H17G14296   2.675   3.838   7.854 -0.4043 -0.4530 -0.0259
  132OSM   C18F14297   2.471   3.924   7.833  0.0269  0.5137 -0.3879
  132OSM   H18F14298   2.498   3.986   7.921 -1.1842  0.4906  0.0065
  132OSM   H18G14299   2.406   3.841   7.866  0.9427 -0.4773 -1.0240
  132OSM   H18H14300   2.419   3.989   7.760 -1.2515  0.7385  0.6908
  133SAPE     N14301   3.345   2.546  10.820 -0.2637 -0.0997 -1.0966
  133SAPE   HN114302   3.342   2.468  10.889 -1.5367  0.6827 -0.2536
  133SAPE   HN214303   3.297   2.521  10.731  0.2920  1.1928 -1.7798
  133SAPE   HN314304   3.443   2.570  10.795 -0.4822 -1.0710 -3.1189
  133SAPE   C1214305   3.281   2.661  10.886  0.0937 -0.4791 -0.0887
  133SAPE  H12A14306   3.316   2.656  10.991  0.0813  4.2936  0.3435
  133SAPE  H12B14307   3.170   2.653  10.884 -0.3620  3.9501 -0.9933
  133SAPE   C1114308   3.313   2.789  10.810 -0.6232  0.1378  0.0459
  133SAPE  H11A14309   3.292   2.879  10.872  2.1139  0.2940  0.8724
  133SAPE  H11B14310   3.250   2.787  10.718  1.0923 -0.9833 -1.1606
  133SAPE     P14311   3.485   2.914  10.669 -0.2944 -0.4251  0.1182
  133SAPE   O1314312   3.409   3.036  10.700 -0.2076  0.8422 -0.7799
  133SAPE   O1414313   3.629   2.912  10.666 -0.3844  0.2939 -0.3153
  133SAPE   O1214314   3.445   2.791  10.761 -0.7348  0.2812 -0.1932
  133SAPE   O1114315   3.429   2.867  10.537 -0.3954 -0.8550  0.6435
  133SAPE    C114316   3.498   2.771  10.454  0.2541 -0.4091  0.4157
  133SAPE    HA14317   3.608   2.789  10.457 -0.1870  2.8020  1.3145
  133SAPE    HB14318   3.479   2.669  10.494 -1.9333 -0.3021 -0.2272
  133SAPE    C214319   3.450   2.776  10.304  0.3400 -0.2741  0.2831
  133SAPE    HS14320   3.526   2.718  10.247 -1.2764 -1.8513 -0.3697
  133SAPE   O2114321   3.441   2.916  10.255 -0.5118  0.1151 -0.1601
  133SAPE   C2114322   3.554   2.976  10.242  0.0480  0.4573 -0.3027
  133SAPE   O2214323   3.667   2.921  10.256  0.4534 -0.5542 -0.2332
  133SAPE   C2214324   3.534   3.126  10.209 -0.1021  0.3232  0.3699
  133SAPE   H2R14325   3.428   3.137  10.180 -0.4212 -0.3210  1.2452
  133SAPE   H2S14326   3.559   3.176  10.305 -0.8935  0.0382  0.7335
  133SAPE    C314327   3.315   2.698  10.296 -0.5014  0.0372 -0.3330
  133SAPE    HX14328   3.237   2.762  10.344  1.5711  2.0443  0.5435
  133SAPE    HY14329   3.336   2.609  10.359  1.3453  0.5897 -0.1327
  133SAPE   O3114330   3.290   2.659  10.161 -0.1217  0.2449  0.5042
  133SAPE   C3114331   3.213   2.729  10.081  0.2251 -0.0306  0.1294
  133SAPE   O3214332   3.167   2.842  10.107 -0.0900  0.3722 -0.1388
  133SAPE   C3214333   3.190   2.652   9.946  0.5918 -0.2844  0.1371
  133SAPE   H2X14334   3.080   2.653   9.933  0.7490 -2.7610 -2.4703
  133SAPE   H2Y14335   3.215   2.546   9.966 -0.4124 -0.7014 -0.7525
  133SAPE   C2314336   3.625   3.178  10.101  0.2663  0.6339 -0.4361
  133SAPE   H3R14337   3.707   3.106  10.078 -1.0444 -0.8109 -0.7929
  133SAPE   H3S14338   3.677   3.270  10.133  1.1425 -0.5525  1.7826
  133SAPE   C2414339   3.548   3.212   9.975  0.0901 -0.3303 -0.2835
  133SAPE   H4R14340   3.622   3.283   9.932 -0.9901  0.0007 -1.6953
  133SAPE   H4S14341   3.457   3.272   9.996 -0.0566 -0.7631  0.3321
  133SAPE   C2514342   3.527   3.092   9.881 -0.6292  0.0786 -0.5884
  133SAPE   H5R14343   3.611   3.023   9.861 -1.4122 -0.4283 -2.3599
  133SAPE   C2614344   3.408   3.050   9.838  0.1144  0.1930 -0.3102
  133SAPE   H6R14345   3.407   2.963   9.771 -0.4558  0.0997 -0.1817
  133SAPE   C2714346   3.271   3.112   9.863  0.0918 -0.2142 -0.5776
  133SAPE   H7R14347   3.284   3.222   9.872 -0.6673  0.0164 -2.0248
  133SAPE   H7S14348   3.216   3.087   9.957 -1.0561 -0.1425 -1.2135
  133SAPE   C2814349   3.176   3.081   9.748 -0.4319 -0.1177 -0.1354
  133SAPE   H8R14350   3.091   3.018   9.778 -0.7995 -0.4116 -1.6947
  133SAPE   C2914351   3.189   3.133   9.625  0.0801  0.0122 -0.2540
  133SAPE   H9R14352   3.102   3.117   9.560 -0.2166  2.2070 -0.5020
  133SAPE  C21014353   3.302   3.224   9.575 -0.0860 -0.4961 -0.1320
  133SAPE  H10R14354   3.359   3.174   9.494  1.1399  1.1752 -0.3364
  133SAPE  H10S14355   3.380   3.244   9.652 -0.7188 -0.9474  0.6560
  133SAPE  C21114356   3.252   3.356   9.534 -0.5818 -0.2833  0.1527
  133SAPE  H11R14357   3.195   3.410   9.612  0.8498  3.1431 -0.9599
  133SAPE  C21214358   3.257   3.412   9.414  0.0849  0.1282  0.2531
  133SAPE  H12R14359   3.213   3.508   9.383 -0.4001 -1.2785 -4.1395
  133SAPE  C21314360   3.315   3.351   9.285  0.0538  0.3331 -0.5206
  133SAPE  H13R14361   3.230   3.346   9.213  0.4731 -1.7948 -0.9429
  133SAPE  H13S14362   3.336   3.246   9.314  1.3882  0.6104 -0.4282
  133SAPE  C21414363   3.447   3.400   9.228 -0.1768 -0.3713 -0.3960
  133SAPE  H14R14364   3.472   3.503   9.260  1.9219 -1.2882  1.1450
  133SAPE  C21514365   3.544   3.340   9.157  0.4984 -0.3096 -0.3749
  133SAPE  H15R14366   3.628   3.410   9.144  1.4315 -0.6822  2.7639
  133SAPE  C21614367   3.554   3.193   9.114 -0.8046 -0.4791 -0.3298
  133SAPE  H16R14368   3.456   3.145   9.135 -0.6637  0.1871  2.2295
  133SAPE  H16S14369   3.621   3.146   9.189  1.1651  2.2884 -0.1960
  133SAPE  C21714370   3.603   3.183   8.971 -0.6463 -0.1072 -0.0426
  133SAPE  H17R14371   3.526   3.240   8.914  1.8821  0.9866 -2.6162
  133SAPE  H17S14372   3.603   3.077   8.936  0.6792  0.0558 -0.5829
  133SAPE  C21814373   3.742   3.235   8.931  0.0690 -0.3156 -1.3777
  133SAPE  H18R14374   3.813   3.174   8.991 -0.4875  0.3026 -0.0443
  133SAPE  H18S14375   3.760   3.340   8.963 -0.7771 -0.8273  1.0173
  133SAPE  C21914376   3.782   3.214   8.786 -0.3411  0.6939  0.4238
  133SAPE  H19R14377   3.702   3.244   8.715  0.0542  1.2223  0.1897
  133SAPE  H19S14378   3.780   3.105   8.762 -2.9604  1.2606 -2.7663
  133SAPE  C22014379   3.919   3.270   8.743  0.8010  0.0317 -0.1993
  133SAPE  H20R14380   3.990   3.257   8.827 -1.0396  1.1951  1.6435
  133SAPE  H20S14381   3.908   3.378   8.723  0.0405  0.2072  1.0547
  133SAPE  H20T14382   3.958   3.230   8.647 -0.8516 -2.1965 -0.0305
  133SAPE   C3314383   3.244   2.723   9.818  0.3687  0.3525 -0.0908
  133SAPE   H3X14384   3.354   2.730   9.808  0.8058 -3.3098  0.9574
  133SAPE   H3Y14385   3.207   2.828   9.829 -0.9526 -0.2383  1.4905
  133SAPE   C3414386   3.181   2.667   9.688  0.0862 -0.5647  0.6665
  133SAPE   H4X14387   3.080   2.631   9.716 -0.2835  0.0143  0.1190
  133SAPE   H4Y14388   3.247   2.585   9.650 -1.5063 -0.3851 -2.9107
  133SAPE   C3514389   3.177   2.776   9.575 -0.2029  0.9558 -0.4350
  133SAPE   H5X14390   3.273   2.830   9.561  0.0678  0.5620 -0.1315
  133SAPE   H5Y14391   3.106   2.853   9.611  0.0590  0.2381  1.7444
  133SAPE   C3614392   3.130   2.728   9.435  0.7125  0.2307  0.1164
  133SAPE   H6X14393   3.034   2.678   9.459  1.0636 -0.8706 -0.6900
  133SAPE   H6Y14394   3.197   2.652   9.391 -0.7610  0.2214 -2.2631
  133SAPE   C3714395   3.124   2.839   9.331 -0.3260  0.1945 -0.5775
  133SAPE   H7X14396   3.220   2.893   9.317 -0.4463  0.7016  0.5208
  133SAPE   H7Y14397   3.066   2.924   9.373  2.1374  0.4413  2.6889
  133SAPE   C3814398   3.054   2.800   9.196 -0.4199  0.3142  0.4053
  133SAPE   H8X14399   2.973   2.731   9.229 -0.7401  0.6342  0.2892
  133SAPE   H8Y14400   3.121   2.730   9.140 -2.7465 -1.4092 -0.3817
  133SAPE   C3914401   3.008   2.915   9.114  0.8369 -0.6585  0.3336
  133SAPE   H9X14402   2.941   2.978   9.176  1.4981  0.2724  0.1227
  133SAPE   H9Y14403   2.944   2.876   9.033 -1.4477  1.4333  1.0162
  133SAPE  C31014404   3.126   3.002   9.058  0.1023  0.4247 -0.2482
  133SAPE  H10X14405   3.192   2.939   8.995  0.9462 -2.2474  2.9586
  133SAPE  H10Y14406   3.174   3.051   9.146  2.0423  0.3178 -1.1838
  133SAPE  C31114407   3.080   3.121   8.969  0.0504 -0.1708  0.4272
  133SAPE  H11X14408   3.133   3.216   8.992 -0.7640  0.3329  0.2727
  133SAPE  H11Y14409   2.974   3.144   8.995  0.0533  0.1987  0.1237
  133SAPE  C31214410   3.080   3.088   8.817 -0.2171  0.1511 -0.6785
  133SAPE  H12X14411   3.008   3.006   8.800 -1.3762  0.7580  1.0784
  133SAPE  H12Y14412   3.186   3.067   8.791  0.9779  2.4059  1.9505
  133SAPE  C31314413   3.025   3.204   8.729  0.6219  0.8627  0.2626
  133SAPE  H13X14414   2.926   3.227   8.774  0.3356 -0.2141  0.2198
  133SAPE  H13Y14415   3.011   3.161   8.627  3.1292 -1.4856  0.7903
  133SAPE  C31414416   3.119   3.322   8.714  0.4878 -0.2468 -0.0914
  133SAPE  H14X14417   3.129   3.349   8.821 -1.4484 -1.3812  0.4293
  133SAPE  H14Y14418   3.067   3.406   8.663  1.9098 -0.2632 -1.6751
  133SAPE  C31514419   3.247   3.297   8.638  0.5296  0.4072  0.5942
  133SAPE  H15X14420   3.214   3.293   8.532  2.1157  2.7552 -0.0748
  133SAPE  H15Y14421   3.291   3.198   8.662  0.8349  0.1718 -0.8521
  133SAPE  C31614422   3.343   3.408   8.662  0.2723  0.5104 -0.3455
  133SAPE  H16X14423   3.365   3.420   8.770  2.1754 -0.3295 -0.6115
  133SAPE  H16Y14424   3.307   3.508   8.629  2.6173  1.0233 -1.5655
  133SAPE  C31714425   3.475   3.389   8.598  0.2148 -0.3059  0.3905
  133SAPE  H17X14426   3.462   3.428   8.495 -2.1483  0.1059  0.7858
  133SAPE  H17Y14427   3.500   3.282   8.576 -0.3375 -0.5019  0.7128
  133SAPE  C31814428   3.592   3.474   8.671  0.1769 -0.3027 -0.0868
  133SAPE  H18X14429   3.561   3.581   8.672  0.2069 -0.2879 -0.5172
  133SAPE  H18Y14430   3.690   3.479   8.619  2.1223 -0.7239  3.2384
  133SAPE  H18Z14431   3.603   3.444   8.777 -3.0386  0.7873  0.6926
  134SAPE     N14432   0.097   5.153  10.271  0.2350 -0.1086  0.2946
  134SAPE   HN114433   0.035   5.149  10.188  0.6490  1.2767 -0.1195
  134SAPE   HN214434   0.196   5.148  10.240 -0.1833  1.1230 -1.4293
  134SAPE   HN314435   0.083   5.071  10.333 -0.2469 -1.8770 -2.0368
  134SAPE   C1214436   0.077   5.282  10.347  0.3481  0.4284  0.1113
  134SAPE  H12A14437   0.004   5.269  10.430  1.1668 -0.5686  0.6985
  134SAPE  H12B14438   0.034   5.352  10.271  2.6975 -0.7219 -2.4394
  134SAPE   C1114439   0.212   5.318  10.404  0.5934  0.2731  0.2286
  134SAPE  H11A14440   0.206   5.425  10.436 -1.2505  0.3023 -0.1417
  134SAPE  H11B14441   0.291   5.311  10.326  1.4541 -2.0982  1.2007
  134SAPE     P14442   0.408   5.204  10.567  0.1058  0.4087 -0.6296
  134SAPE   O1314443   0.441   5.299  10.679  0.3659  0.2335 -0.0411
  134SAPE   O1414444   0.412   5.063  10.599 -0.5214  0.3462 -0.5286
  134SAPE   O1214445   0.251   5.232  10.519 -0.2768 -0.0266 -0.6861
  134SAPE   O1114446   0.493   5.232  10.442 -0.6282  0.4659  0.2627
  134SAPE    C114447   0.583   5.344  10.427  0.1756  0.3640  0.3106
  134SAPE    HA14448   0.578   5.425  10.503  2.4767  0.6871  0.1815
  134SAPE    HB14449   0.685   5.305  10.446 -0.3657 -1.1233  0.3187
  134SAPE    C214450   0.552   5.400  10.289  0.2709 -1.0991  0.3089
  134SAPE    HS14451   0.447   5.438  10.290  0.1139 -1.3146 -1.8007
  134SAPE   O2114452   0.569   5.291  10.192 -0.0769  0.8187  0.0138
  134SAPE   C2114453   0.479   5.297  10.094 -0.1787 -0.1835  0.6544
  134SAPE   O2214454   0.378   5.366  10.093  0.1225  0.2699  0.3989
  134SAPE   C2214455   0.514   5.203   9.981 -0.8804  1.0915 -0.1601
  134SAPE   H2R14456   0.613   5.231   9.939 -0.6931  3.4980  1.6632
  134SAPE   H2S14457   0.521   5.106  10.034 -0.0772  2.1037  1.6753
  134SAPE    C314458   0.632   5.525  10.255  0.5760  0.3819  0.5012
  134SAPE    HX14459   0.733   5.490  10.285 -0.6479 -3.4951  0.6776
  134SAPE    HY14460   0.621   5.613  10.322 -0.3193  1.0942 -0.5488
  134SAPE   O3114461   0.627   5.553  10.110  0.0346 -0.4377 -0.1007
  134SAPE   C3114462   0.538   5.648  10.071 -0.5202  1.0167 -0.2260
  134SAPE   O3214463   0.467   5.709  10.145  0.3567  0.2684 -0.8531
  134SAPE   C3214464   0.540   5.674   9.922 -0.5444  0.7861  0.2760
  134SAPE   H2X14465   0.552   5.784   9.913 -1.7445  0.9969  1.0706
  134SAPE   H2Y14466   0.441   5.638   9.886  0.2402 -2.1331  0.7440
  134SAPE   C2314467   0.409   5.178   9.867 -0.4131 -0.4706 -0.0477
  134SAPE   H3R14468   0.310   5.162   9.915 -0.9228  1.4052 -0.3782
  134SAPE   H3S14469   0.435   5.087   9.809  1.5174  0.0068  0.0083
  134SAPE   C2414470   0.400   5.302   9.771 -0.3051 -0.0934  0.0909
  134SAPE   H4R14471   0.501   5.314   9.727 -0.2298  0.8527  0.5115
  134SAPE   H4S14472   0.368   5.392   9.828  1.6924  0.1325  0.9241
  134SAPE   C2514473   0.285   5.277   9.676  0.4187  0.2026 -0.9618
  134SAPE   H5R14474   0.194   5.244   9.729  1.5887 -1.1431  0.2894
  134SAPE   C2614475   0.281   5.287   9.541 -0.0928 -0.4716 -0.3788
  134SAPE   H6R14476   0.183   5.259   9.500 -0.1388 -0.1320 -0.4995
  134SAPE   C2714477   0.395   5.317   9.447  0.2288  0.1624 -0.4483
  134SAPE   H7R14478   0.409   5.231   9.379 -0.1399 -1.1862  1.1151
  134SAPE   H7S14479   0.491   5.315   9.503 -1.0630 -1.1103  1.8974
  134SAPE   C2814480   0.380   5.455   9.393  0.2445 -0.0247 -0.3932
  134SAPE   H8R14481   0.348   5.532   9.465  3.4034  0.9270  0.1233
  134SAPE   C2914482   0.367   5.499   9.267 -0.1450  0.0402  0.3807
  134SAPE   H9R14483   0.396   5.605   9.261  1.3942 -0.2985  1.3072
  134SAPE  C21014484   0.369   5.413   9.138 -0.1625 -0.2663  0.4629
  134SAPE  H10R14485   0.338   5.311   9.170 -2.3009  0.4390  0.7651
  134SAPE  H10S14486   0.474   5.406   9.101  0.0192  0.9455  0.7128
  134SAPE  C21114487   0.286   5.464   9.027 -0.8394 -0.3841  0.2895
  134SAPE  H11R14488   0.326   5.550   8.972 -0.4646 -0.8996 -0.2442
  134SAPE  C21214489   0.168   5.419   8.995 -0.3858  0.2250  0.2890
  134SAPE  H12R14490   0.117   5.469   8.911 -1.0785  0.7939  1.0299
  134SAPE  C21314491   0.093   5.313   9.064 -0.1916 -0.4365 -0.5302
  134SAPE  H13R14492   0.105   5.311   9.175  0.6920 -1.7893 -0.6247
  134SAPE  H13S14493   0.127   5.210   9.037  1.7449 -0.2747  1.0358
  134SAPE  C21414494  -0.055   5.320   9.048  0.6441 -0.6299  0.7542
  134SAPE  H14R14495  -0.113   5.381   9.119 -2.1191 -1.7307 -0.4215
  134SAPE  C21514496  -0.126   5.247   8.956  0.2635 -0.5576 -0.5161
  134SAPE  H15R14497  -0.236   5.257   8.955  0.3275  0.2436 -0.2663
  134SAPE  C21614498  -0.070   5.151   8.862  0.0480 -0.1716  1.4271
  134SAPE  H16R14499  -0.127   5.056   8.866  1.8504 -1.5392 -1.8636
  134SAPE  H16S14500   0.035   5.118   8.882 -0.1853 -1.1460  1.1074
  134SAPE  C21714501  -0.082   5.208   8.722  0.3642  0.8266 -0.2314
  134SAPE  H17R14502  -0.190   5.197   8.700  0.7486  0.7597 -2.2869
  134SAPE  H17S14503  -0.028   5.150   8.644 -0.5318 -0.0968 -0.1839
  134SAPE  C21814504  -0.025   5.349   8.693 -0.0499  0.0513 -0.2828
  134SAPE  H18R14505   0.086   5.354   8.695 -0.0111  0.9553 -2.2448
  134SAPE  H18S14506  -0.060   5.418   8.774  1.0698  0.5930 -0.2451
  134SAPE  C21914507  -0.069   5.412   8.565  0.2000 -0.3132 -0.0389
  134SAPE  H19R14508  -0.178   5.432   8.573  0.0577  0.6312 -3.2017
  134SAPE  H19S14509  -0.070   5.339   8.481 -1.1119 -0.3912  0.0163
  134SAPE  C22014510   0.016   5.538   8.534  0.6204  0.0699  0.0532
  134SAPE  H20R14511   0.118   5.496   8.517  0.2030 -1.3240  0.8548
  134SAPE  H20S14512   0.025   5.597   8.628  0.7800 -1.0712  0.7743
  134SAPE  H20T14513  -0.019   5.601   8.449  0.7340  0.2589  0.1458
  134SAPE   C3314514   0.648   5.590   9.845 -1.2032 -0.3390 -0.2424
  134SAPE   H3X14515   0.632   5.486   9.882 -2.6900  0.4570  1.5535
  134SAPE   H3Y14516   0.754   5.615   9.867 -0.9275 -1.8582  0.2765
  134SAPE   C3414517   0.630   5.590   9.691 -0.5587 -0.6733  0.3745
  134SAPE   H4X14518   0.522   5.588   9.666 -0.5631 -2.2429  0.4420
  134SAPE   H4Y14519   0.668   5.496   9.646 -0.4631 -0.8838  0.8836
  134SAPE   C3514520   0.684   5.709   9.619 -0.5711 -0.6926 -0.1467
  134SAPE   H5X14521   0.794   5.726   9.621 -1.0764  3.9310 -1.3390
  134SAPE   H5Y14522   0.652   5.798   9.676  0.2142 -0.1378 -0.5493
  134SAPE   C3614523   0.627   5.724   9.476 -0.2594 -0.9131  0.5236
  134SAPE   H6X14524   0.523   5.762   9.485  0.2146  0.1118  2.0873
  134SAPE   H6Y14525   0.617   5.626   9.425  1.2269 -0.1061 -1.4453
  134SAPE   C3714526   0.701   5.812   9.369  0.5825  0.5030 -0.7709
  134SAPE   H7X14527   0.802   5.766   9.376 -0.1027 -1.2296 -1.5984
  134SAPE   H7Y14528   0.708   5.916   9.408 -0.4563  0.3958 -0.2558
  134SAPE   C3814529   0.649   5.789   9.231  0.3255  0.4086  0.8370
  134SAPE   H8X14530   0.546   5.829   9.219  0.6489  0.6904 -1.5745
  134SAPE   H8Y14531   0.654   5.680   9.208  2.3070  0.6084  0.1096
  134SAPE   C3914532   0.736   5.835   9.117 -0.3863 -0.2529  0.0972
  134SAPE   H9X14533   0.730   5.946   9.118 -2.3007 -0.3285  0.1550
  134SAPE   H9Y14534   0.687   5.801   9.023 -1.6497  2.5446 -0.3293
  134SAPE  C31014535   0.880   5.784   9.114  0.2831 -0.2882 -0.0682
  134SAPE  H10X14536   0.880   5.673   9.105 -1.7483 -0.7963  3.8447
  134SAPE  H10Y14537   0.954   5.804   9.195  1.3911 -0.7796 -0.9408
  134SAPE  C31114538   0.960   5.861   9.006  1.0775  0.5483 -0.6272
  134SAPE  H11X14539   0.957   5.971   9.023 -0.2518  0.3395  0.6307
  134SAPE  H11Y14540   0.905   5.853   8.910 -1.8034  1.0374  0.8656
  134SAPE  C31214541   1.108   5.810   8.996 -0.3587 -0.5252  0.2767
  134SAPE  H12X14542   1.160   5.818   9.094 -0.4854  1.2618  0.2418
  134SAPE  H12Y14543   1.160   5.874   8.922 -1.4275 -0.8057 -0.7373
  134SAPE  C31314544   1.142   5.667   8.952  0.1223 -0.1597 -0.3704
  134SAPE  H13X14545   1.112   5.669   8.845  1.7966  1.4106 -0.8616
  134SAPE  H13Y14546   1.078   5.589   8.999  2.3005 -2.3072 -0.7286
  134SAPE  C31414547   1.283   5.621   8.978 -0.2245 -0.7607 -0.0177
  134SAPE  H14X14548   1.307   5.612   9.086 -1.1199 -2.8276  0.0700
  134SAPE  H14Y14549   1.357   5.680   8.921 -0.3666 -3.4193 -3.2750
  134SAPE  C31514550   1.331   5.489   8.914 -0.1539  0.7272  0.1881
  134SAPE  H15X14551   1.303   5.481   8.806  0.1284  1.4247  0.0532
  134SAPE  H15Y14552   1.277   5.412   8.972  2.2573 -0.0880  1.4939
  134SAPE  C31614553   1.486   5.473   8.920 -0.5705  0.4428 -0.4493
  134SAPE  H16X14554   1.509   5.478   9.028 -0.9777 -0.7721 -0.2893
  134SAPE  H16Y14555   1.539   5.553   8.865 -0.1319  0.3291 -0.1879
  134SAPE  C31714556   1.535   5.330   8.888 -0.1998 -0.9262 -0.1863
  134SAPE  H17X14557   1.513   5.315   8.780  1.3663 -0.9179 -0.5387
  134SAPE  H17Y14558   1.480   5.255   8.949  0.1270  0.7074  2.2677
  134SAPE  C31814559   1.686   5.314   8.900  0.6167 -1.0086 -0.2772
  134SAPE  H18X14560   1.726   5.212   8.881  2.0163 -1.0199  2.2458
  134SAPE  H18Y14561   1.717   5.330   9.006  0.2177  2.5446 -0.5886
  134SAPE  H18Z14562   1.740   5.380   8.829  1.9081 -1.4496  0.2752
  135SAPE     N14563   1.326   4.235  10.587 -0.0555 -0.2491  0.1108
  135SAPE   HN114564   1.384   4.309  10.633  0.4196  0.7688 -1.9797
  135SAPE   HN214565   1.300   4.171  10.664  3.0043  0.0655  1.5689
  135SAPE   HN314566   1.384   4.195  10.510 -0.1188  1.1257 -0.6845
  135SAPE   C1214567   1.201   4.302  10.549  1.0157  0.0694  0.4070
  135SAPE  H12A14568   1.237   4.398  10.506  0.4447  1.4139  2.7618
  135SAPE  H12B14569   1.145   4.329  10.641  0.0697  1.7929 -0.6325
  135SAPE   C1114570   1.115   4.213  10.459 -0.2323  0.2277 -0.0927
  135SAPE  H11A14571   1.191   4.191  10.382  0.1966 -0.2050  0.4487
  135SAPE  H11B14572   1.024   4.259  10.414  0.9509  0.4878 -2.3309
  135SAPE     P14573   0.951   4.065  10.600  0.1375 -0.0394 -0.1636
  135SAPE   O1314574   0.969   3.944  10.678 -0.1952  0.2248  0.2138
  135SAPE   O1414575   0.899   4.187  10.671  0.7085 -0.1443  0.0448
  135SAPE   O1214576   1.083   4.097  10.525 -0.0618  0.1857 -0.3233
  135SAPE   O1114577   0.848   4.035  10.479  0.0169  0.1060 -0.7622
  135SAPE    C114578   0.907   3.970  10.368  0.0562 -0.2314  0.0790
  135SAPE    HA14579   0.980   4.035  10.317  0.2863  0.4427  1.2425
  135SAPE    HB14580   0.952   3.874  10.400 -1.2839 -1.0061 -0.2539
  135SAPE    C214581   0.787   3.944  10.268  0.2391  0.5504 -0.3930
  135SAPE    HS14582   0.810   3.898  10.170 -0.1533 -0.0757 -0.1975
  135SAPE   O2114583   0.715   4.063  10.247 -0.2384  0.3300 -0.2542
  135SAPE   C2114584   0.768   4.148  10.177  0.9208 -0.0221  0.4642
  135SAPE   O2214585   0.850   4.124  10.087 -0.3429 -0.6231 -0.2708
  135SAPE   C2214586   0.708   4.292  10.200  0.6862 -0.4536  0.1502
  135SAPE   H2R14587   0.600   4.282  10.219  1.0560 -1.4846  1.9084
  135SAPE   H2S14588   0.758   4.313  10.297  0.8640  1.0759 -0.2366
  135SAPE    C314589   0.691   3.843  10.335 -0.1860 -0.0645 -0.1188
  135SAPE    HX14590   0.658   3.876  10.436  1.5222 -2.1008  1.1641
  135SAPE    HY14591   0.755   3.755  10.353  0.1222  0.0063 -0.8503
  135SAPE   O3114592   0.586   3.797  10.240  1.0618 -0.0552  0.8680
  135SAPE   C3114593   0.459   3.849  10.256  0.5531 -0.1366  0.4672
  135SAPE   O3214594   0.429   3.920  10.348  0.3996 -0.5143 -0.3415
  135SAPE   C3214595   0.364   3.798  10.154 -0.3935 -0.1107 -0.7892
  135SAPE   H2X14596   0.266   3.781  10.204 -1.0555 -0.8326 -2.2712
  135SAPE   H2Y14597   0.389   3.703  10.102 -1.5375  0.1185 -1.7970
  135SAPE   C2314598   0.743   4.407  10.099 -0.4596 -0.4873 -0.3719
  135SAPE   H3R14599   0.665   4.480  10.128  1.1883  0.9128  0.7503
  135SAPE   H3S14600   0.742   4.363   9.997  2.0801  1.2738 -1.2561
  135SAPE   C2414601   0.884   4.463  10.118 -0.4039 -0.5602  0.1279
  135SAPE   H4R14602   0.953   4.377  10.106 -1.6370 -1.2735 -2.4719
  135SAPE   H4S14603   0.896   4.501  10.222  2.0842 -0.2727 -0.2051
  135SAPE   C2514604   0.915   4.562  10.006 -0.2529  0.1452  1.0008
  135SAPE   H5R14605   0.957   4.525   9.911 -1.7977  0.5725  0.1025
  135SAPE   C2614606   0.876   4.691  10.009 -0.0356 -0.6441  0.4399
  135SAPE   H6R14607   0.906   4.757   9.927 -1.5950 -2.4692 -1.7150
  135SAPE   C2714608   0.802   4.760  10.118 -0.3399 -0.1455  0.2000
  135SAPE   H7R14609   0.741   4.693  10.183 -2.6846 -0.7847 -2.4579
  135SAPE   H7S14610   0.740   4.834  10.064  1.9328  1.2713 -0.6106
  135SAPE   C2814611   0.902   4.840  10.209 -0.6654 -0.6147  0.2132
  135SAPE   H8R14612   0.913   4.790  10.307  1.7564 -0.6868 -0.0390
  135SAPE   C2914613   0.956   4.963  10.188 -0.0731  0.2702  0.0574
  135SAPE   H9R14614   1.024   5.010  10.261  1.4961 -0.1312 -1.0795
  135SAPE  C21014615   0.931   5.039  10.056 -0.5271  0.4303  0.0751
  135SAPE  H10R14616   0.855   4.990   9.991 -0.4664  0.2047  0.1749
  135SAPE  H10S14617   1.024   5.057   9.999  0.2266  1.0753  1.4655
  135SAPE  C21114618   0.887   5.181  10.094  0.0650  0.4109  0.1653
  135SAPE  H11R14619   0.860   5.200  10.199  1.2833  1.9582  0.2302
  135SAPE  C21214620   0.875   5.282  10.006 -0.1114  0.1409  0.9778
  135SAPE  H12R14621   0.847   5.382  10.041 -1.8514  0.5818 -1.3964
  135SAPE  C21314622   0.911   5.279   9.852 -0.7757  0.4238 -0.7611
  135SAPE  H13R14623   0.822   5.281   9.786 -0.8890  2.0954 -0.5982
  135SAPE  H13S14624   0.975   5.193   9.822  0.6940  0.9493  0.6803
  135SAPE  C21414625   0.986   5.405   9.823  0.8831  0.0139 -0.0882
  135SAPE  H14R14626   1.025   5.468   9.904  2.3705  0.0217 -0.7807
  135SAPE  C21514627   1.029   5.453   9.700  1.0137  0.2374 -0.3384
  135SAPE  H15R14628   1.060   5.559   9.694 -0.0266  0.5238 -0.9474
  135SAPE  C21614629   1.009   5.394   9.566  0.0196  0.7404  0.4831
  135SAPE  H16R14630   0.921   5.326   9.572 -1.7355  2.7843 -0.6679
  135SAPE  H16S14631   1.098   5.328   9.552 -2.1908 -2.6184  0.8665
  135SAPE  C21714632   0.982   5.501   9.461  0.0014  0.0635  0.5976
  135SAPE  H17R14633   1.053   5.583   9.479  0.7315 -0.7882  1.7213
  135SAPE  H17S14634   0.877   5.531   9.482  0.1129  0.7447  0.1916
  135SAPE  C21814635   0.985   5.457   9.304 -0.2841 -0.3002 -0.4480
  135SAPE  H18R14636   1.091   5.429   9.290  0.0613  0.4346  0.5474
  135SAPE  H18S14637   0.976   5.537   9.228 -2.1511  2.0505  2.0409
  135SAPE  C21914638   0.891   5.338   9.262 -0.4562  0.4218  0.2613
  135SAPE  H19R14639   0.887   5.252   9.333  2.2955 -2.1413 -2.3932
  135SAPE  H19S14640   0.920   5.295   9.164  0.2392  0.4514  0.4546
  135SAPE  C22014641   0.750   5.401   9.247  0.7443  0.5393  0.3677
  135SAPE  H20R14642   0.741   5.484   9.321  0.4360  1.4468 -0.6557
  135SAPE  H20S14643   0.670   5.325   9.258  0.9842 -0.0279 -1.3651
  135SAPE  H20T14644   0.727   5.453   9.151 -0.1750  1.5591  1.1155
  135SAPE   C3314645   0.362   3.890  10.030  0.2018 -0.2511  1.0310
  135SAPE   H3X14646   0.352   3.995  10.064 -1.6679 -0.1703  0.3771
  135SAPE   H3Y14647   0.267   3.870   9.976  0.8573 -0.3133 -0.1135
  135SAPE   C3414648   0.482   3.864   9.945 -0.7438  0.5306  0.1829
  135SAPE   H4X14649   0.486   3.756   9.922 -0.3853  0.4106  0.7929
  135SAPE   H4Y14650   0.576   3.880  10.003 -0.4334 -0.2003 -0.1136
  135SAPE   C3514651   0.491   3.932   9.810 -0.1035 -0.2079  0.6635
  135SAPE   H5X14652   0.388   3.960   9.780 -0.4338  1.6464  3.2081
  135SAPE   H5Y14653   0.542   3.868   9.735  3.0897  0.1340  2.3559
  135SAPE   C3614654   0.565   4.063   9.833 -0.3169 -0.1323  0.1283
  135SAPE   H6X14655   0.669   4.045   9.866 -0.6177  0.4312  1.4555
  135SAPE   H6Y14656   0.518   4.119   9.917 -2.2900 -2.1377  0.4679
  135SAPE   C3714657   0.580   4.163   9.720  0.1268  0.7019  0.5567
  135SAPE   H7X14658   0.518   4.254   9.727 -1.1144  0.0308 -1.2057
  135SAPE   H7Y14659   0.550   4.111   9.627 -0.2508  2.3960 -0.3057
  135SAPE   C3814660   0.727   4.194   9.684 -0.0635 -0.7062  0.5771
  135SAPE   H8X14661   0.771   4.096   9.656 -0.1432 -0.6312  0.1730
  135SAPE   H8Y14662   0.774   4.241   9.773  1.4337  1.2787 -1.1222
  135SAPE   C3914663   0.746   4.302   9.578 -0.1231 -0.2560  0.2893
  135SAPE   H9X14664   0.703   4.399   9.612  0.8701 -0.7246  3.1343
  135SAPE   H9Y14665   0.698   4.257   9.489  2.1093 -2.8275  0.2659
  135SAPE  C31014666   0.894   4.326   9.550 -0.0203 -0.4764  0.3108
  135SAPE  H10X14667   0.936   4.228   9.517 -1.9856 -0.0975 -3.9129
  135SAPE  H10Y14668   0.941   4.365   9.644  1.0099  2.7179 -1.3872
  135SAPE  C31114669   0.922   4.424   9.433  0.5453  0.1108 -0.8370
  135SAPE  H11X14670   1.033   4.423   9.438  0.5054 -0.9396  0.5740
  135SAPE  H11Y14671   0.877   4.523   9.456  0.2416  0.1273 -1.4978
  135SAPE  C31214672   0.879   4.378   9.299 -0.0975  0.2735 -0.1999
  135SAPE  H12X14673   0.771   4.394   9.276  0.3233  2.0339 -1.1574
  135SAPE  H12Y14674   0.901   4.270   9.293  1.8055  0.5282  1.3662
  135SAPE  C31314675   0.956   4.442   9.181 -0.0603 -0.5616 -0.0239
  135SAPE  H13X14676   1.063   4.454   9.206 -0.0388 -1.6323  0.4452
  135SAPE  H13Y14677   0.916   4.543   9.159 -1.4538 -0.7433  1.4612
  135SAPE  C31414678   0.958   4.370   9.043  0.1460  0.0124  0.3025
  135SAPE  H14X14679   1.029   4.286   9.057 -0.7665 -1.0075 -1.0260
  135SAPE  H14Y14680   1.002   4.429   8.960  0.7785 -0.2546  0.4404
  135SAPE  C31514681   0.827   4.312   8.983  0.4361  0.5220 -0.6206
  135SAPE  H15X14682   0.752   4.389   8.954 -1.8350 -2.4030 -3.2794
  135SAPE  H15Y14683   0.783   4.246   9.061  1.7086 -2.3753 -2.1892
  135SAPE  C31614684   0.845   4.233   8.851 -0.5992 -0.0019  0.2979
  135SAPE  H16X14685   0.907   4.141   8.856  1.4607  1.2743 -0.5436
  135SAPE  H16Y14686   0.901   4.298   8.781  0.0980 -0.3946  0.4805
  135SAPE  C31714687   0.713   4.200   8.790 -0.1275  0.1990  0.3644
  135SAPE  H17X14688   0.675   4.302   8.769  1.2571  0.6092 -0.2399
  135SAPE  H17Y14689   0.646   4.147   8.862  0.3361 -0.2279  0.4856
  135SAPE  C31814690   0.713   4.131   8.649  0.0922  0.2350  0.4217
  135SAPE  H18X14691   0.732   4.211   8.574 -2.7995  1.1314  0.4940
  135SAPE  H18Y14692   0.612   4.097   8.616 -0.1403  0.8861  0.4388
  135SAPE  H18Z14693   0.787   4.050   8.638 -1.3035 -0.8715 -1.3665
  136SAPE     N14694   1.197   3.775  10.677  0.1910  0.1067 -0.1485
  136SAPE   HN114695   1.196   3.673  10.695 -0.9581  0.1531  0.1751
  136SAPE   HN214696   1.271   3.806  10.744  0.1869  2.7585 -1.2438
  136SAPE   HN314697   1.104   3.815  10.703  0.9280  1.2623  0.8423
  136SAPE   C1214698   1.240   3.800  10.537 -0.6650  0.0150  0.7511
  136SAPE  H12A14699   1.248   3.910  10.522 -1.4884 -0.0539 -0.3109
  136SAPE  H12B14700   1.163   3.773  10.462 -0.4665  1.8021 -0.1383
  136SAPE   C1114701   1.368   3.720  10.498  0.4207 -0.6678  0.0513
  136SAPE  H11A14702   1.405   3.742  10.396  0.7857 -0.2541  0.2691
  136SAPE  H11B14703   1.342   3.612  10.501  1.0163 -0.8188  2.7223
  136SAPE     P14704   1.573   3.854  10.596 -0.3588 -0.4563  0.0760
  136SAPE   O1314705   1.492   3.980  10.592 -0.5380 -0.0124 -0.3808
  136SAPE   O1414706   1.669   3.825  10.706  0.6039 -0.0732  0.2137
  136SAPE   O1214707   1.476   3.727  10.593 -0.3544 -0.0076 -0.0443
  136SAPE   O1114708   1.649   3.851  10.460  0.5360  0.7115  0.4682
  136SAPE    C114709   1.718   3.729  10.422 -0.8045  0.5937 -0.4324
  136SAPE    HA14710   1.823   3.744  10.455 -0.2882 -0.7502 -1.3777
  136SAPE    HB14711   1.689   3.640  10.481 -0.2410  2.6559  3.2579
  136SAPE    C214712   1.739   3.707  10.274 -0.0568  0.3536  0.0794
  136SAPE    HS14713   1.821   3.776  10.244 -0.7441  0.7768 -0.8538
  136SAPE   O2114714   1.612   3.716  10.207 -0.3043 -0.1947  0.1543
  136SAPE   C2114715   1.611   3.811  10.112  0.9522 -0.4599  0.2334
  136SAPE   O2214716   1.714   3.862  10.060 -0.0723  0.2668 -0.0390
  136SAPE   C2214717   1.456   3.850  10.087  0.3641  0.3568  0.3146
  136SAPE   H2R14718   1.410   3.765  10.032 -2.7781  2.5144 -0.6608
  136SAPE   H2S14719   1.399   3.859  10.181 -1.2605 -0.1900 -0.5752
  136SAPE    C314720   1.799   3.568  10.237 -0.2429  0.6095  0.5763
  136SAPE    HX14721   1.721   3.493  10.258  0.1772  0.6692  2.5364
  136SAPE    HY14722   1.878   3.542  10.310 -1.6635  2.2387  2.8401
  136SAPE   O3114723   1.834   3.570  10.102  0.2331  0.4924  0.3126
  136SAPE   C3114724   1.942   3.636  10.064 -0.3114  0.3939 -0.1029
  136SAPE   O3214725   2.018   3.696  10.141 -0.3463  0.0472 -0.0639
  136SAPE   C3214726   1.971   3.626   9.914 -0.4320  0.3458 -0.6834
  136SAPE   H2X14727   1.888   3.625   9.840 -0.4114  0.3211 -0.7067
  136SAPE   H2Y14728   2.014   3.523   9.907  2.2071  1.3312 -0.0931
  136SAPE   C2314729   1.437   3.974   9.999 -0.3903 -0.3718  0.8426
  136SAPE   H3R14730   1.483   4.063  10.047  0.3611 -0.5054  0.3919
  136SAPE   H3S14731   1.330   3.998   9.984 -0.4250 -0.4412  0.9791
  136SAPE   C2414732   1.480   3.960   9.856 -0.7765 -0.2278 -0.5587
  136SAPE   H4R14733   1.589   3.938   9.846 -1.0573 -1.4435 -1.2603
  136SAPE   H4S14734   1.482   4.054   9.797 -1.7472  0.3669  0.3443
  136SAPE   C2514735   1.414   3.856   9.764  1.0036  0.1002  0.7317
  136SAPE   H5R14736   1.331   3.885   9.698  2.1309 -0.6791 -1.1255
  136SAPE   C2614737   1.461   3.737   9.742  0.0748  0.0781  0.3385
  136SAPE   H6R14738   1.394   3.672   9.683  0.5703  0.8791 -1.1556
  136SAPE   C2714739   1.589   3.671   9.784 -0.0328 -0.2298 -0.0630
  136SAPE   H7R14740   1.568   3.583   9.848 -3.9423  0.2178 -0.5027
  136SAPE   H7S14741   1.657   3.739   9.841 -0.9742 -0.2648  1.1509
  136SAPE   C2814742   1.663   3.621   9.658  0.6184  0.2568 -0.1023
  136SAPE   H8R14743   1.665   3.697   9.578 -3.8389 -1.3566 -2.0989
  136SAPE   C2914744   1.722   3.503   9.639  0.0774 -0.5093  0.2754
  136SAPE   H9R14745   1.768   3.483   9.541 -1.5256  0.1009 -0.6440
  136SAPE  C21014746   1.723   3.393   9.744  0.5175 -0.5195 -0.1455
  136SAPE  H10R14747   1.645   3.322   9.708 -1.6493  0.4645  2.2864
  136SAPE  H10S14748   1.691   3.422   9.846 -1.0557 -0.2779 -0.6784
  136SAPE  C21114749   1.854   3.330   9.769  0.1225 -0.0206  0.0172
  136SAPE  H11R14750   1.880   3.323   9.876 -0.6766 -1.0441  0.1513
  136SAPE  C21214751   1.925   3.261   9.680 -0.6555 -0.1121  0.2374
  136SAPE  H12R14752   2.027   3.232   9.711 -1.3676 -3.3376 -0.0759
  136SAPE  C21314753   1.901   3.242   9.533  0.2177 -0.2921  0.3501
  136SAPE  H13R14754   1.957   3.324   9.485  0.8910 -1.4899 -0.9840
  136SAPE  H13S14755   1.795   3.262   9.506  0.3888 -0.0317 -0.1275
  136SAPE  C21414756   1.940   3.109   9.476  0.0879  0.3287  0.4975
  136SAPE  H14R14757   2.037   3.068   9.510 -0.5670 -0.4707  1.4755
  136SAPE  C21514758   1.867   3.029   9.389  0.0598 -0.0899 -0.2109
  136SAPE  H15R14759   1.909   2.931   9.359  3.3499  0.1985  2.8291
  136SAPE  C21614760   1.732   3.058   9.327 -0.2324 -0.3916  0.4483
  136SAPE  H16R14761   1.682   3.133   9.393 -0.5617  0.2785 -0.5386
  136SAPE  H16S14762   1.675   2.963   9.329  0.8243 -1.0243  1.5488
  136SAPE  C21714763   1.740   3.104   9.183 -0.1276 -0.5125  0.3065
  136SAPE  H17R14764   1.637   3.126   9.145 -0.3640 -1.3876  0.4208
  136SAPE  H17S14765   1.783   3.026   9.117  0.8091  0.3627 -0.1414
  136SAPE  C21814766   1.827   3.231   9.168  0.5177  0.1431 -0.1668
  136SAPE  H18R14767   1.922   3.202   9.216  0.1431 -0.7729  0.0389
  136SAPE  H18S14768   1.787   3.315   9.229 -0.8401  0.4105 -1.3598
  136SAPE  C21914769   1.848   3.277   9.020  0.2463  0.1364 -0.2993
  136SAPE  H19R14770   1.912   3.368   9.020 -2.9543  2.5660 -1.7102
  136SAPE  H19S14771   1.747   3.304   8.983  0.9601  1.5383 -1.3042
  136SAPE  C22014772   1.917   3.178   8.938 -0.3583  0.0542  0.0227
  136SAPE  H20R14773   1.927   3.224   8.838 -0.2715  1.3074  0.5959
  136SAPE  H20S14774   1.847   3.091   8.932 -0.4229  0.1603 -0.9420
  136SAPE  H20T14775   2.016   3.139   8.970 -0.3291  2.3892  3.2337
  136SAPE   C3314776   2.075   3.737   9.879  0.6958  0.7056 -0.2585
  136SAPE   H3X14777   2.176   3.699   9.906 -0.1632 -2.3682 -0.9659
  136SAPE   H3Y14778   2.051   3.829   9.937  1.0245  0.4555  0.2778
  136SAPE   C3414779   2.066   3.779   9.731 -0.3572  0.0659 -0.8260
  136SAPE   H4X14780   2.134   3.861   9.699 -0.7522  1.3010  1.3296
  136SAPE   H4Y14781   1.963   3.809   9.702 -0.3915  1.9844  1.0595
  136SAPE   C3514782   2.114   3.665   9.639  0.3374  0.7971  0.0775
  136SAPE   H5X14783   2.049   3.576   9.654  3.1450 -1.2156  0.9671
  136SAPE   H5Y14784   2.210   3.630   9.682 -1.2298  0.0944  3.4142
  136SAPE   C3614785   2.106   3.705   9.494 -0.4868 -0.3565 -0.1686
  136SAPE   H6X14786   2.165   3.795   9.465 -0.8448 -0.6541 -1.8734
  136SAPE   H6Y14787   2.001   3.737   9.480 -1.5077 -2.4195  2.0744
  136SAPE   C3714788   2.145   3.590   9.398  0.5301 -0.2249 -0.4296
  136SAPE   H7X14789   2.084   3.505   9.436 -1.0989  0.4325 -1.4838
  136SAPE   H7Y14790   2.254   3.571   9.402  0.4293 -0.6818  0.5517
  136SAPE   C3814791   2.105   3.615   9.257  0.0696 -0.9550  0.5356
  136SAPE   H8X14792   2.146   3.715   9.233  0.0411 -0.4197  2.5982
  136SAPE   H8Y14793   1.994   3.612   9.254  0.0645 -0.0627 -0.7236
  136SAPE   C3914794   2.149   3.503   9.156 -0.5747  0.4078 -0.4020
  136SAPE   H9X14795   2.095   3.408   9.180  1.7242 -0.6954  0.6821
  136SAPE   H9Y14796   2.256   3.494   9.181 -0.2905  0.0014 -1.7249
  136SAPE  C31014797   2.121   3.544   9.009  0.2265 -0.1476 -0.0966
  136SAPE  H10X14798   2.177   3.638   8.991 -2.2406  1.0094 -2.4867
  136SAPE  H10Y14799   2.011   3.557   9.003  0.3508  0.3383 -1.6914
  136SAPE  C31114800   2.160   3.447   8.899  0.1100  0.1323 -0.1695
  136SAPE  H11X14801   2.116   3.349   8.926  1.5970 -0.5228 -0.0305
  136SAPE  H11Y14802   2.271   3.443   8.898  0.2503  0.5660  2.7743
  136SAPE  C31214803   2.101   3.489   8.760  0.0469  0.1972 -0.1467
  136SAPE  H12X14804   1.991   3.506   8.764 -0.0659 -0.4596 -0.3194
  136SAPE  H12Y14805   2.113   3.404   8.690  0.0701 -0.0809  0.1942
  136SAPE  C31314806   2.160   3.618   8.703 -0.2832 -1.0815  0.6553
  136SAPE  H13X14807   2.252   3.636   8.763 -0.8036 -0.2410  1.2274
  136SAPE  H13Y14808   2.096   3.705   8.730  2.2632  0.5726  1.7969
  136SAPE  C31414809   2.209   3.606   8.559  0.6036  0.8330  0.5241
  136SAPE  H14X14810   2.277   3.518   8.552  1.4603  1.3171  2.3269
  136SAPE  H14Y14811   2.253   3.699   8.520  2.0069 -0.5825 -1.4650
  136SAPE  C31514812   2.101   3.558   8.453 -0.9270  0.4197  0.1946
  136SAPE  H15X14813   2.027   3.641   8.462  0.9032  1.9714  2.0349
  136SAPE  H15Y14814   2.054   3.462   8.485 -1.2815  0.4790 -0.1351
  136SAPE  C31614815   2.167   3.525   8.318 -0.4216 -0.4226 -1.1318
  136SAPE  H16X14816   2.094   3.472   8.253 -0.3619 -1.5778 -0.2842
  136SAPE  H16Y14817   2.256   3.463   8.338 -1.4735 -1.5668  0.2046
  136SAPE  C31714818   2.209   3.654   8.234  0.0789  1.1921  0.0370
  136SAPE  H17X14819   2.300   3.700   8.278  0.3315  1.5696 -0.8663
  136SAPE  H17Y14820   2.123   3.724   8.240  0.1427  1.2972 -0.2773
  136SAPE  C31814821   2.241   3.622   8.093 -0.7113  0.1505  0.4143
  136SAPE  H18X14822   2.342   3.576   8.079 -1.0330 -0.4739  0.0803
  136SAPE  H18Y14823   2.240   3.716   8.034  0.3328  0.2160  0.4844
  136SAPE  H18Z14824   2.172   3.548   8.047 -0.3653  0.6918 -1.0212
  137SAPE     N14825   1.650   0.290  10.985  0.4046 -1.1102  0.0768
  137SAPE   HN114826   1.749   0.298  10.954 -0.3624  0.1501 -2.2951
  137SAPE   HN214827   1.596   0.314  10.899  1.5740  0.2624 -0.3085
  137SAPE   HN314828   1.628   0.365  11.053  1.4350  0.7876 -1.5557
  137SAPE   C1214829   1.615   0.156  11.039  0.7628 -0.0340  0.4829
  137SAPE  H12A14830   1.520   0.159  11.096 -0.2586  1.0961 -1.1926
  137SAPE  H12B14831   1.706   0.124  11.094  0.2412 -1.5351  0.5361
  137SAPE   C1114832   1.590   0.054  10.928  0.8212 -0.1926  0.1252
  137SAPE  H11A14833   1.559  -0.041  10.977 -1.4326 -0.2472 -1.2551
  137SAPE  H11B14834   1.682   0.036  10.868  1.4835  0.6375  0.8576
  137SAPE     P14835   1.443   0.021  10.722 -0.1971 -0.0482  0.0272
  137SAPE   O1314836   1.395  -0.111  10.767  0.1488 -0.0814  0.1786
  137SAPE   O1414837   1.349   0.096  10.642 -0.4124 -0.2195 -0.0877
  137SAPE   O1214838   1.484   0.110  10.847  0.6342  0.1278  0.4016
  137SAPE   O1114839   1.578   0.000  10.635 -0.4144 -0.0435 -0.1416
  137SAPE    C114840   1.660   0.114  10.599  0.7209  0.8248 -0.4344
  137SAPE    HA14841   1.677   0.182  10.685  1.4994  0.8282 -0.5839
  137SAPE    HB14842   1.765   0.083  10.577  1.0247  0.5941  1.2169
  137SAPE    C214843   1.617   0.209  10.485  0.5134  0.3648 -0.3591
  137SAPE    HS14844   1.517   0.248  10.513  0.4663  0.6458 -0.9002
  137SAPE   O2114845   1.599   0.135  10.363 -0.6907 -0.6337 -0.3049
  137SAPE   C2114846   1.524   0.195  10.271  0.4892 -0.4999 -0.3570
  137SAPE   O2214847   1.469   0.301  10.284  0.6384 -0.6563 -0.3797
  137SAPE   C2214848   1.508   0.110  10.148 -0.1113 -0.2525 -1.0525
  137SAPE   H2R14849   1.478   0.011  10.190  0.0151  0.6541  1.3594
  137SAPE   H2S14850   1.422   0.148  10.088 -0.8678 -1.3561 -0.7026
  137SAPE    C314851   1.718   0.328  10.466 -0.0831  0.8419  0.4340
  137SAPE    HX14852   1.720   0.393  10.556  2.2201 -1.3798  2.1517
  137SAPE    HY14853   1.670   0.387  10.385 -1.6282 -0.9072 -0.0001
  137SAPE   O3114854   1.856   0.292  10.427 -0.4520  0.3475 -0.8328
  137SAPE   C3114855   1.882   0.271  10.302 -0.1574 -0.2788  0.1675
  137SAPE   O3214856   1.807   0.290  10.210 -0.4609 -0.4997  0.5104
  137SAPE   C3214857   2.019   0.222  10.287 -0.3461  0.3266 -0.4986
  137SAPE   H2X14858   2.031   0.130  10.349  2.4875  0.6969 -0.3995
  137SAPE   H2Y14859   2.099   0.284  10.332  0.9480 -1.8245  0.2866
  137SAPE   C2314860   1.634   0.100  10.057 -0.0244 -0.5651 -0.2700
  137SAPE   H3R14861   1.707   0.060  10.131 -1.0618 -0.6988  0.7076
  137SAPE   H3S14862   1.672   0.198  10.022 -1.2633  0.4518  1.1384
  137SAPE   C2414863   1.641  -0.015   9.952 -0.3273  0.2245  0.4545
  137SAPE   H4R14864   1.589   0.028   9.863 -0.0012  0.0144  0.1608
  137SAPE   H4S14865   1.577  -0.097   9.991 -0.3032  0.8752  1.9298
  137SAPE   C2514866   1.779  -0.065   9.917  0.5682  1.0625  0.2592
  137SAPE   H5R14867   1.854  -0.079   9.997  0.4580  0.4196  0.2598
  137SAPE   C2614868   1.822  -0.087   9.792 -0.1217  0.1542  0.4569
  137SAPE   H6R14869   1.924  -0.125   9.776  0.1166  0.7903  0.4345
  137SAPE   C2714870   1.755  -0.071   9.662  0.0118  0.3403 -0.3209
  137SAPE   H7R14871   1.647  -0.081   9.686  0.1509 -0.0262  0.1630
  137SAPE   H7S14872   1.790  -0.163   9.609  1.3332  1.0821 -0.7792
  137SAPE   C2814873   1.787   0.061   9.591  0.1006  0.4700 -0.1755
  137SAPE   H8R14874   1.826   0.143   9.653  1.1232  1.2550 -1.7902
  137SAPE   C2914875   1.786   0.089   9.463 -0.1418  0.5283  0.0746
  137SAPE   H9R14876   1.817   0.191   9.436  3.1235 -0.1606  0.8619
  137SAPE  C21014877   1.750  -0.002   9.344 -0.4905 -0.4447 -0.0361
  137SAPE  H10R14878   1.651   0.034   9.309 -0.7249 -0.3134  0.7348
  137SAPE  H10S14879   1.740  -0.105   9.386  2.6881 -0.8421 -0.0283
  137SAPE  C21114880   1.851   0.006   9.226  0.7168  0.7692  0.5200
  137SAPE  H11R14881   1.940  -0.059   9.225 -0.7840 -1.4769 -2.6614
  137SAPE  C21214882   1.843   0.085   9.123 -0.3062  0.2693  0.0670
  137SAPE  H12R14883   1.920   0.072   9.044  0.1546 -3.7376  0.9244
  137SAPE  C21314884   1.742   0.202   9.090  0.2576  0.5566  0.0474
  137SAPE  H13R14885   1.802   0.292   9.064  0.8525 -0.1663 -1.1636
  137SAPE  H13S14886   1.682   0.220   9.182  0.0241 -1.3388  0.3097
  137SAPE  C21414887   1.659   0.172   8.960  0.0663  0.4056  0.3358
  137SAPE  H14R14888   1.559   0.132   8.982  0.4187 -0.4565  0.3837
  137SAPE  C21514889   1.697   0.188   8.830 -0.1118 -0.6295 -0.1418
  137SAPE  H15R14890   1.632   0.157   8.747 -2.3541  0.6184  1.0320
  137SAPE  C21614891   1.834   0.233   8.774  0.3528  0.1811 -0.4545
  137SAPE  H16R14892   1.888   0.272   8.863 -0.6311  1.5620 -0.4315
  137SAPE  H16S14893   1.825   0.316   8.701 -0.0873 -1.9717 -3.0300
  137SAPE  C21714894   1.900   0.108   8.715  0.2405 -0.2673  0.6297
  137SAPE  H17R14895   1.907   0.025   8.788  0.0594 -1.3355 -0.5355
  137SAPE  H17S14896   2.005   0.143   8.714 -0.2045  1.2711  1.9566
  137SAPE  C21814897   1.862   0.062   8.572  0.0911 -0.0228  0.2641
  137SAPE  H18R14898   1.811   0.147   8.521  4.0118  2.1141 -0.4712
  137SAPE  H18S14899   1.788  -0.018   8.594  0.1939  0.1392  1.2483
  137SAPE  C21914900   1.981   0.018   8.487  0.3093 -0.4098  0.7180
  137SAPE  H19R14901   2.045   0.109   8.473  1.2415 -0.8718  1.7894
  137SAPE  H19S14902   1.943  -0.023   8.392 -1.6964  2.3725  0.1982
  137SAPE  C22014903   2.069  -0.095   8.541  0.1023 -0.0877 -0.3711
  137SAPE  H20R14904   2.129  -0.057   8.626  1.6173 -3.1735  0.1012
  137SAPE  H20S14905   2.142  -0.129   8.464 -1.2162 -2.7204 -0.5563
  137SAPE  H20T14906   1.996  -0.165   8.587  2.1416 -1.3851  1.0790
  137SAPE   C3314907   2.070   0.189  10.146 -0.3222 -0.4142 -0.1334
  137SAPE   H3X14908   2.021   0.101  10.101 -0.5072  1.0152 -2.9537
  137SAPE   H3Y14909   2.177   0.161  10.147  0.1099  1.1159  1.1925
  137SAPE   C3414910   2.067   0.304  10.042 -0.5445 -0.7104 -0.1858
  137SAPE   H4X14911   2.118   0.388  10.094  0.8322 -0.6885 -1.4996
  137SAPE   H4Y14912   1.959   0.324  10.023 -0.6427 -0.0294  0.9944
  137SAPE   C3514913   2.156   0.279   9.922  0.6767 -0.7650  0.2920
  137SAPE   H5X14914   2.250   0.239   9.965 -0.7491 -0.4584  3.9840
  137SAPE   H5Y14915   2.185   0.371   9.866  0.5402 -0.7884  0.1826
  137SAPE   C3614916   2.092   0.174   9.831  0.0133  0.1743 -0.6690
  137SAPE   H6X14917   2.000   0.214   9.783 -0.4226 -1.8963 -1.6392
  137SAPE   H6Y14918   2.091   0.078   9.887  0.3145  1.1511  1.0785
  137SAPE   C3714919   2.189   0.150   9.713 -0.2306 -0.1700  0.0807
  137SAPE   H7X14920   2.280   0.099   9.752 -0.2016  0.6911  1.1814
  137SAPE   H7Y14921   2.236   0.240   9.668  1.5594 -0.7381  0.7274
  137SAPE   C3814922   2.126   0.060   9.606 -0.8497 -0.6765  0.5631
  137SAPE   H8X14923   2.060   0.126   9.546  0.6661 -0.5143 -1.0175
  137SAPE   H8Y14924   2.073  -0.026   9.652  0.3599 -1.0197  1.3750
  137SAPE   C3914925   2.235   0.024   9.509  0.4609  0.1476  0.1373
  137SAPE   H9X14926   2.288  -0.064   9.551  0.1175 -0.1613 -0.0721
  137SAPE   H9Y14927   2.312   0.102   9.489 -1.0198  2.0052  1.3458
  137SAPE  C31014928   2.190  -0.033   9.373 -0.2931  0.2449 -0.5830
  137SAPE  H10X14929   2.129   0.050   9.332 -0.2589  0.3710 -0.3764
  137SAPE  H10Y14930   2.121  -0.117   9.397 -0.3312  0.4360 -0.0285
  137SAPE  C31114931   2.298  -0.065   9.265  0.3178 -0.4378  0.8103
  137SAPE  H11X14932   2.365  -0.135   9.320  0.6075 -1.0164 -0.2596
  137SAPE  H11Y14933   2.354   0.030   9.247 -1.5168  0.2326 -2.0125
  137SAPE  C31214934   2.254  -0.111   9.130 -0.4535  0.7765  0.2281
  137SAPE  H12X14935   2.187  -0.030   9.094 -2.5628 -1.5128 -1.3041
  137SAPE  H12Y14936   2.190  -0.202   9.129 -2.5018  2.1239  1.3793
  137SAPE  C31314937   2.365  -0.103   9.025 -0.6365  0.0776 -0.6056
  137SAPE  H13X14938   2.430  -0.192   9.031 -1.5841 -0.5559  0.6021
  137SAPE  H13Y14939   2.430  -0.014   9.041 -0.9103  0.2067 -0.2098
  137SAPE  C31414940   2.323  -0.091   8.872  0.6123 -0.4445 -0.3821
  137SAPE  H14X14941   2.282   0.010   8.849 -0.1324 -0.9593 -1.3794
  137SAPE  H14Y14942   2.241  -0.164   8.863 -0.9332  0.9757  1.2689
  137SAPE  C31514943   2.446  -0.113   8.778  0.2037  0.2526 -0.4767
  137SAPE  H15X14944   2.490  -0.211   8.807 -0.7653 -0.2008 -0.4802
  137SAPE  H15Y14945   2.528  -0.043   8.806  0.4508 -0.7388  1.4473
  137SAPE  C31614946   2.412  -0.124   8.631 -0.2185 -0.1146  1.1262
  137SAPE  H16X14947   2.352  -0.040   8.589 -2.1923 -1.3320  1.3771
  137SAPE  H16Y14948   2.343  -0.209   8.612  0.7332 -0.7394  0.3706
  137SAPE  C31714949   2.539  -0.146   8.545 -0.4103 -0.4228  0.3147
  137SAPE  H17X14950   2.516  -0.177   8.440 -0.6927 -0.2544  0.3249
  137SAPE  H17Y14951   2.586  -0.238   8.586 -2.6523 -2.0621 -0.5721
  137SAPE  C31814952   2.642  -0.032   8.526 -0.4024  0.0646  0.0677
  137SAPE  H18X14953   2.729  -0.082   8.479 -0.2182  1.2565 -0.9166
  137SAPE  H18Y14954   2.673   0.008   8.625 -1.3158  1.8893 -0.3410
  137SAPE  H18Z14955   2.615   0.048   8.454 -1.5938  0.4615  0.9299
  138SAPE     N14956   5.019   0.137  10.772  0.4973 -0.4083 -0.5075
  138SAPE   HN114957   4.956   0.217  10.791  2.3247  0.6591  1.6501
  138SAPE   HN214958   4.975   0.056  10.820 -0.8535  0.5582 -0.0840
  138SAPE   HN314959   5.108   0.174  10.812  0.4065 -0.6307 -0.0963
  138SAPE   C1214960   5.024   0.118  10.620  0.3632  0.3846 -0.2563
  138SAPE  H12A14961   5.106   0.046  10.601  3.3863  3.1745  1.1924
  138SAPE  H12B14962   5.050   0.214  10.570  0.7364  0.4808  0.1162
  138SAPE   C1114963   4.887   0.068  10.572  0.0119  0.1827 -0.4905
  138SAPE  H11A14964   4.896   0.015  10.475 -1.6132  0.1827 -0.6598
  138SAPE  H11B14965   4.828   0.160  10.551  0.5744  0.7370  0.2853
  138SAPE     P14966   4.808  -0.162  10.655  0.0971 -0.1262 -0.1801
  138SAPE   O1314967   4.950  -0.216  10.644  0.3742 -0.0873  0.0851
  138SAPE   O1414968   4.728  -0.223  10.760 -0.2986  0.1055 -0.6777
  138SAPE   O1214969   4.812  -0.006  10.671 -0.2718  0.4976 -0.0823
  138SAPE   O1114970   4.735  -0.185  10.514  0.3711 -0.4590 -0.4134
  138SAPE    C114971   4.730  -0.316  10.455  0.4002 -0.0731  0.0437
  138SAPE    HA14972   4.731  -0.399  10.529 -2.5453  0.3642  0.7027
  138SAPE    HB14973   4.632  -0.332  10.407  0.4775  1.0097 -0.4947
  138SAPE    C214974   4.853  -0.334  10.354 -0.0984 -0.6549 -0.0330
  138SAPE    HS14975   4.946  -0.314  10.411  1.6000  0.4698 -2.9653
  138SAPE   O2114976   4.822  -0.235  10.248 -0.1541  0.2553 -0.8061
  138SAPE   C2114977   4.928  -0.195  10.188 -0.2929 -0.0970 -0.0389
  138SAPE   O2214978   5.045  -0.200  10.231  0.2434 -0.3199  0.0023
  138SAPE   C2214979   4.902  -0.142  10.048  0.2567 -0.1684  0.0580
  138SAPE   H2R14980   4.852  -0.227   9.998 -0.2415 -0.4731  1.0435
  138SAPE   H2S14981   4.826  -0.061  10.051 -0.1256 -0.5330  0.4207
  138SAPE    C314982   4.864  -0.473  10.300  0.3515  0.4032  0.3476
  138SAPE    HX14983   4.777  -0.485  10.233  1.4352 -1.0028 -0.8722
  138SAPE    HY14984   4.863  -0.554  10.376 -0.8753  0.0088 -0.0803
  138SAPE   O3114985   4.979  -0.498  10.225 -0.9244 -0.1676 -0.5016
  138SAPE   C3114986   5.089  -0.535  10.287 -0.7418  0.3432  0.9266
  138SAPE   O3214987   5.090  -0.580  10.400 -0.1484 -0.2932 -0.4779
  138SAPE   C3214988   5.211  -0.512  10.195  0.9289 -0.1417 -0.7649
  138SAPE   H2X14989   5.190  -0.429  10.125  2.8354  0.6249 -0.4923
  138SAPE   H2Y14990   5.230  -0.599  10.129  1.4523  0.6655 -1.6952
  138SAPE   C2314991   5.029  -0.083   9.979 -0.0743  0.7000  0.1052
  138SAPE   H3R14992   5.120  -0.142  10.003 -0.3162  1.0911  2.1315
  138SAPE   H3S14993   5.047   0.018  10.022 -0.9108  0.6377  0.6266
  138SAPE   C2414994   5.013  -0.067   9.827 -0.2292 -0.1532 -1.0098
  138SAPE   H4R14995   5.073   0.019   9.792 -0.8110  0.0579 -1.5114
  138SAPE   H4S14996   4.910  -0.032   9.802 -0.5604 -0.1026  0.3308
  138SAPE   C2514997   5.041  -0.189   9.740 -0.3715  0.6032  0.5017
  138SAPE   H5R14998   5.069  -0.279   9.796 -1.1117 -0.4280 -0.7331
  138SAPE   C2614999   5.060  -0.203   9.606 -0.0102 -0.2162  0.3298
  138SAPE   H6R15000   5.076  -0.299   9.553 -0.6022  0.7694 -1.7506
  138SAPE   C2715001   5.041  -0.103   9.493  0.1363  0.3560 -0.1465
  138SAPE   H7R15002   5.135  -0.091   9.437  1.1962 -0.3763  1.3892
  138SAPE   H7S15003   5.022  -0.005   9.542  1.3438  1.2738 -1.4679
  138SAPE   C2815004   4.933  -0.142   9.402 -0.4761 -1.0071 -0.1912
  138SAPE   H8R15005   4.834  -0.104   9.434 -0.6583 -0.9669 -0.7802
  138SAPE   C2915006   4.942  -0.182   9.274 -0.7468  1.0883  0.0180
  138SAPE   H9R15007   4.854  -0.213   9.215 -0.0018  0.5576 -0.8418
  138SAPE  C21015008   5.061  -0.219   9.191 -0.1887  0.1734  0.7977
  138SAPE  H10R15009   5.075  -0.329   9.194  1.8960  0.2357 -2.0472
  138SAPE  H10S15010   5.148  -0.179   9.248 -1.1780  1.5972  1.3660
  138SAPE  C21115011   5.076  -0.163   9.049  0.0526 -0.4846 -0.7300
  138SAPE  H11R15012   5.065  -0.230   8.963 -1.1682  0.9996 -1.7904
  138SAPE  C21215013   5.110  -0.039   9.024 -0.0520 -0.3030 -0.0201
  138SAPE  H12R15014   5.115  -0.010   8.917  0.3929 -1.8089 -0.4249
  138SAPE  C21315015   5.148   0.076   9.122 -0.1414 -0.2816  0.1920
  138SAPE  H13R15016   5.221   0.142   9.070 -1.0042 -1.5632 -2.8614
  138SAPE  H13S15017   5.203   0.040   9.212  2.1723  4.3977  1.0022
  138SAPE  C21415018   5.040   0.174   9.165  0.7566  0.1336 -0.3894
  138SAPE  H14R15019   4.997   0.160   9.265  1.0624  0.1449 -0.2552
  138SAPE  C21515020   4.988   0.282   9.098 -0.5300 -0.0410 -0.6275
  138SAPE  H15R15021   4.907   0.337   9.149  0.7879 -0.4577  2.0935
  138SAPE  C21615022   5.020   0.332   8.956  0.3632 -0.0707 -0.0585
  138SAPE  H16R15023   5.059   0.247   8.897  0.0856 -0.7422  0.7136
  138SAPE  H16S15024   5.103   0.405   8.971 -0.3478  0.1547  3.8690
  138SAPE  C21715025   4.905   0.389   8.871 -0.2672  0.1479 -0.3549
  138SAPE  H17R15026   4.843   0.297   8.866  2.7489 -2.0588 -0.0356
  138SAPE  H17S15027   4.944   0.414   8.770  0.6088 -0.0965 -0.0859
  138SAPE  C21815028   4.836   0.507   8.934 -0.0396  0.2418  0.7944
  138SAPE  H18R15029   4.907   0.591   8.941 -1.3221  1.2607  2.0077
  138SAPE  H18S15030   4.798   0.490   9.037 -1.7471  0.0581  0.1586
  138SAPE  C21915031   4.718   0.567   8.858 -0.6341  0.2694  0.2217
  138SAPE  H19R15032   4.650   0.484   8.828  0.3686  0.3438 -2.5972
  138SAPE  H19S15033   4.746   0.610   8.760 -1.2283  0.1527 -0.0086
  138SAPE  C22015034   4.635   0.676   8.930 -0.1072  0.0684  0.8345
  138SAPE  H20R15035   4.577   0.733   8.855 -0.0784 -0.2885  0.5350
  138SAPE  H20S15036   4.696   0.734   9.002 -0.4271 -0.9058  1.9300
  138SAPE  H20T15037   4.558   0.617   8.984  0.4369 -1.3872  0.0780
  138SAPE   C3315038   5.340  -0.475  10.271 -0.4586 -0.0395 -0.3202
  138SAPE   H3X15039   5.380  -0.563  10.327 -0.2387  0.5595  0.4884
  138SAPE   H3Y15040   5.323  -0.394  10.345  1.1049 -1.3025  1.5164
  138SAPE   C3415041   5.452  -0.427  10.183 -0.7206  0.2843  0.7736
  138SAPE   H4X15042   5.458  -0.494  10.095  2.8408  1.4407 -0.0197
  138SAPE   H4Y15043   5.540  -0.453  10.246 -1.1073 -0.1255  1.1509
  138SAPE   C3515044   5.456  -0.280  10.147  0.1612 -0.0804  0.6425
  138SAPE   H5X15045   5.566  -0.264  10.153  0.2769 -0.6598  0.1401
  138SAPE   H5Y15046   5.411  -0.214  10.225 -0.7503  1.0683 -0.8110
  138SAPE   C3615047   5.402  -0.250  10.009  0.0616 -0.8123  0.0041
  138SAPE   H6X15048   5.389  -0.141   9.994  1.3665 -0.7636 -0.9490
  138SAPE   H6Y15049   5.305  -0.302  10.005  0.4201 -1.4198 -1.6961
  138SAPE   C3715050   5.487  -0.306   9.886 -0.0772  0.4923  0.1818
  138SAPE   H7X15051   5.498  -0.416   9.886  0.3321  0.5178  1.7274
  138SAPE   H7Y15052   5.580  -0.246   9.899 -0.4065  0.8517  0.9295
  138SAPE   C3815053   5.418  -0.264   9.755  0.0655 -0.1543  0.4306
  138SAPE   H8X15054   5.377  -0.161   9.760  0.1784 -0.1521  1.6895
  138SAPE   H8Y15055   5.335  -0.334   9.733 -1.4296  1.2568  1.3227
  138SAPE   C3915056   5.520  -0.276   9.634  0.2740  0.5449  0.0136
  138SAPE   H9X15057   5.566  -0.376   9.643 -2.5415 -0.7324  1.3929
  138SAPE   H9Y15058   5.605  -0.207   9.656  1.3170 -0.9025  0.6512
  138SAPE  C31015059   5.444  -0.255   9.503  0.3932 -0.3423 -0.4365
  138SAPE  H10X15060   5.378  -0.166   9.510  1.9997  0.9035 -0.5463
  138SAPE  H10Y15061   5.382  -0.345   9.479  1.4378 -0.5962 -2.3932
  138SAPE  C31115062   5.532  -0.223   9.380 -0.1834  0.2757  0.4275
  138SAPE  H11X15063   5.474  -0.244   9.287 -0.0803  1.0374  0.1793
  138SAPE  H11Y15064   5.612  -0.300   9.387  0.0938  0.7079  2.6610
  138SAPE  C31215065   5.582  -0.077   9.383  0.3939 -0.5515  0.3578
  138SAPE  H12X15066   5.655  -0.071   9.467  1.5973 -3.1232 -0.4080
  138SAPE  H12Y15067   5.498  -0.011   9.413 -0.6869 -1.7536  0.0459
  138SAPE  C31315068   5.649  -0.047   9.252  0.3110 -0.1266 -0.4827
  138SAPE  H13X15069   5.711  -0.133   9.220 -0.8517 -1.3802  0.4993
  138SAPE  H13Y15070   5.701   0.051   9.264 -0.3827  0.1122  0.7727
  138SAPE  C31415071   5.539  -0.032   9.149 -0.1668  0.0208  0.1624
  138SAPE  H14X15072   5.453   0.033   9.178 -0.0314  1.0289 -1.5467
  138SAPE  H14Y15073   5.508  -0.136   9.127 -1.8640  0.1155  1.8744
  138SAPE  C31515074   5.595   0.017   9.021  0.0564 -0.2329 -0.2139
  138SAPE  H15X15075   5.683  -0.044   8.988  1.1235  0.5482  1.0933
  138SAPE  H15Y15076   5.623   0.123   9.038 -0.5752 -0.0106 -0.5393
  138SAPE  C31615077   5.493   0.012   8.907  0.3655 -0.0476 -0.6566
  138SAPE  H16X15078   5.392   0.014   8.954 -0.1264 -0.4600 -1.6655
  138SAPE  H16Y15079   5.497  -0.085   8.853 -2.5226  0.5793 -2.1830
  138SAPE  C31715080   5.492   0.124   8.802  0.1312 -0.0793  0.4416
  138SAPE  H17X15081   5.497   0.221   8.855  1.6691 -0.8272  1.7638
  138SAPE  H17Y15082   5.401   0.101   8.742  0.0889  0.6810  0.2071
  138SAPE  C31815083   5.618   0.117   8.711 -0.0302 -0.1730 -0.1146
  138SAPE  H18X15084   5.605   0.179   8.619  1.5683  0.6060  0.1478
  138SAPE  H18Y15085   5.638   0.011   8.683 -0.3280 -0.6163  1.3065
  138SAPE  H18Z15086   5.699   0.160   8.773 -0.7814 -0.7232  1.2816
  139SAPE     N15087   5.012   5.201  10.522  0.1161 -0.6514  0.2865
  139SAPE   HN115088   5.057   5.200  10.616 -0.4451 -0.8136  0.5541
  139SAPE   HN215089   4.962   5.291  10.512  1.1768  0.2805  2.5075
  139SAPE   HN315090   4.942   5.125  10.529 -0.5615 -0.0892 -0.2313
  139SAPE   C1215091   5.119   5.188  10.421  0.7712 -0.1858  0.1967
  139SAPE  H12A15092   5.180   5.281  10.433 -1.4318  1.2340  1.0763
  139SAPE  H12B15093   5.076   5.181  10.319 -0.8309  1.3714  0.7040
  139SAPE   C1115094   5.218   5.080  10.453 -0.0820 -0.1572 -0.1443
  139SAPE  H11A15095   5.272   5.105  10.546  0.5109 -0.6213 -0.3539
  139SAPE  H11B15096   5.295   5.096  10.375  1.0660  2.8688  1.4680
  139SAPE     P15097   5.226   4.819  10.498 -0.1150  0.1426  0.1435
  139SAPE   O1315098   5.331   4.837  10.605  0.1749  0.5955 -0.2555
  139SAPE   O1415099   5.123   4.717  10.536 -0.0576  0.2849 -0.1353
  139SAPE   O1215100   5.151   4.951  10.456  0.4623  0.2431 -0.8046
  139SAPE   O1115101   5.297   4.772  10.368 -0.3965  0.0214  0.1366
  139SAPE    C115102   5.444   4.801  10.352 -0.3152  0.5896 -0.2935
  139SAPE    HA15103   5.477   4.887  10.415  0.5951 -0.2505  0.3925
  139SAPE    HB15104   5.502   4.713  10.387  1.6668  1.7802 -0.4501
  139SAPE    C215105   5.483   4.837  10.202  0.4092 -0.4878 -0.5958
  139SAPE    HS15106   5.591   4.825  10.181  0.8829 -1.3078  1.8702
  139SAPE   O2115107   5.429   4.964  10.181 -0.1637  0.1563 -0.3496
  139SAPE   C2115108   5.461   5.021  10.068  0.0308 -0.6031  0.0866
  139SAPE   O2215109   5.547   4.998   9.989 -0.4603  0.1929  0.0728
  139SAPE   C2215110   5.353   5.136  10.058 -0.1395  0.5702 -0.1929
  139SAPE   H2R15111   5.260   5.090  10.019  0.6629 -2.9717  1.6715
  139SAPE   H2S15112   5.332   5.182  10.157  0.3965 -2.2439  1.3387
  139SAPE    C315113   5.412   4.736  10.105  0.6267 -0.0723 -0.5816
  139SAPE    HX15114   5.302   4.736  10.122  0.2640 -2.6489 -2.4223
  139SAPE    HY15115   5.445   4.633  10.132  0.6083  0.6425  2.6358
  139SAPE   O3115116   5.449   4.753   9.970  0.8463  0.1471 -0.5181
  139SAPE   C3115117   5.569   4.740   9.924 -0.7941  0.0075 -0.1425
  139SAPE   O3215118   5.670   4.701   9.984 -0.1507  0.2078 -0.1461
  139SAPE   C3215119   5.574   4.775   9.777 -0.2187 -0.1393  0.9779
  139SAPE   H2X15120   5.578   4.884   9.754 -1.6540 -0.7500 -3.0934
  139SAPE   H2Y15121   5.486   4.730   9.726  1.9330 -0.9921 -2.3328
  139SAPE   C2315122   5.400   5.250   9.956 -0.0997  0.3912  0.0217
  139SAPE   H3R15123   5.433   5.195   9.866 -1.4834 -1.5759  0.6507
  139SAPE   H3S15124   5.486   5.302  10.004 -1.2718  0.7488  1.8371
  139SAPE   C2415125   5.290   5.354   9.932 -0.6144  0.3702  0.2811
  139SAPE   H4R15126   5.207   5.299   9.883  0.5529 -0.2198 -1.1244
  139SAPE   H4S15127   5.328   5.431   9.862 -2.6510  1.5436  0.4074
  139SAPE   C2515128   5.236   5.432  10.048  0.3000 -0.0676  0.7915
  139SAPE   H5R15129   5.311   5.494  10.100  0.0558 -0.2995  1.4285
  139SAPE   C2615130   5.108   5.429  10.094  0.0820  0.4512 -0.2556
  139SAPE   H6R15131   5.088   5.477  10.190 -1.8847  2.2767 -1.4933
  139SAPE   C2715132   4.999   5.348  10.032 -0.3381  0.1913 -0.7878
  139SAPE   H7R15133   5.050   5.251  10.014  0.2914  0.2496  0.5314
  139SAPE   H7S15134   4.965   5.385   9.933 -0.8745  0.9313 -0.3471
  139SAPE   C2815135   4.876   5.348  10.128  0.1394  0.2162 -0.9899
  139SAPE   H8R15136   4.877   5.415  10.214 -1.6014  0.6862 -1.3018
  139SAPE   C2915137   4.757   5.276  10.112 -0.0537 -0.0529 -0.0033
  139SAPE   H9R15138   4.675   5.289  10.184  0.6573  0.4791  0.7235
  139SAPE  C21015139   4.736   5.174  10.001  0.1792 -0.1412 -0.2774
  139SAPE  H10R15140   4.711   5.079  10.053 -1.6226 -0.2956 -1.3482
  139SAPE  H10S15141   4.835   5.156   9.954  1.2124  1.8122  1.0321
  139SAPE  C21115142   4.627   5.213   9.895 -0.1227 -0.4620 -0.2886
  139SAPE  H11R15143   4.577   5.308   9.916  1.6645  0.3676  0.3562
  139SAPE  C21215144   4.591   5.135   9.791 -0.5007 -0.4285 -0.0876
  139SAPE  H12R15145   4.505   5.161   9.728  0.0359 -1.0469 -1.1052
  139SAPE  C21315146   4.647   5.002   9.749  0.2177 -0.6219 -0.2369
  139SAPE  H13R15147   4.568   4.926   9.761  0.6918 -0.8634  1.8834
  139SAPE  H13S15148   4.729   4.983   9.822  2.1739  3.4621 -1.0654
  139SAPE  C21415149   4.695   5.007   9.607 -0.1725 -0.3180  0.2668
  139SAPE  H14R15150   4.804   4.997   9.599  0.0639  1.2477  1.2780
  139SAPE  C21515151   4.634   4.985   9.489 -0.0363  0.3919 -0.2911
  139SAPE  H15R15152   4.686   4.983   9.393 -1.3608 -1.5460 -1.0367
  139SAPE  C21615153   4.483   4.986   9.477  0.7555  0.5294  0.1377
  139SAPE  H16R15154   4.437   4.970   9.576 -0.0256  2.7760  0.2026
  139SAPE  H16S15155   4.452   4.896   9.419 -2.0687  0.8560  0.9942
  139SAPE  C21715156   4.435   5.112   9.405  0.0313 -0.1556  0.2814
  139SAPE  H17R15157   4.490   5.119   9.309 -0.3383  4.0796  0.1585
  139SAPE  H17S15158   4.472   5.194   9.470  1.2024 -0.4513  0.0210
  139SAPE  C21815159   4.286   5.116   9.391 -0.4191 -0.4072  0.2010
  139SAPE  H18R15160   4.255   5.199   9.325  0.0012 -0.9965 -0.7584
  139SAPE  H18S15161   4.257   5.135   9.497  0.9065 -2.7995  1.0884
  139SAPE  C21915162   4.216   4.989   9.339 -0.3670  0.4086 -0.1663
  139SAPE  H19R15163   4.216   4.909   9.416 -2.7824  3.2445  3.0458
  139SAPE  H19S15164   4.287   4.956   9.260 -0.8631 -0.1878 -0.3789
  139SAPE  C22015165   4.068   5.013   9.285 -0.4717  0.1575  0.7654
  139SAPE  H20R15166   4.036   4.923   9.228  1.5911  0.9868 -1.9199
  139SAPE  H20S15167   4.065   5.099   9.215 -5.0092 -0.8684 -0.6193
  139SAPE  H20T15168   4.000   5.041   9.367  0.9823 -1.3521  2.5809
  139SAPE   C3315169   5.701   4.708   9.717  0.1065 -0.0025 -0.2483
  139SAPE   H3X15170   5.710   4.608   9.765 -0.3636  0.5963  1.1699
  139SAPE   H3Y15171   5.794   4.757   9.754  1.7988 -2.0176 -1.5569
  139SAPE   C3415172   5.713   4.693   9.562 -0.1957  0.6927  0.1843
  139SAPE   H4X15173   5.641   4.612   9.538  0.7556 -0.4350  1.0249
  139SAPE   H4Y15174   5.816   4.659   9.536 -1.0067 -1.6735 -0.1705
  139SAPE   C3515175   5.685   4.828   9.490  0.7259  0.1802  0.3930
  139SAPE   H5X15176   5.732   4.912   9.546 -0.5293  0.1768  1.4967
  139SAPE   H5Y15177   5.576   4.844   9.495  0.7833  0.6542  0.1030
  139SAPE   C3615178   5.731   4.824   9.346 -0.2306  0.0863 -0.2669
  139SAPE   H6X15179   5.840   4.802   9.340 -0.5788 -1.4729 -1.6475
  139SAPE   H6Y15180   5.721   4.925   9.300  0.1626  0.6784  0.9054
  139SAPE   C3715181   5.666   4.710   9.262  0.5299  0.2085  0.5410
  139SAPE   H7X15182   5.557   4.723   9.279  0.9682  4.5042  1.3070
  139SAPE   H7Y15183   5.708   4.614   9.297 -0.7470  0.0559  1.7251
  139SAPE   C3815184   5.696   4.718   9.116 -0.5024  0.1745 -0.1995
  139SAPE   H8X15185   5.647   4.631   9.068 -1.8852  1.4782 -1.2293
  139SAPE   H8Y15186   5.805   4.712   9.094 -0.6315  1.0492 -1.1031
  139SAPE   C3915187   5.645   4.845   9.048  0.0829  0.8454  0.5360
  139SAPE   H9X15188   5.690   4.933   9.099 -1.1116  1.4850  0.5019
  139SAPE   H9Y15189   5.535   4.849   9.059  0.1417  2.4132  0.7140
  139SAPE  C31015190   5.669   4.863   8.898  0.6573  0.3077  0.0516
  139SAPE  H10X15191   5.615   4.953   8.863  0.5639  0.8181  1.4576
  139SAPE  H10Y15192   5.633   4.773   8.844  1.9509 -0.0001 -0.3510
  139SAPE  C31115193   5.822   4.894   8.863  0.0119  0.1223 -0.7443
  139SAPE  H11X15194   5.894   4.855   8.938  0.5429  2.5328  0.0884
  139SAPE  H11Y15195   5.832   5.003   8.881  0.2719  0.1306 -0.9238
  139SAPE  C31215196   5.856   4.860   8.722  0.7540 -0.6418  0.2221
  139SAPE  H12X15197   5.813   4.759   8.700  0.9849 -0.7475  0.2563
  139SAPE  H12Y15198   5.965   4.855   8.704  0.9656 -0.3146  1.3521
  139SAPE  C31315199   5.799   4.939   8.606 -0.5834 -0.2264  0.3140
  139SAPE  H13X15200   5.853   5.035   8.601  0.5104 -0.9063 -1.6416
  139SAPE  H13Y15201   5.692   4.960   8.629 -0.4032  1.3159 -0.1845
  139SAPE  C31415202   5.816   4.873   8.461  0.7654  0.0080 -0.3567
  139SAPE  H14X15203   5.769   4.926   8.376 -0.4758 -1.8993 -0.9343
  139SAPE  H14Y15204   5.755   4.781   8.475  0.6955  0.1831  0.5591
  139SAPE  C31515205   5.960   4.835   8.429  0.1601  0.4515 -0.0324
  139SAPE  H15X15206   5.969   4.739   8.375  0.8460  1.1574 -1.2182
  139SAPE  H15Y15207   6.026   4.822   8.518  1.5041  0.1965 -1.0426
  139SAPE  C31615208   6.029   4.939   8.343 -0.3690  0.4615  0.2768
  139SAPE  H16X15209   5.965   4.983   8.264 -1.2824  0.0608  0.7759
  139SAPE  H16Y15210   6.062   5.027   8.401  2.4494  0.1251 -0.6417
  139SAPE  C31715211   6.159   4.882   8.274  0.6031  0.1385 -0.8944
  139SAPE  H17X15212   6.134   4.833   8.177 -0.3695 -2.1055  0.4227
  139SAPE  H17Y15213   6.204   4.802   8.335  3.0128  0.2899 -2.3530
  139SAPE  C31815214   6.250   5.004   8.254  0.0247 -0.2123  0.4933
  139SAPE  H18X15215   6.195   5.085   8.201  0.6134  0.2524  0.5786
  139SAPE  H18Y15216   6.346   4.982   8.203  0.7546  2.1893  0.6857
  139SAPE  H18Z15217   6.282   5.054   8.348  1.2201 -0.3492  0.1737
  140SAPE     N15218   6.231   2.505  10.857  0.0097  0.4208 -0.4134
  140SAPE   HN115219   6.185   2.562  10.932  1.8015 -0.5261  1.4849
  140SAPE   HN215220   6.210   2.552  10.767  0.9504 -1.1449 -1.4915
  140SAPE   HN315221   6.176   2.418  10.873 -2.9228  2.1721 -0.1016
  140SAPE   C1215222   6.374   2.490  10.887 -0.4268  0.9412 -0.3995
  140SAPE  H12A15223   6.389   2.480  10.997  0.7342  3.1284 -0.2987
  140SAPE  H12B15224   6.420   2.588  10.864  3.0625 -0.1158  1.3048
  140SAPE   C1115225   6.445   2.372  10.811 -0.4743 -0.0980  0.0238
  140SAPE  H11A15226   6.555   2.374  10.832 -0.1425  1.6055 -1.5965
  140SAPE  H11B15227   6.432   2.402  10.705 -0.6952 -2.4267 -0.6686
  140SAPE     P15228   6.413   2.118  10.756  0.1799  0.5799  0.0089
  140SAPE   O1315229   6.548   2.065  10.801 -0.4020  0.1422  0.8976
  140SAPE   O1415230   6.305   2.021  10.769 -0.3304 -0.2607 -0.3631
  140SAPE   O1215231   6.381   2.249  10.835 -0.2364 -0.3185  0.0136
  140SAPE   O1115232   6.440   2.174  10.609  0.2922  0.0012  0.2122
  140SAPE    C115233   6.335   2.226  10.528 -0.1279 -0.4172 -0.0170
  140SAPE    HA15234   6.269   2.287  10.593 -0.5885 -0.1674 -0.7023
  140SAPE    HB15235   6.388   2.277  10.445  1.4774 -2.5939 -0.4202
  140SAPE    C215236   6.241   2.121  10.460 -0.1044 -0.7501 -0.0382
  140SAPE    HS15237   6.209   2.053  10.542 -2.9509 -0.4614 -0.7734
  140SAPE   O2115238   6.321   2.056  10.361 -0.1169  0.0807 -0.7288
  140SAPE   C2115239   6.283   1.935  10.337  0.5424 -0.6166  0.0651
  140SAPE   O2215240   6.185   1.873  10.379 -0.8777 -0.0750 -0.2583
  140SAPE   C2215241   6.389   1.875  10.242 -0.1490  0.5326  0.3915
  140SAPE   H2R15242   6.371   1.930  10.147  0.9016 -1.1952 -0.8658
  140SAPE   H2S15243   6.489   1.892  10.288 -1.0832  1.0482  2.3643
  140SAPE    C315244   6.108   2.190  10.397  0.8778 -0.0993 -0.7894
  140SAPE    HX15245   6.053   2.238  10.481  2.4045  1.1888 -0.4864
  140SAPE    HY15246   6.044   2.109  10.357  2.2016  0.1334 -3.6049
  140SAPE   O3115247   6.132   2.290  10.298 -0.0788  0.1638 -0.0281
  140SAPE   C3115248   6.026   2.372  10.267 -0.0666  0.1223  0.0679
  140SAPE   O3215249   5.938   2.394  10.347 -0.6432 -0.0573  0.1895
  140SAPE   C3215250   6.051   2.424  10.123  0.0154  0.2734  1.0968
  140SAPE   H2X15251   6.053   2.337  10.054  0.2382  1.6231 -0.6643
  140SAPE   H2Y15252   6.156   2.460  10.133 -0.1397  0.7436  1.0235
  140SAPE   C2315253   6.367   1.722  10.235 -0.4471 -0.0833  0.2647
  140SAPE   H3R15254   6.271   1.710  10.181 -0.6948  2.4466  0.0426
  140SAPE   H3S15255   6.349   1.687  10.338 -1.7106 -0.4980 -0.0877
  140SAPE   C2415256   6.478   1.643  10.167 -0.0266  1.1279 -0.1791
  140SAPE   H4R15257   6.451   1.536  10.172 -1.6352  1.4709 -1.0151
  140SAPE   H4S15258   6.570   1.657  10.229 -0.7984  1.6219  0.8923
  140SAPE   C2515259   6.506   1.681  10.023  0.1126  0.0643  0.7205
  140SAPE   H5R15260   6.563   1.774  10.008  0.5257 -0.0028  1.8124
  140SAPE   C2615261   6.455   1.622   9.919  0.3746 -0.0152 -0.2571
  140SAPE   H6R15262   6.488   1.652   9.818 -1.7725 -0.8836 -1.2729
  140SAPE   C2715263   6.366   1.505   9.911 -0.0170 -0.3370  0.7862
  140SAPE   H7R15264   6.365   1.442  10.003  0.8144 -2.0543 -0.3261
  140SAPE   H7S15265   6.402   1.440   9.828  0.0348 -0.4343  0.8848
  140SAPE   C2815266   6.221   1.535   9.887 -0.3668 -0.5694 -0.9025
  140SAPE   H8R15267   6.153   1.526   9.973  1.5507  0.3374  0.7890
  140SAPE   C2915268   6.167   1.584   9.774 -0.6306 -0.2408 -0.3009
  140SAPE   H9R15269   6.057   1.589   9.774 -0.7058 -1.3579  0.5969
  140SAPE  C21015270   6.232   1.612   9.645 -0.8524  0.3877  0.9280
  140SAPE  H10R15271   6.341   1.589   9.645 -0.8378  0.0428 -1.9439
  140SAPE  H10S15272   6.226   1.723   9.636  0.1059  0.4255  0.6280
  140SAPE  C21115273   6.157   1.544   9.533 -0.2264 -0.4015 -0.0617
  140SAPE  H11R15274   6.120   1.443   9.552 -0.0031 -0.6671 -1.0091
  140SAPE  C21215275   6.118   1.602   9.417 -0.2763 -0.5694  0.1765
  140SAPE  H12R15276   6.066   1.540   9.342  0.3084 -1.5786  0.5860
  140SAPE  C21315277   6.143   1.744   9.388 -0.6203 -0.2607  0.2581
  140SAPE  H13R15278   6.148   1.810   9.478  3.0505 -0.2453  0.1840
  140SAPE  H13S15279   6.055   1.784   9.334 -0.2293 -1.3738 -1.2470
  140SAPE  C21415280   6.263   1.775   9.312  0.5559 -0.2728 -0.2436
  140SAPE  H14R15281   6.356   1.759   9.368  0.0442  0.3880  0.8423
  140SAPE  C21515282   6.273   1.834   9.194 -0.1429  0.5175  0.1027
  140SAPE  H15R15283   6.375   1.866   9.171 -0.0010 -0.1981 -0.2583
  140SAPE  C21615284   6.165   1.876   9.102  0.7590  0.2185  0.2836
  140SAPE  H16R15285   6.163   1.987   9.096  0.2611  0.1784 -0.4745
  140SAPE  H16S15286   6.066   1.844   9.140  1.5495 -2.3464  0.3755
  140SAPE  C21715287   6.173   1.816   8.958  0.4760  0.1755 -0.2658
  140SAPE  H17R15288   6.263   1.855   8.906  0.3813  0.8878  0.0933
  140SAPE  H17S15289   6.085   1.862   8.907 -0.4229  0.2363  1.2714
  140SAPE  C21815290   6.156   1.668   8.961  0.8828 -0.0172  0.3243
  140SAPE  H18R15291   6.058   1.640   9.005  1.6324 -1.1092  1.3562
  140SAPE  H18S15292   6.222   1.620   9.036 -0.7090 -0.5112  1.4668
  140SAPE  C21915293   6.180   1.594   8.829  0.2371  0.0826  0.8089
  140SAPE  H19R15294   6.141   1.490   8.837  0.0658  0.0197 -0.6336
  140SAPE  H19S15295   6.287   1.593   8.797 -0.0985  2.0200 -0.5587
  140SAPE  C22015296   6.109   1.655   8.710  0.4832 -0.0094  0.1541
  140SAPE  H20R15297   6.002   1.664   8.736  0.4574 -3.3460  1.6865
  140SAPE  H20S15298   6.114   1.594   8.617 -1.1211 -3.3871  2.1102
  140SAPE  H20T15299   6.138   1.761   8.691 -3.7169  0.9817 -2.0744
  140SAPE   C3315300   5.948   2.519  10.064 -0.0669 -0.3812 -0.3044
  140SAPE   H3X15301   5.935   2.613  10.122  0.1266 -0.1595 -0.6188
  140SAPE   H3Y15302   5.844   2.480  10.059 -0.2825  0.0713  0.3658
  140SAPE   C3415303   5.994   2.565   9.926 -0.7165  0.5182  0.0873
  140SAPE   H4X15304   6.091   2.527   9.889 -1.1923 -1.3257  0.6213
  140SAPE   H4Y15305   5.980   2.675   9.925 -2.4199  0.3314  0.1430
  140SAPE   C3515306   5.892   2.508   9.821 -0.2830 -1.1875  0.2516
  140SAPE   H5X15307   5.788   2.529   9.855 -0.8773  0.1921 -2.1936
  140SAPE   H5Y15308   5.905   2.398   9.811 -0.5745 -1.2829  0.8905
  140SAPE   C3615309   5.901   2.571   9.684  0.3678 -0.0282 -0.0932
  140SAPE   H6X15310   5.986   2.524   9.629  0.3634  0.8213 -0.8552
  140SAPE   H6Y15311   5.929   2.679   9.683 -0.9599  0.4001 -3.2211
  140SAPE   C3715312   5.768   2.550   9.605 -0.2831 -0.4530  0.3256
  140SAPE   H7X15313   5.683   2.581   9.669  1.3061 -0.0845  2.3722
  140SAPE   H7Y15314   5.751   2.440   9.602  1.8789 -0.8202 -0.7039
  140SAPE   C3815315   5.763   2.624   9.471 -0.4758 -0.8606  0.3464
  140SAPE   H8X15316   5.847   2.597   9.403 -1.2501  2.7764 -2.3974
  140SAPE   H8Y15317   5.781   2.734   9.471  2.0842 -1.1477 -1.8548
  140SAPE   C3915318   5.637   2.598   9.395 -0.4190  0.0028  0.1574
  140SAPE   H9X15319   5.555   2.645   9.454  0.7648 -1.7540  3.4274
  140SAPE   H9Y15320   5.612   2.491   9.380  0.4506 -0.3777  1.2687
  140SAPE  C31015321   5.640   2.656   9.253  0.5124 -0.0043  0.3878
  140SAPE  H10X15322   5.709   2.600   9.186 -0.8101 -1.1993 -0.0212
  140SAPE  H10Y15323   5.659   2.764   9.271  0.7426 -0.0568  0.4636
  140SAPE  C31115324   5.496   2.661   9.202  1.0724 -0.4068 -0.3361
  140SAPE  H11X15325   5.439   2.721   9.277  2.8102  0.9660 -0.0544
  140SAPE  H11Y15326   5.449   2.563   9.179  0.2722 -0.2091  0.3719
  140SAPE  C31215327   5.482   2.738   9.068  0.2532 -0.4275  0.1508
  140SAPE  H12X15328   5.526   2.838   9.088  1.5026 -0.5027 -1.8690
  140SAPE  H12Y15329   5.379   2.748   9.027  0.3281 -1.8064 -0.4192
  140SAPE  C31315330   5.562   2.669   8.954 -0.7519  0.5958 -0.2086
  140SAPE  H13X15331   5.510   2.573   8.935  0.3317 -0.6354  2.5559
  140SAPE  H13Y15332   5.670   2.649   8.971  0.0500  2.1199 -2.8125
  140SAPE  C31415333   5.569   2.748   8.817  0.5026  0.0015 -0.7510
  140SAPE  H14X15334   5.593   2.674   8.738 -0.7210 -2.3558  0.9353
  140SAPE  H14Y15335   5.638   2.835   8.829  0.0599  0.0679  2.3013
  140SAPE  C31515336   5.426   2.802   8.777  0.2448 -0.1733 -0.4965
  140SAPE  H15X15337   5.369   2.846   8.861 -0.5602 -3.5653  0.9261
  140SAPE  H15Y15338   5.371   2.714   8.737 -0.3776  1.3020 -3.0841
  140SAPE  C31615339   5.444   2.906   8.670  0.4893 -0.5262 -0.4006
  140SAPE  H16X15340   5.506   2.857   8.592  0.2295 -3.4777  1.1004
  140SAPE  H16Y15341   5.503   2.993   8.706 -0.9809  1.2858 -2.1751
  140SAPE  C31715342   5.310   2.950   8.606  0.0619  0.1850 -0.0843
  140SAPE  H17X15343   5.331   3.031   8.533 -1.3614  2.8174  2.2366
  140SAPE  H17Y15344   5.240   2.997   8.679  1.6515  3.3689 -0.4167
  140SAPE  C31815345   5.249   2.830   8.533  0.6855 -0.2830 -0.2854
  140SAPE  H18X15346   5.326   2.766   8.485  0.9194 -0.5911  0.4973
  140SAPE  H18Y15347   5.166   2.873   8.471 -0.3431 -0.4037  0.9700
  140SAPE  H18Z15348   5.195   2.766   8.605  1.3733 -0.7338 -0.1631
  141SAPE     N15349   1.933   3.811  10.755 -0.0165 -0.0794  0.2300
  141SAPE   HN115350   1.926   3.749  10.838 -0.2226  0.1138  0.3579
  141SAPE   HN215351   1.835   3.839  10.736  0.6277  1.4397 -1.0460
  141SAPE   HN315352   1.963   3.758  10.671  2.1817 -0.8513  1.4100
  141SAPE   C1215353   2.036   3.916  10.766  0.1109 -0.6545  0.2549
  141SAPE  H12A15354   2.051   3.965  10.667 -1.7822  1.7560  1.0588
  141SAPE  H12B15355   2.133   3.865  10.783 -0.1432 -1.4976 -0.7105
  141SAPE   C1115356   2.001   4.013  10.881  0.0765 -0.0885  0.0957
  141SAPE  H11A15357   2.088   4.080  10.896 -1.4247  1.7537  1.0675
  141SAPE  H11B15358   1.989   3.959  10.977 -0.7123  0.6390  0.4218
  141SAPE     P15359   1.888   4.231  10.787 -0.0687  0.0618 -0.1052
  141SAPE   O1315360   1.752   4.291  10.816 -0.1500 -0.4454 -0.4215
  141SAPE   O1415361   2.008   4.295  10.843  0.0921 -0.2634 -0.6430
  141SAPE   O1215362   1.884   4.085  10.841  0.0239  0.2934  0.2530
  141SAPE   O1115363   1.916   4.207  10.628  0.0325  0.3923 -0.5406
  141SAPE    C115364   1.812   4.213  10.532  0.2948 -0.5378  0.3678
  141SAPE    HA15365   1.723   4.161  10.574 -1.0126  1.3507  0.1029
  141SAPE    HB15366   1.793   4.321  10.514 -3.7466 -1.1706 -0.0545
  141SAPE    C215367   1.849   4.157  10.393 -0.5390  0.1269  0.7368
  141SAPE    HS15368   1.895   4.055  10.398 -0.5033  0.1871  2.2418
  141SAPE   O2115369   1.937   4.251  10.320 -0.3822  0.7084 -0.2385
  141SAPE   C2115370   2.044   4.194  10.266 -0.7371 -0.7803 -0.1010
  141SAPE   O2215371   2.079   4.082  10.276 -0.0492  0.3321 -0.2430
  141SAPE   C2215372   2.124   4.304  10.195 -0.3540 -0.8063 -0.2186
  141SAPE   H2R15373   2.072   4.371  10.122  1.4878  0.7914 -0.1611
  141SAPE   H2S15374   2.160   4.371  10.276 -0.2763  0.2931 -1.1346
  141SAPE    C315375   1.732   4.126  10.296  0.3580 -0.3885 -0.7061
  141SAPE    HX15376   1.671   4.054  10.353  0.5858 -0.8134 -0.9944
  141SAPE    HY15377   1.775   4.082  10.204  1.6845 -1.6238  0.4509
  141SAPE   O3115378   1.666   4.253  10.260  0.0262  0.3533  0.3056
  141SAPE   C3115379   1.539   4.269  10.293  0.4016 -0.0878 -0.6527
  141SAPE   O3215380   1.466   4.193  10.356  0.0005 -0.3995  0.1221
  141SAPE   C3215381   1.504   4.417  10.261 -0.7099 -0.2219 -0.0225
  141SAPE   H2X15382   1.585   4.459  10.198 -0.2299  1.3343  1.5517
  141SAPE   H2Y15383   1.506   4.461  10.363 -0.1894 -0.0417 -0.1074
  141SAPE   C2315384   2.253   4.254  10.116  0.3937 -0.6752 -0.0547
  141SAPE   H3R15385   2.315   4.188  10.181 -0.4219  1.5526  3.2651
  141SAPE   H3S15386   2.314   4.347  10.110 -1.5178  0.6999  0.7334
  141SAPE   C2415387   2.228   4.203   9.976  0.5703  0.5315 -0.7857
  141SAPE   H4R15388   2.154   4.120   9.974  1.6076 -0.4709  0.6637
  141SAPE   H4S15389   2.321   4.145   9.956 -0.9451 -2.6940  0.7875
  141SAPE   C2515390   2.184   4.304   9.878  0.4754  0.2075  0.1451
  141SAPE   H5R15391   2.081   4.337   9.896  0.1418  0.6775 -2.2870
  141SAPE   C2615392   2.244   4.362   9.773  1.4453  1.0169 -0.4583
  141SAPE   H6R15393   2.186   4.434   9.714 -2.8640 -0.5304  1.4488
  141SAPE   C2715394   2.386   4.336   9.733 -0.0619  0.5052 -0.0869
  141SAPE   H7R15395   2.386   4.263   9.649  1.8348 -0.3626  0.6041
  141SAPE   H7S15396   2.435   4.275   9.812 -0.9952 -1.7559 -1.1523
  141SAPE   C2815397   2.465   4.455   9.678  0.3592 -0.0711 -0.3303
  141SAPE   H8R15398   2.473   4.534   9.754  1.0546 -1.2882  0.9269
  141SAPE   C2915399   2.516   4.465   9.559 -0.4147 -0.3374  0.4043
  141SAPE   H9R15400   2.578   4.554   9.538 -2.8969  1.2382 -0.6970
  141SAPE  C21015401   2.502   4.373   9.441 -0.6385  0.3413  0.1577
  141SAPE  H10R15402   2.405   4.390   9.390  0.2326  1.5108 -1.2024
  141SAPE  H10S15403   2.495   4.269   9.479 -1.9182  0.1808 -0.4584
  141SAPE  C21115404   2.616   4.386   9.341 -0.0565 -0.1754  0.6178
  141SAPE  H11R15405   2.703   4.429   9.393  1.3623 -0.6362 -1.2390
  141SAPE  C21215406   2.616   4.360   9.204 -1.1623  0.1358 -0.0472
  141SAPE  H12R15407   2.699   4.386   9.137 -0.2421 -3.0628 -0.2987
  141SAPE  C21315408   2.489   4.312   9.133 -0.6758  0.1727  0.2928
  141SAPE  H13R15409   2.448   4.398   9.076 -1.7287 -0.3771  0.1935
  141SAPE  H13S15410   2.411   4.272   9.202 -0.2233  0.4125  0.9599
  141SAPE  C21415411   2.528   4.201   9.042 -0.0444 -0.2373 -0.2307
  141SAPE  H14R15412   2.554   4.105   9.088 -1.8303 -0.3480  0.6255
  141SAPE  C21515413   2.533   4.202   8.909  0.0340  0.1317  0.0850
  141SAPE  H15R15414   2.567   4.104   8.873  0.3196 -0.1881  1.2051
  141SAPE  C21615415   2.502   4.305   8.805  0.9927 -0.1058  0.2692
  141SAPE  H16R15416   2.452   4.397   8.843 -0.6789 -1.4789  1.5206
  141SAPE  H16S15417   2.437   4.247   8.736 -0.7467 -0.0007  1.7388
  141SAPE  C21715418   2.632   4.350   8.728  0.5958 -0.7284 -0.2694
  141SAPE  H17R15419   2.720   4.383   8.787  0.4042 -1.1041  0.2424
  141SAPE  H17S15420   2.611   4.436   8.661  1.1043 -0.3386  0.0678
  141SAPE  C21815421   2.672   4.236   8.642 -1.2213  0.8627 -0.3691
  141SAPE  H18R15422   2.602   4.216   8.559 -2.5653  2.7551  0.2492
  141SAPE  H18S15423   2.693   4.145   8.702  0.0252 -1.0096 -3.3908
  141SAPE  C21915424   2.800   4.274   8.556  0.4338 -0.1682  0.3949
  141SAPE  H19R15425   2.878   4.309   8.627 -1.1559  0.3190  1.9786
  141SAPE  H19S15426   2.771   4.354   8.485  0.9128 -0.9819 -0.7510
  141SAPE  C22015427   2.851   4.159   8.472 -0.0000 -0.5506 -0.9768
  141SAPE  H20R15428   2.863   4.065   8.530  2.3767  1.2612  1.7744
  141SAPE  H20S15429   2.947   4.178   8.418  0.7169 -2.7530 -0.6017
  141SAPE  H20T15430   2.781   4.145   8.387  0.1947  2.1447 -1.6519
  141SAPE   C3315431   1.367   4.428  10.194 -0.0865 -0.2023 -0.3927
  141SAPE   H3X15432   1.328   4.531  10.183 -0.1624 -0.2287 -0.3700
  141SAPE   H3Y15433   1.291   4.375  10.255 -0.6774 -0.7181 -1.5445
  141SAPE   C3415434   1.370   4.358  10.058 -0.2818  0.3298  0.1854
  141SAPE   H4X15435   1.354   4.248  10.069  1.9929  0.0642  1.3125
  141SAPE   H4Y15436   1.470   4.365  10.012  0.4304  1.2125  1.8051
  141SAPE   C3515437   1.262   4.420   9.967  0.3374  0.6479  0.0871
  141SAPE   H5X15438   1.272   4.530   9.956  1.3399  0.8202  2.1929
  141SAPE   H5Y15439   1.164   4.423  10.019  0.2852  1.8459 -0.0575
  141SAPE   C3615440   1.238   4.348   9.830 -0.1247 -0.4597 -0.8747
  141SAPE   H6X15441   1.141   4.382   9.790  0.4952  0.9712 -1.2013
  141SAPE   H6Y15442   1.234   4.238   9.846  1.8331 -0.2663  1.6288
  141SAPE   C3715443   1.347   4.390   9.730 -0.0665 -0.8033  0.3572
  141SAPE   H7X15444   1.445   4.341   9.752  0.5574  0.0867 -0.3251
  141SAPE   H7Y15445   1.357   4.500   9.747 -0.9775 -0.5932 -0.3835
  141SAPE   C3815446   1.320   4.357   9.582 -0.0290 -0.3475  0.5105
  141SAPE   H8X15447   1.417   4.378   9.532 -0.9540 -1.1563 -1.7890
  141SAPE   H8Y15448   1.249   4.435   9.546  0.0014  0.3028  1.7911
  141SAPE   C3915449   1.271   4.215   9.547  0.2298  0.5882 -1.3263
  141SAPE   H9X15450   1.170   4.193   9.588 -0.9425  1.6656 -3.4742
  141SAPE   H9Y15451   1.331   4.149   9.614 -1.1608 -0.2191 -0.8290
  141SAPE  C31015452   1.280   4.174   9.401 -0.0259  0.5347  0.4435
  141SAPE  H10X15453   1.312   4.264   9.343 -0.7939 -0.5589 -1.7975
  141SAPE  H10Y15454   1.181   4.144   9.360  0.7111  1.3184 -2.0790
  141SAPE  C31115455   1.360   4.052   9.352  0.0331  0.1161 -0.2621
  141SAPE  H11X15456   1.328   4.035   9.247 -2.4949  1.2613  0.2604
  141SAPE  H11Y15457   1.325   3.966   9.413  0.8435 -0.6502 -0.8420
  141SAPE  C31215458   1.511   4.079   9.362  0.3733  0.3607  1.3296
  141SAPE  H12X15459   1.528   4.104   9.469  0.5178  2.8086  0.7947
  141SAPE  H12Y15460   1.542   4.170   9.307  1.4393  0.5227  2.1455
  141SAPE  C31315461   1.598   3.959   9.315  0.1990  0.4432  0.2415
  141SAPE  H13X15462   1.556   3.867   9.359 -1.8535  1.6517  0.9087
  141SAPE  H13Y15463   1.707   3.972   9.337 -0.0051  0.2172  1.4421
  141SAPE  C31415464   1.584   3.944   9.159 -0.0218 -0.0033 -0.2984
  141SAPE  H14X15465   1.610   4.036   9.102  1.6643 -1.3863 -1.9069
  141SAPE  H14Y15466   1.479   3.922   9.131 -0.7852  1.2815  1.3798
  141SAPE  C31515467   1.664   3.829   9.102  0.1223 -0.4035 -0.0220
  141SAPE  H15X15468   1.619   3.740   9.152 -0.7249 -0.7140 -1.2992
  141SAPE  H15Y15469   1.766   3.834   9.145  0.2939 -0.9816 -0.3521
  141SAPE  C31615470   1.663   3.826   8.952  0.9398 -0.3625  0.4233
  141SAPE  H16X15471   1.726   3.909   8.912 -0.1604 -0.5554 -1.8749
  141SAPE  H16Y15472   1.563   3.836   8.906  1.5644  1.2502 -0.7013
  141SAPE  C31715473   1.725   3.696   8.900  0.0885 -0.2240  0.7009
  141SAPE  H17X15474   1.656   3.615   8.931  0.6563 -0.8872  0.2691
  141SAPE  H17Y15475   1.827   3.688   8.944  1.2633 -2.0490 -2.0751
  141SAPE  C31815476   1.730   3.677   8.751 -0.0413  0.3956  0.1346
  141SAPE  H18X15477   1.805   3.743   8.703  0.2903 -1.4472 -2.0418
  141SAPE  H18Y15478   1.634   3.707   8.704  0.9175 -0.3050 -2.4120
  141SAPE  H18Z15479   1.747   3.576   8.708  0.5298 -0.5629  2.4580
  142SAPE     N15480   0.830   1.677  11.429  0.4428 -0.6376  0.5905
  142SAPE   HN115481   0.858   1.673  11.529  1.0406 -0.0820  0.4574
  142SAPE   HN215482   0.849   1.776  11.400 -0.8712 -1.3009 -3.1350
  142SAPE   HN315483   0.729   1.654  11.419  0.1316  0.3349  1.3209
  142SAPE   C1215484   0.908   1.592  11.334  0.8462  0.2775  0.3830
  142SAPE  H12A15485   0.921   1.492  11.380  0.2997  0.9385  2.0715
  142SAPE  H12B15486   1.007   1.638  11.317 -0.1102  2.8118  1.1808
  142SAPE   C1115487   0.831   1.583  11.195 -0.4826  0.2772 -0.1920
  142SAPE  H11A15488   0.737   1.523  11.202 -0.7020  0.7016  0.6466
  142SAPE  H11B15489   0.889   1.511  11.133  0.4381  1.1104 -0.3184
  142SAPE     P15490   0.891   1.762  11.013 -0.1909 -0.0933  0.1049
  142SAPE   O1315491   0.824   1.887  10.980 -0.3396  0.0601  0.5779
  142SAPE   O1415492   1.038   1.769  11.028 -0.4800 -0.5539 -0.9855
  142SAPE   O1215493   0.811   1.706  11.129 -0.2555 -0.4211 -0.3910
  142SAPE   O1115494   0.866   1.667  10.899 -0.0426 -0.2426 -0.0632
  142SAPE    C115495   0.736   1.637  10.842 -0.3793 -0.4295 -0.1786
  142SAPE    HA15496   0.708   1.538  10.884 -0.5644  0.2718  1.4271
  142SAPE    HB15497   0.656   1.706  10.877 -1.4882 -2.5364  1.7538
  142SAPE    C215498   0.747   1.639  10.687  0.1633 -0.1168 -0.4758
  142SAPE    HS15499   0.649   1.642  10.635 -0.0307  1.5420 -0.0700
  142SAPE   O2115500   0.844   1.534  10.636  0.2367 -0.1747 -0.6736
  142SAPE   C2115501   0.792   1.414  10.632  0.8612  0.2901  0.1048
  142SAPE   O2215502   0.676   1.389  10.662 -0.2645  0.3170  0.5273
  142SAPE   C2215503   0.886   1.311  10.566  0.2385  0.2386  0.0730
  142SAPE   H2R15504   0.981   1.363  10.541 -1.2153  2.9083 -0.2917
  142SAPE   H2S15505   0.899   1.223  10.633  1.0418  0.4183  0.1629
  142SAPE    C315506   0.808   1.776  10.653 -0.1381 -0.5749  0.0878
  142SAPE    HX15507   0.903   1.796  10.707 -0.9740 -1.0504  1.8409
  142SAPE    HY15508   0.741   1.860  10.681  1.3972  0.4447  0.8404
  142SAPE   O3115509   0.850   1.793  10.514  0.6262  0.2333  0.2626
  142SAPE   C3115510   0.749   1.830  10.434 -0.1560  0.0567 -0.5320
  142SAPE   O3215511   0.634   1.852  10.472 -0.0861  0.4876 -0.2797
  142SAPE   C3215512   0.795   1.848  10.295 -0.2808 -0.3367  0.3918
  142SAPE   H2X15513   0.865   1.765  10.273 -0.6527 -0.8287  1.0280
  142SAPE   H2Y15514   0.844   1.948  10.295  0.5990 -0.7284  2.0379
  142SAPE   C2315515   0.835   1.240  10.431 -0.7502  0.4016  0.4668
  142SAPE   H3R15516   0.729   1.219  10.454 -1.4598  2.3991 -0.6983
  142SAPE   H3S15517   0.896   1.148  10.414 -1.2659  0.0465  0.5226
  142SAPE   C2415518   0.847   1.326  10.305  0.0600  0.1824  0.1329
  142SAPE   H4R15519   0.768   1.403  10.320 -0.3452 -0.3267  0.6270
  142SAPE   H4S15520   0.806   1.275  10.216 -0.2372  0.3343  0.1836
  142SAPE   C2515521   0.988   1.393  10.283  0.1410  0.0133 -0.0098
  142SAPE   H5R15522   1.028   1.453  10.366 -0.1778 -0.0006  0.1542
  142SAPE   C2615523   1.072   1.364  10.184  0.3248  0.2534  0.8199
  142SAPE   H6R15524   1.173   1.404  10.198  0.4678  1.2286 -2.2578
  142SAPE   C2715525   1.047   1.268  10.066  0.0285 -0.8648 -0.3108
  142SAPE   H7R15526   0.984   1.180  10.094  0.5731 -0.7127  1.4846
  142SAPE   H7S15527   1.145   1.235  10.026  0.1698  0.0397 -0.7276
  142SAPE   C2815528   0.974   1.332   9.946 -0.4636 -0.5876 -0.1427
  142SAPE   H8R15529   0.897   1.406   9.973 -1.1862 -1.2352 -0.3996
  142SAPE   C2915530   0.993   1.322   9.810  0.2384  0.5511 -0.1208
  142SAPE   H9R15531   0.918   1.361   9.740  0.0995 -0.2236 -0.4193
  142SAPE  C21015532   1.095   1.229   9.742 -0.0023 -0.2617 -0.5685
  142SAPE  H10R15533   1.162   1.174   9.812 -2.7237 -0.9154  1.7209
  142SAPE  H10S15534   1.174   1.286   9.689  1.2442 -0.4363  1.0180
  142SAPE  C21115535   1.033   1.131   9.641  0.3200 -0.1258  0.7106
  142SAPE  H11R15536   0.976   1.050   9.689  0.6308 -0.9087 -0.2180
  142SAPE  C21215537   1.063   1.118   9.509 -0.0299 -0.3046 -0.3293
  142SAPE  H12R15538   1.018   1.034   9.455  1.1296  0.0839 -2.0053
  142SAPE  C21315539   1.164   1.204   9.436 -0.0115  0.1107 -0.1922
  142SAPE  H13R15540   1.188   1.296   9.492  0.5261  0.1437 -0.4772
  142SAPE  H13S15541   1.104   1.253   9.357 -0.3019  0.5558  0.3002
  142SAPE  C21415542   1.291   1.139   9.393 -0.3516 -0.0144  0.3819
  142SAPE  H14R15543   1.358   1.126   9.479 -0.0378  0.6165  0.2408
  142SAPE  C21515544   1.340   1.125   9.268 -0.1082 -1.2622  0.2093
  142SAPE  H15R15545   1.435   1.073   9.252  1.9407  2.6552 -1.8263
  142SAPE  C21615546   1.269   1.171   9.148  0.1437 -0.2827 -0.0524
  142SAPE  H16R15547   1.270   1.282   9.141  1.1784 -0.3547 -1.5158
  142SAPE  H16S15548   1.161   1.147   9.158  0.5806 -1.9990  0.9398
  142SAPE  C21715549   1.326   1.100   9.023 -0.2709 -0.3727  0.4946
  142SAPE  H17R15550   1.311   0.990   9.036  1.3021 -0.6200  0.3506
  142SAPE  H17S15551   1.433   1.126   9.016 -0.1191 -1.0166  0.3293
  142SAPE  C21815552   1.260   1.141   8.889  0.6221 -0.0093  0.4248
  142SAPE  H18R15553   1.289   1.244   8.860 -1.1280  0.2472 -0.5072
  142SAPE  H18S15554   1.150   1.130   8.881  0.8472 -2.5325 -0.1442
  142SAPE  C21915555   1.318   1.055   8.776 -0.4384 -0.7387 -0.8910
  142SAPE  H19R15556   1.296   0.948   8.792 -2.2095 -0.0106  2.3696
  142SAPE  H19S15557   1.428   1.067   8.765  0.1049 -2.5534  1.7092
  142SAPE  C22015558   1.257   1.092   8.644 -0.2375  0.4233  0.2209
  142SAPE  H20R15559   1.255   1.200   8.619 -1.5607  0.3239 -0.2088
  142SAPE  H20S15560   1.152   1.058   8.630  0.0464  0.5370 -2.9971
  142SAPE  H20T15561   1.308   1.036   8.562  0.6059  0.9595  0.3792
  142SAPE   C3315562   0.679   1.878  10.186 -0.3575 -0.0520 -0.2919
  142SAPE   H3X15563   0.711   1.943  10.101  4.0307 -1.1799  0.2248
  142SAPE   H3Y15564   0.583   1.910  10.232 -0.5739  1.0704 -1.4614
  142SAPE   C3415565   0.647   1.740  10.124  0.2139  0.4215  0.1590
  142SAPE   H4X15566   0.610   1.672  10.204  1.2673  0.7558  0.9614
  142SAPE   H4Y15567   0.745   1.697  10.098 -0.1433 -0.0916 -0.3496
  142SAPE   C3515568   0.545   1.737  10.008  0.3189 -0.2193  0.2302
  142SAPE   H5X15569   0.592   1.802   9.931 -0.5312  1.1259  0.8098
  142SAPE   H5Y15570   0.451   1.788  10.036 -0.6283 -0.7303 -1.8474
  142SAPE   C3615571   0.517   1.592   9.963 -0.2231 -0.5088 -0.2422
  142SAPE   H6X15572   0.410   1.561   9.972  0.0432 -0.9634  1.9601
  142SAPE   H6Y15573   0.571   1.517  10.024 -0.7818  0.2333  1.2173
  142SAPE   C3715574   0.553   1.575   9.817  0.1579 -0.1608  0.4228
  142SAPE   H7X15575   0.550   1.465   9.800 -1.4770  0.0679 -1.0042
  142SAPE   H7Y15576   0.658   1.610   9.804  0.1826 -0.0101  0.9903
  142SAPE   C3815577   0.465   1.647   9.714  0.4101 -0.4780 -0.7419
  142SAPE   H8X15578   0.436   1.751   9.741  1.6827 -0.1340 -0.6577
  142SAPE   H8Y15579   0.367   1.597   9.698 -0.1758  0.6107 -0.6786
  142SAPE   C3915580   0.518   1.643   9.569 -0.3144 -0.7285 -0.4694
  142SAPE   H9X15581   0.525   1.534   9.550  3.1181 -0.7049  0.1142
  142SAPE   H9Y15582   0.617   1.693   9.571 -0.9781  0.6383 -0.1586
  142SAPE  C31015583   0.430   1.720   9.468  0.2799  0.0560 -0.2290
  142SAPE  H10X15584   0.463   1.826   9.462  0.8149 -0.1355 -0.7539
  142SAPE  H10Y15585   0.322   1.715   9.494  0.5102 -1.0702  0.5620
  142SAPE  C31115586   0.456   1.667   9.329 -0.5184 -0.0955  0.5953
  142SAPE  H11X15587   0.436   1.558   9.335  2.0767 -0.5339  3.7969
  142SAPE  H11Y15588   0.559   1.694   9.298  0.0185 -0.1134  2.2414
  142SAPE  C31215589   0.355   1.721   9.230 -0.2972 -1.1252 -0.4352
  142SAPE  H12X15590   0.359   1.832   9.224  2.5915 -1.1538 -0.4751
  142SAPE  H12Y15591   0.251   1.696   9.257 -1.1783  0.7812 -1.8651
  142SAPE  C31315592   0.384   1.684   9.083 -0.0810  0.0040 -0.1972
  142SAPE  H13X15593   0.298   1.722   9.024  0.3971 -0.8964 -1.5241
  142SAPE  H13Y15594   0.383   1.573   9.082 -0.6945 -0.0118  0.9091
  142SAPE  C31415595   0.520   1.729   9.027 -0.1565 -0.2506  0.0071
  142SAPE  H14X15596   0.605   1.671   9.068 -0.7953 -2.9075 -2.1194
  142SAPE  H14Y15597   0.547   1.834   9.048 -0.4205  0.1852 -1.6529
  142SAPE  C31515598   0.529   1.700   8.881 -0.2648 -0.2899  0.0271
  142SAPE  H15X15599   0.520   1.589   8.869  1.3095 -0.5989  1.3783
  142SAPE  H15Y15600   0.630   1.723   8.842  0.0063  0.2833  1.0355
  142SAPE  C31615601   0.436   1.776   8.792 -0.1321 -0.1236  0.3335
  142SAPE  H16X15602   0.434   1.881   8.828 -3.1675 -0.1526  0.5005
  142SAPE  H16Y15603   0.330   1.750   8.813 -0.4621  1.2950  0.4988
  142SAPE  C31715604   0.472   1.771   8.643 -0.6625 -0.1327  0.3659
  142SAPE  H17X15605   0.479   1.663   8.617 -0.8725 -0.3311  1.1172
  142SAPE  H17Y15606   0.569   1.817   8.613 -0.3667 -0.5252  0.6958
  142SAPE  C31815607   0.361   1.826   8.561 -0.5021 -0.8568 -0.6110
  142SAPE  H18X15608   0.394   1.838   8.455 -0.7097 -0.5203 -0.6405
  142SAPE  H18Y15609   0.329   1.921   8.609  0.7961 -1.2328  1.0915
  142SAPE  H18Z15610   0.266   1.768   8.557 -1.4386  0.5745 -0.2749
  143SAPE     N15611   2.863   1.253  11.023  0.3454 -0.0094 -0.4284
  143SAPE   HN115612   2.813   1.163  11.039 -0.7344  0.7255  0.5319
  143SAPE   HN215613   2.818   1.302  10.943 -2.3377 -2.0382 -0.3090
  143SAPE   HN315614   2.960   1.226  11.000 -0.2417 -1.9823 -0.7296
  143SAPE   C1215615   2.862   1.330  11.151  0.3020  0.0414 -0.1685
  143SAPE  H12A15616   2.935   1.283  11.220 -1.5909 -3.1010 -0.0929
  143SAPE  H12B15617   2.761   1.313  11.193  0.6109  0.3497  0.7047
  143SAPE   C1115618   2.900   1.472  11.129  0.0417  0.1913  0.1906
  143SAPE  H11A15619   3.009   1.476  11.107 -0.1815 -1.2581 -1.3634
  143SAPE  H11B15620   2.872   1.517  11.227 -0.6612 -2.8176  1.4884
  143SAPE     P15621   2.862   1.690  10.993  0.1633 -0.4011  0.0772
  143SAPE   O1315622   2.760   1.757  10.908 -0.0201 -0.0638  0.5604
  143SAPE   O1415623   2.890   1.756  11.123  0.3834 -0.4344  0.4046
  143SAPE   O1215624   2.826   1.533  11.019 -0.1253 -0.1965  0.5162
  143SAPE   O1115625   2.997   1.680  10.909 -0.0984 -0.0654 -0.2425
  143SAPE    C115626   3.022   1.593  10.809 -0.1932 -0.0873 -0.5983
  143SAPE    HA15627   3.133   1.590  10.803 -0.1800  0.7414 -0.8915
  143SAPE    HB15628   2.991   1.489  10.832  0.9501 -0.8012 -2.1449
  143SAPE    C215629   2.972   1.627  10.666 -0.1582  0.5859 -0.3336
  143SAPE    HS15630   2.870   1.586  10.653  0.6775 -1.6262 -0.3351
  143SAPE   O2115631   3.057   1.568  10.572 -0.3653 -0.1330  0.0821
  143SAPE   C2115632   3.044   1.435  10.550 -0.4932 -0.2254  0.4576
  143SAPE   O2215633   2.966   1.365  10.612 -0.3350  0.2729  0.2878
  143SAPE   C2215634   3.145   1.394  10.445 -0.2061  0.7444  0.9266
  143SAPE   H2R15635   3.176   1.478  10.378  1.3113 -2.5735 -2.9239
  143SAPE   H2S15636   3.232   1.353  10.501 -1.5308 -1.8245  1.2445
  143SAPE    C315637   2.968   1.780  10.642  0.5176 -0.0185  0.7760
  143SAPE    HX15638   3.064   1.836  10.652  0.7447 -0.0034 -1.1184
  143SAPE    HY15639   2.908   1.830  10.721  1.5638  1.4053  0.7079
  143SAPE   O3115640   2.909   1.800  10.510 -0.0549 -0.1715 -0.4358
  143SAPE   C3115641   2.995   1.827  10.410 -1.0037  0.1958 -0.1863
  143SAPE   O3215642   3.110   1.863  10.424 -0.4268 -0.4370  0.3036
  143SAPE   C3215643   2.923   1.786  10.275 -0.9269  0.1150  0.3053
  143SAPE   H2X15644   2.830   1.847  10.271 -1.0309 -0.0205  0.6128
  143SAPE   H2Y15645   2.884   1.683  10.291  0.9094 -0.5361  0.8176
  143SAPE   C2315646   3.097   1.282  10.352  0.3487 -0.1759  0.1693
  143SAPE   H3R15647   3.042   1.205  10.410 -0.0315 -1.5789 -1.9660
  143SAPE   H3S15648   3.179   1.228  10.302 -0.4555  0.1404 -1.5695
  143SAPE   C2415649   3.003   1.335  10.241 -0.3631 -0.4960  0.0831
  143SAPE   H4R15650   2.929   1.392  10.301 -1.1640 -1.5270  0.0989
  143SAPE   H4S15651   2.942   1.256  10.192 -1.8612  2.3402 -3.0308
  143SAPE   C2515652   3.061   1.433  10.146 -0.8083  0.6404  0.4862
  143SAPE   H5R15653   3.070   1.531  10.194  0.2101  0.5840  0.4375
  143SAPE   C2615654   3.092   1.420  10.008  0.2876  0.5594  0.2830
  143SAPE   H6R15655   3.132   1.509   9.956  0.6339  0.3204  0.1404
  143SAPE   C2715656   3.072   1.287   9.932  0.8060 -0.0212  0.0089
  143SAPE   H7R15657   3.074   1.203  10.004 -0.1793  0.3637  0.5105
  143SAPE   H7S15658   3.161   1.268   9.869 -0.0246  1.1124 -1.5816
  143SAPE   C2815659   2.942   1.275   9.855  0.7680  0.4389 -0.0600
  143SAPE   H8R15660   2.860   1.263   9.927  1.2499 -0.3780  0.3743
  143SAPE   C2915661   2.923   1.287   9.721  0.4989 -0.4823  0.1253
  143SAPE   H9R15662   2.820   1.277   9.684 -0.0118 -1.0061  1.6418
  143SAPE  C21015663   3.030   1.312   9.618  0.8510  0.6773  0.4271
  143SAPE  H10R15664   3.131   1.321   9.664  1.2505  1.0330 -0.5152
  143SAPE  H10S15665   3.022   1.413   9.574  1.6096  0.6406  0.1934
  143SAPE  C21115666   3.052   1.198   9.524 -0.7451 -0.7059  0.2066
  143SAPE  H11R15667   3.070   1.103   9.577  2.5950 -0.2389  0.1417
  143SAPE  C21215668   3.043   1.198   9.392  0.0716  0.8691 -0.2457
  143SAPE  H12R15669   3.062   1.101   9.344 -0.3276  0.7602 -0.1881
  143SAPE  C21315670   3.006   1.311   9.304 -0.7268 -0.6501  0.1350
  143SAPE  H13R15671   3.071   1.395   9.337 -1.6167 -0.9956  3.1200
  143SAPE  H13S15672   2.909   1.359   9.331 -0.2804 -0.4589  1.4691
  143SAPE  C21415673   3.008   1.283   9.157  0.2604 -0.3287  0.0157
  143SAPE  H14R15674   3.097   1.311   9.099  1.0022 -1.8815  0.3482
  143SAPE  C21515675   2.926   1.211   9.085  0.4126  0.3978 -0.6761
  143SAPE  H15R15676   2.949   1.203   8.977  1.9723  0.6711 -0.3824
  143SAPE  C21615677   2.814   1.124   9.136 -0.4202 -0.1819 -0.5219
  143SAPE  H16R15678   2.744   1.199   9.178  0.1495  0.3967 -0.5959
  143SAPE  H16S15679   2.845   1.055   9.218 -0.9221  0.0704 -0.1130
  143SAPE  C21715680   2.745   1.039   9.030  0.6965 -0.7770  0.5243
  143SAPE  H17R15681   2.809   0.956   8.994 -0.1904 -1.4277  0.4139
  143SAPE  H17S15682   2.721   1.105   8.944  1.4393  1.3004  1.8136
  143SAPE  C21815683   2.613   0.973   9.079 -0.7022 -0.6859 -0.3173
  143SAPE  H18R15684   2.529   1.046   9.081 -0.1655 -0.0685 -0.0844
  143SAPE  H18S15685   2.630   0.945   9.185 -0.8523  2.9839  0.7939
  143SAPE  C21915686   2.566   0.849   8.987  0.0479 -1.0189  0.2392
  143SAPE  H19R15687   2.481   0.801   9.039 -0.4110  0.6770  1.1040
  143SAPE  H19S15688   2.651   0.779   8.974  0.9542  0.0720  0.1312
  143SAPE  C22015689   2.531   0.884   8.844  0.1367 -0.3493  0.0895
  143SAPE  H20R15690   2.621   0.910   8.783 -0.6273  1.5097 -0.3072
  143SAPE  H20S15691   2.468   0.975   8.851  0.0700 -0.3519 -0.4087
  143SAPE  H20T15692   2.471   0.802   8.800  0.7877  0.3874 -2.3569
  143SAPE   C3315693   3.014   1.799  10.156  0.5743 -0.7775  0.6308
  143SAPE   H3X15694   3.096   1.726  10.170  0.9162  0.0152  3.1438
  143SAPE   H3Y15695   3.057   1.902  10.151 -0.8599 -0.1750 -2.9480
  143SAPE   C3415696   2.944   1.768  10.023 -0.1821 -0.0448  0.2449
  143SAPE   H4X15697   2.855   1.836  10.025  0.2080  0.7405 -3.2539
  143SAPE   H4Y15698   2.912   1.662  10.021  1.4602 -0.6691 -4.2199
  143SAPE   C3515699   3.025   1.812   9.903 -0.7292 -0.0152  0.4305
  143SAPE   H5X15700   3.113   1.746   9.893 -2.4545 -2.3094 -0.6329
  143SAPE   H5Y15701   3.047   1.921   9.911 -0.4754 -0.0876  0.7318
  143SAPE   C3615702   2.948   1.783   9.773 -0.1533 -0.1159  0.1672
  143SAPE   H6X15703   2.863   1.854   9.766 -0.6634 -0.6433  0.8077
  143SAPE   H6Y15704   2.900   1.682   9.776 -2.2608  0.7559 -1.7697
  143SAPE   C3715705   3.032   1.785   9.645  0.0026 -0.6428 -0.3278
  143SAPE   H7X15706   3.131   1.740   9.669  0.4025  1.5975  2.8228
  143SAPE   H7Y15707   3.065   1.886   9.612  1.2100 -0.9449 -0.1229
  143SAPE   C3815708   2.981   1.700   9.532 -0.5032  0.3330 -0.3417
  143SAPE   H8X15709   2.959   1.600   9.574 -0.1409 -0.3634 -1.7474
  143SAPE   H8Y15710   3.059   1.689   9.453 -2.6076 -0.1739 -2.4612
  143SAPE   C3915711   2.868   1.772   9.465  0.3597  0.1683 -0.0524
  143SAPE   H9X15712   2.905   1.869   9.426 -0.2954 -0.2236 -1.7682
  143SAPE   H9Y15713   2.778   1.787   9.528 -0.7824 -1.7980 -1.1009
  143SAPE  C31015714   2.827   1.695   9.337  0.2555 -0.2532 -0.0773
  143SAPE  H10X15715   2.738   1.749   9.300  1.5338  2.4636  0.5970
  143SAPE  H10Y15716   2.787   1.595   9.366 -1.3625  0.7945  1.4703
  143SAPE  C31115717   2.929   1.696   9.220  0.3051 -0.1259  0.1802
  143SAPE  H11X15718   3.022   1.636   9.237  0.3631 -0.1166 -0.0930
  143SAPE  H11Y15719   2.962   1.798   9.191  1.3465 -0.2871  0.7437
  143SAPE  C31215720   2.858   1.625   9.101  0.7164 -0.1476 -0.4019
  143SAPE  H12X15721   2.756   1.668   9.095  0.7182 -0.2095 -1.0185
  143SAPE  H12Y15722   2.848   1.519   9.131 -1.0184 -0.1036 -0.7321
  143SAPE  C31315723   2.937   1.614   8.972 -0.1527  0.2926  0.2719
  143SAPE  H13X15724   2.888   1.553   8.893 -1.0978 -1.7282  2.2996
  143SAPE  H13Y15725   3.034   1.562   8.985 -0.1978 -0.1037 -0.9374
  143SAPE  C31415726   2.978   1.749   8.904  0.4718  0.0734  0.4128
  143SAPE  H14X15727   3.064   1.795   8.958 -2.0616  1.0317  4.0361
  143SAPE  H14Y15728   2.900   1.826   8.921  1.0921  0.7930  0.0450
  143SAPE  C31515729   3.002   1.737   8.754 -0.1564 -0.3474  0.6038
  143SAPE  H15X15730   3.065   1.646   8.742 -1.9250 -1.5724  0.2810
  143SAPE  H15Y15731   3.069   1.820   8.721 -1.2900  0.2934 -0.1750
  143SAPE  C31615732   2.880   1.741   8.666  1.0560 -0.0692 -1.3413
  143SAPE  H16X15733   2.814   1.829   8.680  1.5623  0.0149  0.7371
  143SAPE  H16Y15734   2.818   1.653   8.692 -0.4152  0.8367 -1.6559
  143SAPE  C31715735   2.915   1.731   8.515 -0.0593  0.9791  0.3571
  143SAPE  H17X15736   2.977   1.642   8.495 -0.6132  0.2997  1.5311
  143SAPE  H17Y15737   2.970   1.822   8.483 -0.2299  1.5315  1.5614
  143SAPE  C31815738   2.790   1.719   8.433  0.4996 -0.5647  0.6723
  143SAPE  H18X15739   2.711   1.783   8.479  0.0761 -1.0530  0.6214
  143SAPE  H18Y15740   2.762   1.612   8.422 -0.7377 -0.2705  0.8076
  143SAPE  H18Z15741   2.807   1.760   8.331 -1.3769 -1.7990 -0.1790
  144SAPE     N15742   5.381   5.359  11.298  0.1814  0.0733  1.1756
  144SAPE   HN115743   5.426   5.275  11.255  0.1091  0.5548  0.1456
  144SAPE   HN215744   5.439   5.396  11.377  0.4156 -1.4341  1.7441
  144SAPE   HN315745   5.284   5.340  11.330  0.0903 -1.8377 -0.0860
  144SAPE   C1215746   5.382   5.471  11.195  0.3001 -0.6041  0.1376
  144SAPE  H12A15747   5.406   5.559  11.260  0.9589  1.1633 -2.3589
  144SAPE  H12B15748   5.278   5.457  11.159  0.3817 -2.4139  0.5089
  144SAPE   C1115749   5.484   5.445  11.082  0.2567 -0.8949  0.1786
  144SAPE  H11A15750   5.588   5.471  11.109  1.1138 -2.6607 -1.2542
  144SAPE  H11B15751   5.469   5.518  11.000  1.1635 -0.0494  0.7451
  144SAPE     P15752   5.551   5.256  10.914  0.3036 -0.2424 -0.0651
  144SAPE   O1315753   5.692   5.243  10.947  0.2582 -0.5449 -0.1584
  144SAPE   O1415754   5.471   5.138  10.872  0.6584 -0.1966 -0.4409
  144SAPE   O1215755   5.483   5.311  11.043  0.2861  0.0989  0.6514
  144SAPE   O1115756   5.533   5.370  10.808  0.1764  0.2789  0.6661
  144SAPE    C115757   5.418   5.356  10.724 -0.8185 -0.0696  0.3723
  144SAPE    HA15758   5.399   5.250  10.694 -2.3931  0.2638  0.0814
  144SAPE    HB15759   5.323   5.398  10.763 -0.7460  1.0181 -0.5906
  144SAPE    C215760   5.443   5.413  10.587  0.2105 -0.4896  0.4015
  144SAPE    HS15761   5.371   5.366  10.518  2.2555 -1.2866 -1.2861
  144SAPE   O2115762   5.584   5.385  10.548  0.0698 -0.3395 -0.1818
  144SAPE   C2115763   5.594   5.306  10.444  0.7871  0.3300 -0.5499
  144SAPE   O2215764   5.506   5.245  10.392 -0.1506 -0.0274  0.2017
  144SAPE   C2215765   5.738   5.304  10.395  0.6534 -0.6063 -0.6415
  144SAPE   H2R15766   5.778   5.407  10.408 -2.0162  0.4546 -0.1195
  144SAPE   H2S15767   5.798   5.235  10.458  1.3172  0.3913 -0.1522
  144SAPE    C315768   5.424   5.570  10.583  0.6279 -0.1925 -0.2606
  144SAPE    HX15769   5.507   5.622  10.636 -0.4658  2.1933 -0.7779
  144SAPE    HY15770   5.324   5.589  10.626  0.7535  1.1181 -0.5001
  144SAPE   O3115771   5.409   5.615  10.441 -0.0392 -0.2559 -0.1139
  144SAPE   C3115772   5.475   5.724  10.404  0.1652  0.1974  0.5597
  144SAPE   O3215773   5.561   5.780  10.471 -0.3609 -0.1148 -0.2762
  144SAPE   C3215774   5.425   5.759  10.259  0.8588  0.5502 -0.9396
  144SAPE   H2X15775   5.314   5.756  10.267  0.9717 -0.6194  0.8500
  144SAPE   H2Y15776   5.472   5.675  10.204  2.1689  1.4622 -1.2840
  144SAPE   C2315777   5.747   5.259  10.249  0.7352 -0.6655  0.5365
  144SAPE   H3R15778   5.702   5.158  10.234 -0.7889  0.2284 -1.2363
  144SAPE   H3S15779   5.851   5.237  10.217  0.6722 -0.2949  0.0640
  144SAPE   C2415780   5.710   5.369  10.156  0.9472 -0.5335  0.0936
  144SAPE   H4R15781   5.611   5.413  10.183  0.1983 -1.3469 -1.1917
  144SAPE   H4S15782   5.688   5.320  10.059  1.6272  2.1465 -1.5188
  144SAPE   C2515783   5.812   5.478  10.142  0.5298  0.4428  0.2796
  144SAPE   H5R15784   5.893   5.466  10.215  0.7016 -0.7065 -0.0807
  144SAPE   C2615785   5.808   5.586  10.054 -0.3247  0.7590 -0.6727
  144SAPE   H6R15786   5.897   5.650  10.056  0.3723 -0.1779  1.3778
  144SAPE   C2715787   5.703   5.612   9.950  0.3240  0.1269  0.8256
  144SAPE   H7R15788   5.644   5.697   9.991 -1.8477 -0.1435 -1.5278
  144SAPE   H7S15789   5.640   5.523   9.931  1.1530 -0.4854  0.8775
  144SAPE   C2815790   5.763   5.665   9.820  0.7883  0.5735 -0.1665
  144SAPE   H8R15791   5.869   5.689   9.807  1.3916 -1.5291  0.5697
  144SAPE   C2915792   5.686   5.672   9.710 -0.0039 -0.4433  0.4783
  144SAPE   H9R15793   5.732   5.709   9.617  3.3342 -1.9591  1.3777
  144SAPE  C21015794   5.540   5.632   9.689 -0.6831  0.1143 -0.4371
  144SAPE  H10R15795   5.492   5.710   9.626  0.0104  0.5915 -0.3811
  144SAPE  H10S15796   5.488   5.649   9.786 -0.3029 -1.4863  0.0711
  144SAPE  C21115797   5.514   5.494   9.636 -0.0470 -0.0551  0.0277
  144SAPE  H11R15798   5.552   5.416   9.703  0.3573 -1.4159 -1.7222
  144SAPE  C21215799   5.472   5.453   9.517 -0.1320 -0.2727  0.3299
  144SAPE  H12R15800   5.464   5.346   9.492  2.5827 -0.6553  0.7773
  144SAPE  C21315801   5.440   5.540   9.393 -0.9062  0.1146  0.5577
  144SAPE  H13R15802   5.401   5.639   9.423 -4.3097 -1.1448  0.7611
  144SAPE  H13S15803   5.360   5.498   9.329 -0.4921  1.9785 -1.2918
  144SAPE  C21415804   5.562   5.579   9.306 -0.2339 -0.0485 -0.1107
  144SAPE  H14R15805   5.662   5.559   9.347  0.5937  2.1399 -0.9217
  144SAPE  C21515806   5.557   5.655   9.198  0.2687 -0.4908  0.0380
  144SAPE  H15R15807   5.650   5.673   9.142 -0.9783  2.4242 -1.3047
  144SAPE  C21615808   5.435   5.726   9.141 -0.2841  0.2405  0.5768
  144SAPE  H16R15809   5.385   5.787   9.219  0.1489 -1.2497  2.0746
  144SAPE  H16S15810   5.358   5.651   9.116  1.0650 -1.0021 -0.0102
  144SAPE  C21715811   5.464   5.811   9.020 -0.3161 -0.2113 -0.3984
  144SAPE  H17R15812   5.514   5.906   9.049 -2.5079  0.9779 -0.2419
  144SAPE  H17S15813   5.363   5.848   8.990 -0.3491  1.6576  1.7474
  144SAPE  C21815814   5.539   5.748   8.895 -0.3515  0.4142  0.2494
  144SAPE  H18R15815   5.629   5.696   8.935 -0.1078 -1.1421 -2.1300
  144SAPE  H18S15816   5.575   5.824   8.822 -2.1652 -0.0955 -1.2598
  144SAPE  C21915817   5.464   5.645   8.816  0.6080  0.6962  0.0408
  144SAPE  H19R15818   5.443   5.560   8.886  0.2624 -0.0977 -1.0001
  144SAPE  H19S15819   5.525   5.613   8.729  0.0411 -1.0750  0.2433
  144SAPE  C22015820   5.328   5.688   8.764 -0.4117  0.1208  0.4892
  144SAPE  H20R15821   5.332   5.791   8.723  1.9160  1.5573  3.8395
  144SAPE  H20S15822   5.254   5.697   8.846 -2.2169  0.6688 -1.1315
  144SAPE  H20T15823   5.294   5.625   8.679  1.7533  0.5420 -0.7692
  144SAPE   C3315824   5.475   5.898  10.214  0.0616  0.4379 -0.5688
  144SAPE   H3X15825   5.578   5.901  10.171  0.6319 -0.4126  0.6850
  144SAPE   H3Y15826   5.471   5.967  10.301  1.8861  0.8747 -0.7929
  144SAPE   C3415827   5.391   5.958  10.100 -0.0090  0.4241  0.3241
  144SAPE   H4X15828   5.432   6.061  10.094  2.2480 -0.4762 -1.0446
  144SAPE   H4Y15829   5.284   5.958  10.128 -0.2487  1.0618 -0.5243
  144SAPE   C3515830   5.412   5.907   9.956  0.4589 -0.3714 -0.3477
  144SAPE   H5X15831   5.322   5.844   9.942 -0.3066  0.1615  1.7411
  144SAPE   H5Y15832   5.505   5.847   9.947  0.6078  0.0212 -1.5933
  144SAPE   C3615833   5.396   6.035   9.873 -0.7742  0.1747  0.3911
  144SAPE   H6X15834   5.484   6.102   9.873 -0.4474 -0.2296  2.0162
  144SAPE   H6Y15835   5.310   6.101   9.897 -1.0506 -0.6385  1.6892
  144SAPE   C3715836   5.386   5.996   9.725 -0.1011  0.0534  0.0799
  144SAPE   H7X15837   5.323   5.905   9.720  1.7613 -1.2393 -1.3362
  144SAPE   H7Y15838   5.492   5.966   9.712 -0.4035 -1.7536  1.3440
  144SAPE   C3815839   5.341   6.103   9.629 -0.3480 -0.1668  0.5708
  144SAPE   H8X15840   5.404   6.195   9.628 -0.3660 -0.1576  0.0987
  144SAPE   H8Y15841   5.243   6.138   9.669 -0.3085 -0.4312  0.8944
  144SAPE   C3915842   5.318   6.047   9.480  0.1011 -0.3748  0.3845
  144SAPE   H9X15843   5.257   5.954   9.487 -1.9674  0.6197 -2.4501
  144SAPE   H9Y15844   5.421   6.019   9.447 -0.3193 -1.5279  0.0043
  144SAPE  C31015845   5.260   6.154   9.388 -0.0125 -1.0560  0.0972
  144SAPE  H10X15846   5.311   6.252   9.394 -1.7257 -0.1173 -0.1112
  144SAPE  H10Y15847   5.154   6.168   9.418 -0.0989  3.6900 -1.5433
  144SAPE  C31115848   5.277   6.124   9.237 -0.3347  0.9055 -0.9781
  144SAPE  H11X15849   5.201   6.047   9.213  0.1489 -0.0633  0.4985
  144SAPE  H11Y15850   5.372   6.067   9.230  0.5374  2.1002  0.4572
  144SAPE  C31215851   5.288   6.245   9.144  0.0920 -0.2745  0.2484
  144SAPE  H12X15852   5.387   6.290   9.168 -0.1002 -0.9149  2.4440
  144SAPE  H12Y15853   5.207   6.318   9.167 -0.9529 -1.3996  0.2514
  144SAPE  C31315854   5.285   6.205   8.996 -0.2549  0.0320  0.1331
  144SAPE  H13X15855   5.198   6.140   8.973 -0.3388  0.2370 -0.1299
  144SAPE  H13Y15856   5.374   6.140   8.981 -0.5938 -0.3706 -0.1450
  144SAPE  C31415857   5.312   6.330   8.912 -0.6734  0.3698  1.0893
  144SAPE  H14X15858   5.418   6.360   8.921 -0.3072 -0.7411  0.6672
  144SAPE  H14Y15859   5.250   6.417   8.945 -0.5357  0.8399  0.1583
  144SAPE  C31515860   5.275   6.312   8.766  0.2219  0.3399  0.3195
  144SAPE  H15X15861   5.313   6.404   8.717  1.1012  1.0487  2.2248
  144SAPE  H15Y15862   5.164   6.315   8.767  0.2249  0.3403  0.6180
  144SAPE  C31615863   5.336   6.191   8.682  0.3824 -0.1899  0.0267
  144SAPE  H16X15864   5.279   6.101   8.711 -0.2806  0.2621  0.1485
  144SAPE  H16Y15865   5.438   6.166   8.718  0.1685 -1.7358 -0.3872
  144SAPE  C31715866   5.334   6.201   8.533 -0.7149  0.3044  0.5714
  144SAPE  H17X15867   5.416   6.271   8.506  0.8989 -2.1730 -1.4466
  144SAPE  H17Y15868   5.236   6.232   8.492 -0.5258  0.2745  0.0979
  144SAPE  C31815869   5.381   6.067   8.470 -0.3698 -0.0591  0.8546
  144SAPE  H18X15870   5.352   6.058   8.363 -0.8684  1.5183  0.8402
  144SAPE  H18Y15871   5.336   5.983   8.528  0.3791  0.2802  1.9620
  144SAPE  H18Z15872   5.488   6.042   8.488 -0.4211 -2.8647 -1.9204
  145SAPE     N15873   4.244   0.114  11.099 -0.6646 -0.0951  0.1541
  145SAPE   HN115874   4.245   0.165  11.008  0.3559 -2.6015 -1.3622
  145SAPE   HN215875   4.165   0.148  11.158  0.0842  2.1439 -0.0618
  145SAPE   HN315876   4.338   0.131  11.139 -0.7673  1.4129 -0.1947
  145SAPE   C1215877   4.222  -0.037  11.089  0.3671 -0.6604 -0.5546
  145SAPE  H12A15878   4.279  -0.089  11.169 -0.6414 -2.1314 -0.7644
  145SAPE  H12B15879   4.265  -0.064  10.991 -1.9030 -2.1766 -1.1992
  145SAPE   C1115880   4.074  -0.066  11.082  0.4811  0.1618  0.1813
  145SAPE  H11A15881   4.055  -0.174  11.065 -2.8209  0.6402  0.1224
  145SAPE  H11B15882   4.032  -0.013  10.994 -0.4111  0.5761  0.8399
  145SAPE     P15883   3.886  -0.095  11.260  0.0365  0.4022 -0.4455
  145SAPE   O1315884   3.928  -0.222  11.326  0.3140 -0.4434  0.3164
  145SAPE   O1415885   3.807  -0.002  11.344 -0.0380  0.1237  0.2375
  145SAPE   O1215886   4.009  -0.012  11.198 -0.0236  0.4326 -0.2829
  145SAPE   O1115887   3.791  -0.125  11.134 -0.6070  0.1093  0.2672
  145SAPE    C115888   3.737  -0.022  11.054 -0.5854  1.1972  0.6898
  145SAPE    HA15889   3.632   0.001  11.081 -0.6324 -0.2447  1.8255
  145SAPE    HB15890   3.794   0.074  11.063  3.3314 -0.9340  0.7564
  145SAPE    C215891   3.727  -0.079  10.904 -0.5478 -0.3080 -0.2346
  145SAPE    HS15892   3.662  -0.166  10.924  1.2374 -1.4492  0.9629
  145SAPE   O2115893   3.861  -0.134  10.860  0.6926 -0.8089 -0.3424
  145SAPE   C2115894   3.835  -0.237  10.773 -0.3631  0.2983  0.0355
  145SAPE   O2215895   3.731  -0.291  10.747 -0.1523  0.5437 -0.1206
  145SAPE   C2215896   3.969  -0.261  10.696 -0.2143 -0.5375  0.2999
  145SAPE   H2R15897   4.046  -0.248  10.775 -1.9551 -1.5774  2.2676
  145SAPE   H2S15898   3.971  -0.366  10.658  0.7076 -0.7901  1.0177
  145SAPE    C315899   3.659   0.013  10.805 -0.5234 -0.7520 -0.2863
  145SAPE    HX15900   3.739   0.087  10.788 -0.8682 -0.2939  0.0274
  145SAPE    HY15901   3.578   0.072  10.855  2.0188  1.2210  1.7829
  145SAPE   O3115902   3.623  -0.032  10.674 -0.5897  0.2789 -0.3440
  145SAPE   C3115903   3.494  -0.064  10.659  0.6490  0.1428  0.4011
  145SAPE   O3215904   3.411  -0.040  10.746 -0.7235  0.3665 -0.3918
  145SAPE   C3215905   3.463  -0.121  10.518  0.0089  0.6224 -0.0282
  145SAPE   H2X15906   3.393  -0.049  10.470  1.0704 -0.3023 -3.2505
  145SAPE   H2Y15907   3.421  -0.218  10.552  1.8579 -0.4278 -0.5644
  145SAPE   C2315908   3.993  -0.177  10.570 -0.5547 -0.8379  0.2795
  145SAPE   H3R15909   3.892  -0.158  10.528  0.1807  3.8086  0.0031
  145SAPE   H3S15910   4.064  -0.233  10.504  1.6482  0.3752  1.4875
  145SAPE   C2415911   4.056  -0.034  10.597  0.3456 -0.2321 -0.9516
  145SAPE   H4R15912   3.981   0.012  10.665  2.1259 -1.4946  2.0768
  145SAPE   H4S15913   4.066   0.028  10.505  0.0356 -0.5121 -1.1764
  145SAPE   C2515914   4.186  -0.027  10.663 -0.5990 -0.0350 -0.8250
  145SAPE   H5R15915   4.201  -0.069  10.763  2.4477  0.2905 -1.0625
  145SAPE   C2615916   4.300   0.019  10.607 -0.1042  0.8708 -0.2728
  145SAPE   H6R15917   4.389   0.000  10.668 -1.5724 -1.6384  1.3133
  145SAPE   C2715918   4.331   0.076  10.467  0.0069 -0.1918  0.4921
  145SAPE   H7R15919   4.338   0.185  10.488 -1.1925 -0.3910  2.1932
  145SAPE   H7S15920   4.248   0.074  10.394 -0.2300  2.5717  0.5687
  145SAPE   C2815921   4.461   0.028  10.409 -0.0154 -0.1856 -0.1769
  145SAPE   H8R15922   4.528  -0.021  10.480 -1.0733 -0.2409  0.8069
  145SAPE   C2915923   4.498   0.038  10.279  0.7976  0.1980  0.2098
  145SAPE   H9R15924   4.602   0.007  10.259  0.1816 -2.3109  0.5640
  145SAPE  C21015925   4.415   0.090  10.165  0.8922 -0.4705 -0.2949
  145SAPE  H10R15926   4.477   0.151  10.095 -0.4247  0.2200 -0.8838
  145SAPE  H10S15927   4.352   0.174  10.201  1.0646 -0.7373  0.6617
  145SAPE  C21115928   4.343  -0.020  10.092  0.4200  0.1975 -1.2023
  145SAPE  H11R15929   4.270  -0.081  10.147  1.5383 -0.1705 -0.0870
  145SAPE  C21215930   4.346  -0.025   9.962 -0.0420  0.4297 -0.4029
  145SAPE  H12R15931   4.295  -0.111   9.915  1.9050 -0.7757 -0.4349
  145SAPE  C21315932   4.428   0.054   9.873  0.3476 -0.8385 -0.0812
  145SAPE  H13R15933   4.529   0.008   9.870  1.2460  0.9612  0.7368
  145SAPE  H13S15934   4.430   0.157   9.916 -0.4526 -0.8306 -0.0473
  145SAPE  C21415935   4.383   0.068   9.732 -0.2666 -0.7492 -0.3386
  145SAPE  H14R15936   4.294   0.131   9.719  1.7379  2.0923 -1.4441
  145SAPE  C21515937   4.426   0.012   9.619 -0.2369 -1.2239  0.1750
  145SAPE  H15R15938   4.367   0.018   9.526  2.5984 -1.6409 -1.7911
  145SAPE  C21615939   4.536  -0.089   9.610 -0.4276  0.3131 -0.3329
  145SAPE  H16R15940   4.562  -0.133   9.708  1.0544  1.8608  0.0293
  145SAPE  H16S15941   4.631  -0.036   9.585 -0.2529 -0.0546 -0.4663
  145SAPE  C21715942   4.535  -0.197   9.503 -0.2272 -0.4276 -0.1591
  145SAPE  H17R15943   4.461  -0.276   9.525 -1.7644  1.0454  0.2238
  145SAPE  H17S15944   4.638  -0.238   9.498  1.2242  2.9755 -1.2136
  145SAPE  C21815945   4.519  -0.150   9.360  0.2407 -0.0710  0.4820
  145SAPE  H18R15946   4.583  -0.063   9.333  0.1480 -0.6401 -1.7542
  145SAPE  H18S15947   4.419  -0.110   9.336 -1.8096 -3.2062  3.0201
  145SAPE  C21915948   4.562  -0.264   9.270  0.8394 -0.6829  0.4132
  145SAPE  H19R15949   4.506  -0.359   9.287  1.1796 -1.1838 -1.0692
  145SAPE  H19S15950   4.667  -0.297   9.286  0.6814 -1.5487 -0.2487
  145SAPE  C22015951   4.552  -0.231   9.116  0.4754 -0.1081 -0.0231
  145SAPE  H20R15952   4.620  -0.151   9.082  1.2526 -1.4634 -1.8365
  145SAPE  H20S15953   4.447  -0.205   9.089  0.5313 -0.8827 -1.0341
  145SAPE  H20T15954   4.587  -0.323   9.064 -1.8597 -0.2226 -1.5353
  145SAPE   C3315955   3.580  -0.166  10.426 -0.0538 -0.4235  0.3144
  145SAPE   H3X15956   3.645  -0.237  10.481 -0.0447  0.0080  0.8669
  145SAPE   H3Y15957   3.644  -0.082  10.391 -0.9408 -0.3825 -1.3064
  145SAPE   C3415958   3.522  -0.236  10.303 -0.2056  0.2355  0.2353
  145SAPE   H4X15959   3.452  -0.314  10.339 -0.3048  1.0777  2.0078
  145SAPE   H4Y15960   3.605  -0.284  10.247  0.5632  2.1051 -0.3163
  145SAPE   C3515961   3.441  -0.148  10.206  0.2554 -1.3075  0.2283
  145SAPE   H5X15962   3.502  -0.058  10.184 -1.3491 -0.1036  0.5059
  145SAPE   H5Y15963   3.345  -0.109  10.247  0.6717 -1.6999  1.6542
  145SAPE   C3615964   3.413  -0.221  10.069 -0.0216 -0.4640  0.3461
  145SAPE   H6X15965   3.348  -0.146  10.019  0.8266  1.0335  1.4357
  145SAPE   H6Y15966   3.338  -0.304  10.074 -0.0399 -0.4108  1.1066
  145SAPE   C3715967   3.531  -0.247   9.976  0.4876  0.0329 -0.4412
  145SAPE   H7X15968   3.605  -0.313  10.027  0.4056  0.8268  0.7433
  145SAPE   H7Y15969   3.577  -0.146   9.963 -0.4802  0.6126  0.4754
  145SAPE   C3815970   3.494  -0.292   9.837 -0.7043 -0.0677  0.8472
  145SAPE   H8X15971   3.429  -0.212   9.795  0.2995  0.2977 -0.0803
  145SAPE   H8Y15972   3.437  -0.387   9.837 -1.2455  0.1274 -2.5838
  145SAPE   C3915973   3.609  -0.318   9.733 -0.1056 -0.6464  0.1540
  145SAPE   H9X15974   3.678  -0.400   9.759  2.5296  1.5513  0.5756
  145SAPE   H9Y15975   3.674  -0.228   9.729 -2.9414  1.5240 -0.4933
  145SAPE  C31015976   3.552  -0.337   9.591  0.0692 -0.1088  0.3692
  145SAPE  H10X15977   3.486  -0.248   9.587 -1.1165 -0.5818  4.7792
  145SAPE  H10Y15978   3.490  -0.429   9.592 -1.6219  0.9728  2.5136
  145SAPE  C31115979   3.650  -0.345   9.470 -0.4732  0.3579 -0.1228
  145SAPE  H11X15980   3.741  -0.396   9.509  0.4991  1.4664 -0.8920
  145SAPE  H11Y15981   3.680  -0.241   9.444  1.0993  0.2622  1.1231
  145SAPE  C31215982   3.594  -0.415   9.356 -0.5201 -0.0058  0.1094
  145SAPE  H12X15983   3.487  -0.390   9.338 -0.6271  0.6605  1.5499
  145SAPE  H12Y15984   3.597  -0.524   9.378 -0.8291 -0.2271 -0.8640
  145SAPE  C31315985   3.680  -0.396   9.229  0.8380 -0.3471  0.2538
  145SAPE  H13X15986   3.784  -0.425   9.257  2.6171  2.4687 -2.7431
  145SAPE  H13Y15987   3.702  -0.291   9.202  1.7310 -0.6634 -0.3265
  145SAPE  C31415988   3.638  -0.471   9.101  0.2958 -0.3096 -1.2238
  145SAPE  H14X15989   3.528  -0.463   9.089  0.1710  4.0384  0.7794
  145SAPE  H14Y15990   3.655  -0.580   9.120 -0.1297 -0.0791  0.7877
  145SAPE  C31515991   3.729  -0.436   8.985  0.2927 -0.4803 -0.1969
  145SAPE  H15X15992   3.833  -0.445   9.022  0.1885 -0.3005  0.1494
  145SAPE  H15Y15993   3.711  -0.330   8.957  0.0136 -1.0138 -2.1998
  145SAPE  C31615994   3.725  -0.528   8.862 -0.0778 -0.0014  0.0566
  145SAPE  H16X15995   3.622  -0.546   8.825 -1.0412  3.8120  0.4288
  145SAPE  H16Y15996   3.771  -0.624   8.893  1.0582  0.4381 -0.1742
  145SAPE  C31715997   3.809  -0.481   8.743 -0.0039  0.6039  0.5668
  145SAPE  H17X15998   3.913  -0.484   8.780 -0.2745  2.8578  1.7184
  145SAPE  H17Y15999   3.783  -0.374   8.723 -1.0151 -0.0303 -1.9686
  145SAPE  C31816000   3.791  -0.555   8.606 -0.6771  0.1963  0.1230
  145SAPE  H18X16001   3.869  -0.526   8.532  0.7829  2.1449  2.3126
  145SAPE  H18Y16002   3.701  -0.507   8.562 -0.1075  1.2390  0.0635
  145SAPE  H18Z16003   3.785  -0.666   8.612  0.6517  0.1826  1.7352
  146SAPE     N16004   0.981   0.872  11.028  0.1042  0.4850  0.0054
  146SAPE   HN116005   1.005   0.771  11.037  1.0567  0.4673 -2.1481
  146SAPE   HN216006   1.049   0.934  11.077 -1.2586  2.1136 -0.0804
  146SAPE   HN316007   0.892   0.884  11.080  0.7322 -1.3990  1.6548
  146SAPE   C1216008   0.990   0.909  10.886  0.1780 -0.2972  0.1692
  146SAPE  H12A16009   0.925   0.998  10.869 -1.8176 -1.7455 -0.1710
  146SAPE  H12B16010   0.952   0.828  10.820 -0.9173  0.2747  0.0707
  146SAPE   C1116011   1.144   0.941  10.860 -0.2490 -0.1003  0.2087
  146SAPE  H11A16012   1.141   0.953  10.750 -0.3053 -3.3013 -0.2247
  146SAPE  H11B16013   1.210   0.858  10.891 -1.9623 -0.7021  2.4665
  146SAPE     P16014   1.256   1.184  10.865 -0.2511 -0.1282  0.3187
  146SAPE   O1316015   1.162   1.239  10.763 -0.3372 -0.1384 -0.2886
  146SAPE   O1416016   1.304   1.283  10.972 -0.2569 -0.3604  0.1227
  146SAPE   O1216017   1.187   1.056  10.931 -0.1602 -0.0891 -0.6658
  146SAPE   O1116018   1.379   1.136  10.787 -0.2100 -0.3859  0.6837
  146SAPE    C116019   1.512   1.184  10.805 -0.3339 -0.2322 -0.0039
  146SAPE    HA16020   1.536   1.185  10.914  0.9395  0.6846 -0.2768
  146SAPE    HB16021   1.579   1.107  10.762  0.2563 -0.7399  1.7125
  146SAPE    C216022   1.529   1.322  10.746  0.0260 -0.5910  0.3298
  146SAPE    HS16023   1.454   1.387  10.797 -0.8509 -1.6771  0.4614
  146SAPE   O2116024   1.496   1.322  10.609  0.6408 -0.1815  0.5010
  146SAPE   C2116025   1.474   1.451  10.566 -0.1299 -0.3081 -0.0545
  146SAPE   O2216026   1.491   1.554  10.627  0.2284  0.1152  0.0537
  146SAPE   C2216027   1.399   1.448  10.434 -0.5716  0.6821 -0.4208
  146SAPE   H2R16028   1.348   1.350  10.427  0.3601  0.1884 -0.3548
  146SAPE   H2S16029   1.328   1.534  10.434 -0.0390  1.1889 -2.9394
  146SAPE    C316030   1.672   1.383  10.762 -0.2340  0.4501 -0.3755
  146SAPE    HX16031   1.705   1.382  10.868  0.9206  0.5486 -0.7257
  146SAPE    HY16032   1.672   1.493  10.747 -0.6499  0.7545  1.6045
  146SAPE   O3116033   1.777   1.321  10.680  0.3976 -0.0287 -0.3203
  146SAPE   C3116034   1.886   1.401  10.669 -0.4019  0.3013  0.2739
  146SAPE   O3216035   1.913   1.492  10.742 -0.1271 -0.9039  0.5905
  146SAPE   C3216036   1.964   1.360  10.541 -0.1066 -0.1540 -0.5112
  146SAPE   H2X16037   1.952   1.254  10.512  0.3842  0.2807 -2.3908
  146SAPE   H2Y16038   2.069   1.381  10.571 -0.5742 -1.7657  2.7140
  146SAPE   C2316039   1.508   1.460  10.329 -0.2654 -0.3488  0.4126
  146SAPE   H3R16040   1.586   1.382  10.341  0.5135  0.4018  0.3501
  146SAPE   H3S16041   1.572   1.548  10.350  1.8202 -1.7712  0.3287
  146SAPE   C2416042   1.460   1.476  10.184  0.2172 -0.5071  0.0250
  146SAPE   H4R16043   1.370   1.539  10.198  0.2545 -0.7739  1.6828
  146SAPE   H4S16044   1.425   1.372  10.166  1.0471 -0.7450 -0.2895
  146SAPE   C2516045   1.551   1.524  10.071  0.3269 -0.1281 -0.1770
  146SAPE   H5R16046   1.616   1.611  10.090  0.7709  0.5504 -3.9493
  146SAPE   C2616047   1.562   1.468   9.945 -0.2943  0.5131  0.2429
  146SAPE   H6R16048   1.626   1.526   9.878 -0.7397  0.7859  0.0530
  146SAPE   C2716049   1.495   1.340   9.899 -0.7277 -0.1234 -0.6544
  146SAPE   H7R16050   1.388   1.345   9.926 -0.7933 -1.1741 -0.6813
  146SAPE   H7S16051   1.536   1.256   9.959 -0.3089  0.4932 -0.0475
  146SAPE   C2816052   1.512   1.317   9.748 -0.2881  0.4196  0.2542
  146SAPE   H8R16053   1.499   1.407   9.686 -0.1925  2.3158  2.7921
  146SAPE   C2916054   1.532   1.190   9.703  0.5031  0.0833 -0.4188
  146SAPE   H9R16055   1.544   1.174   9.595 -1.7277  0.8961 -0.8537
  146SAPE  C21016056   1.554   1.058   9.775  0.2354  0.2126  0.4721
  146SAPE  H10R16057   1.558   1.073   9.885 -0.2184  1.9689  0.2881
  146SAPE  H10S16058   1.647   1.007   9.745 -0.6842  0.1459 -2.5544
  146SAPE  C21116059   1.436   0.968   9.740 -0.1184  0.5292  0.4244
  146SAPE  H11R16060   1.341   1.004   9.781  0.3342  2.5454 -0.2000
  146SAPE  C21216061   1.434   0.865   9.646 -0.0995 -0.0614 -0.6846
  146SAPE  H12R16062   1.344   0.807   9.621  0.8444 -1.6288 -0.5834
  146SAPE  C21316063   1.550   0.805   9.571 -0.0138  0.0706 -0.6468
  146SAPE  H13R16064   1.520   0.708   9.525 -0.8647 -0.3952  0.8054
  146SAPE  H13S16065   1.632   0.786   9.644 -2.3228 -4.5459  1.1250
  146SAPE  C21416066   1.595   0.898   9.467 -0.3910 -0.0062  0.4482
  146SAPE  H14R16067   1.622   1.001   9.495 -1.6688  0.8245 -1.2429
  146SAPE  C21516068   1.614   0.872   9.336  0.0109  0.0340 -0.7967
  146SAPE  H15R16069   1.659   0.946   9.270  2.0858  0.4668  0.9729
  146SAPE  C21616070   1.589   0.747   9.261  0.2003  0.1081 -0.8873
  146SAPE  H16R16071   1.479   0.742   9.247  0.1920 -0.2036 -0.7073
  146SAPE  H16S16072   1.612   0.650   9.309 -1.5734  0.5116  0.9309
  146SAPE  C21716073   1.647   0.732   9.120 -0.1001  0.3212  0.1841
  146SAPE  H17R16074   1.619   0.630   9.088  0.5617 -0.0102  0.6210
  146SAPE  H17S16075   1.757   0.736   9.135 -0.2570  0.1897  1.5767
  146SAPE  C21816076   1.611   0.835   9.004  0.4465  0.2376  0.2200
  146SAPE  H18R16077   1.648   0.933   9.043 -0.0600  1.3263 -1.8868
  146SAPE  H18S16078   1.500   0.845   8.995  0.6139  2.3230 -0.1723
  146SAPE  C21916079   1.681   0.795   8.876 -0.0864 -0.1913 -0.7352
  146SAPE  H19R16080   1.675   0.685   8.859  0.0980 -0.4779  0.8460
  146SAPE  H19S16081   1.788   0.816   8.895  0.1408 -1.3535 -0.6864
  146SAPE  C22016082   1.633   0.870   8.750 -0.5040 -0.1506  0.4252
  146SAPE  H20R16083   1.703   0.844   8.668 -1.2415 -0.3820 -0.1335
  146SAPE  H20S16084   1.639   0.977   8.779 -0.6756 -0.6042  2.2835
  146SAPE  H20T16085   1.526   0.850   8.728 -0.2699  0.2098 -1.0948
  146SAPE   C3316086   1.944   1.441  10.412 -0.5257 -0.5401  0.4262
  146SAPE   H3X16087   2.003   1.536  10.416 -0.2167 -0.7079  4.3857
  146SAPE   H3Y16088   1.841   1.476  10.394 -0.3986 -0.3512  0.0560
  146SAPE   C3416089   2.003   1.369  10.283 -0.4780 -0.8387 -0.2773
  146SAPE   H4X16090   1.968   1.265  10.299 -3.0735 -0.0580 -0.3400
  146SAPE   H4Y16091   2.114   1.369  10.286 -0.4998 -1.0015  0.9646
  146SAPE   C3516092   1.940   1.427  10.153 -0.0863  0.0479  0.3908
  146SAPE   H5X16093   1.952   1.537  10.141 -1.3245  0.1688  0.1089
  146SAPE   H5Y16094   1.830   1.431  10.170 -0.0915 -0.4662  0.5100
  146SAPE   C3616095   1.978   1.356  10.028  0.2448  0.3798 -0.0732
  146SAPE   H6X16096   1.920   1.261  10.035  1.7261 -0.4840  1.1416
  146SAPE   H6Y16097   2.086   1.328  10.026  0.2790  0.5289 -0.5153
  146SAPE   C3716098   1.955   1.436   9.899 -0.2750 -0.2341  0.3727
  146SAPE   H7X16099   2.032   1.515   9.913 -0.5920  0.0081  0.7852
  146SAPE   H7Y16100   1.857   1.489   9.889  0.0201  0.7765  2.3474
  146SAPE   C3816101   1.989   1.345   9.780 -0.1212 -0.1239  0.1496
  146SAPE   H8X16102   2.085   1.290   9.786  0.1852  0.4737  0.7216
  146SAPE   H8Y16103   2.002   1.410   9.691 -0.1574 -1.1751 -0.6463
  146SAPE   C3916104   1.883   1.246   9.753  0.5780  0.2307  0.4146
  146SAPE   H9X16105   1.782   1.288   9.773 -0.2545 -1.4060 -0.1014
  146SAPE   H9Y16106   1.889   1.151   9.810 -0.9503 -0.0610  0.1368
  146SAPE  C31016107   1.871   1.206   9.600  0.7001 -0.0648 -0.4597
  146SAPE  H10X16108   1.827   1.289   9.540  2.1528 -0.2849 -1.9246
  146SAPE  H10Y16109   1.796   1.125   9.589 -1.3334  1.7310 -0.4528
  146SAPE  C31116110   2.002   1.159   9.534  0.2895  0.3933 -0.1642
  146SAPE  H11X16111   2.039   1.074   9.595  2.0748 -0.3836 -2.2077
  146SAPE  H11Y16112   2.081   1.236   9.548 -1.1036  1.8357  0.1761
  146SAPE  C31216113   1.994   1.101   9.388 -0.3163 -0.4623 -0.1106
  146SAPE  H12X16114   1.899   1.044   9.386 -0.6780  0.1128  0.4023
  146SAPE  H12Y16115   2.082   1.038   9.361 -0.6782 -0.5039 -1.2284
  146SAPE  C31316116   1.984   1.209   9.278  0.0593 -0.1324 -0.3223
  146SAPE  H13X16117   2.089   1.242   9.263  0.4805 -0.9512  0.6932
  146SAPE  H13Y16118   1.918   1.293   9.306  0.4331  0.4716 -1.2165
  146SAPE  C31416119   1.944   1.153   9.140  0.4057 -0.0932 -0.7705
  146SAPE  H14X16120   1.841   1.115   9.129  1.0622 -2.0865 -0.4316
  146SAPE  H14Y16121   2.020   1.071   9.138  1.2309  0.4788  2.3625
  146SAPE  C31516122   1.963   1.262   9.035  1.0125 -0.0735  0.3013
  146SAPE  H15X16123   2.070   1.292   9.044  1.2779 -1.2223  1.2458
  146SAPE  H15Y16124   1.885   1.338   9.056 -1.5683 -2.5683  0.3655
  146SAPE  C31616125   1.943   1.212   8.892  0.5878  0.3830  0.4445
  146SAPE  H16X16126   1.978   1.288   8.819 -2.1643 -0.4112 -1.9060
  146SAPE  H16Y16127   1.839   1.193   8.858 -0.0892  4.5201 -0.3187
  146SAPE  C31716128   2.020   1.084   8.843 -0.4696 -0.1004  0.8373
  146SAPE  H17X16129   1.976   0.998   8.897 -0.5110 -0.3161  0.4662
  146SAPE  H17Y16130   2.125   1.111   8.863 -0.5188  1.0234 -0.2858
  146SAPE  C31816131   1.981   1.046   8.698 -0.4647  0.0611 -0.1973
  146SAPE  H18X16132   2.022   0.947   8.670 -1.7920 -0.9174  1.1510
  146SAPE  H18Y16133   2.023   1.123   8.629  0.6462  0.1684  0.5739
  146SAPE  H18Z16134   1.872   1.059   8.682 -0.4203  0.4856 -0.1749
  147SAPE     N16135   4.389   2.001   6.133  0.6234  0.7168  0.6661
  147SAPE   HN116136   4.297   1.979   6.177  1.6435 -0.6305  2.2319
  147SAPE   HN216137   4.367   2.095   6.092 -0.2372  1.1416  2.0259
  147SAPE   HN316138   4.394   1.932   6.055  0.1716  0.4383  0.8772
  147SAPE   C1216139   4.499   1.978   6.232 -0.8897  0.3954  0.1877
  147SAPE  H12A16140   4.498   2.056   6.310  0.9330  0.0272  0.6378
  147SAPE  H12B16141   4.589   2.001   6.170  0.3406 -1.2713  1.2690
  147SAPE   C1116142   4.500   1.839   6.290  0.4291 -0.8323 -0.4182
  147SAPE  H11A16143   4.410   1.821   6.353 -1.0823  0.8420 -1.9594
  147SAPE  H11B16144   4.581   1.843   6.365 -0.2173  3.1285  0.2921
  147SAPE     P16145   4.640   1.672   6.158  0.1271 -0.0609  0.0503
  147SAPE   O1316146   4.624   1.552   6.070  0.3997 -0.0719  0.2662
  147SAPE   O1416147   4.724   1.788   6.110 -0.3254  0.1919  0.7400
  147SAPE   O1216148   4.500   1.733   6.197  0.1020  0.1662 -0.1050
  147SAPE   O1116149   4.703   1.637   6.298 -0.2251  0.4468 -0.6953
  147SAPE    C116150   4.627   1.555   6.388  0.0612  0.5422 -0.1895
  147SAPE    HA16151   4.516   1.556   6.378 -0.1455  1.5875  1.7082
  147SAPE    HB16152   4.657   1.451   6.363 -0.5145  0.8279 -2.2513
  147SAPE    C216153   4.675   1.573   6.534 -1.0328  0.0594 -0.1358
  147SAPE    HS16154   4.618   1.661   6.573 -1.7642 -0.6999  0.5598
  147SAPE   O2116155   4.817   1.583   6.542 -0.0427  0.1487  0.1790
  147SAPE   C2116156   4.863   1.692   6.601  0.5529  0.2555 -0.4657
  147SAPE   O2216157   4.793   1.782   6.647  0.0972 -0.6496 -0.8364
  147SAPE   C2216158   5.018   1.695   6.588 -0.3658 -0.1002 -0.1612
  147SAPE   H2R16159   5.058   1.592   6.601 -2.1296 -0.6581  1.1590
  147SAPE   H2S16160   5.034   1.729   6.483 -0.7444 -2.7781 -1.1529
  147SAPE    C316161   4.639   1.452   6.632 -0.1210  0.0601 -0.5977
  147SAPE    HX16162   4.704   1.362   6.625 -0.2455 -0.1273  0.5232
  147SAPE    HY16163   4.541   1.413   6.599  0.5052 -1.1407 -1.0896
  147SAPE   O3116164   4.647   1.498   6.772 -0.0147 -0.3834  0.1884
  147SAPE   C3116165   4.532   1.561   6.814  0.1820  0.1404  0.2618
  147SAPE   O3216166   4.425   1.538   6.762  0.1126 -0.3371 -0.4775
  147SAPE   C3216167   4.560   1.662   6.923 -0.2479 -0.2723  0.2887
  147SAPE   H2X16168   4.530   1.759   6.879  0.8104 -0.0716 -0.0244
  147SAPE   H2Y16169   4.669   1.665   6.945 -0.1612 -0.2635 -0.1334
  147SAPE   C2316170   5.079   1.804   6.678 -0.3653 -0.1899  0.0973
  147SAPE   H3R16171   5.032   1.903   6.661  1.0504  1.0444  2.7394
  147SAPE   H3S16172   5.182   1.806   6.636  0.1051 -0.7213  1.1852
  147SAPE   C2416173   5.088   1.757   6.827 -0.2923 -0.4186 -0.5075
  147SAPE   H4R16174   5.139   1.659   6.831 -0.8842 -0.7120  0.0446
  147SAPE   H4S16175   4.984   1.734   6.861  0.4152 -1.9217  0.7477
  147SAPE   C2516176   5.156   1.862   6.914 -0.0029 -0.4525  0.0429
  147SAPE   H5R16177   5.228   1.924   6.859 -1.2614  1.1996  0.1879
  147SAPE   C2616178   5.121   1.900   7.040 -0.1416 -0.1801 -0.2783
  147SAPE   H6R16179   5.187   1.973   7.089  0.0353  0.4911 -1.5104
  147SAPE   C2716180   5.005   1.851   7.132 -1.1264  1.1111 -0.7031
  147SAPE   H7R16181   4.945   1.785   7.067 -1.6938  1.2091 -0.2851
  147SAPE   H7S16182   4.946   1.944   7.149 -0.8690  1.3926 -1.3240
  147SAPE   C2816183   5.040   1.746   7.243 -0.9687  0.8176 -0.3021
  147SAPE   H8R16184   5.097   1.658   7.210  3.2516  2.2580  2.2941
  147SAPE   C2916185   5.032   1.753   7.376  0.4912  1.1283  0.7875
  147SAPE   H9R16186   5.062   1.666   7.437 -0.5363  0.4326  0.3337
  147SAPE  C21016187   4.971   1.869   7.444 -0.5668 -0.1247 -0.4688
  147SAPE  H10R16188   4.911   1.832   7.529 -0.7948 -0.6765 -0.8603
  147SAPE  H10S16189   4.895   1.916   7.379 -0.3444 -1.5029 -1.7945
  147SAPE  C21116190   5.072   1.976   7.486  0.0896 -0.5680 -0.8232
  147SAPE  H11R16191   5.147   2.011   7.414  0.0739  0.2804 -0.4424
  147SAPE  C21216192   5.067   2.031   7.608 -0.3487 -0.1622  0.5443
  147SAPE  H12R16193   5.127   2.122   7.626  0.0501 -0.8847  3.3442
  147SAPE  C21316194   4.961   2.007   7.712 -0.1615  0.0964 -0.4107
  147SAPE  H13R16195   4.996   1.931   7.785  0.2800 -0.4280 -1.1498
  147SAPE  H13S16196   4.873   1.962   7.661  1.1437 -1.1323 -1.6830
  147SAPE  C21416197   4.926   2.144   7.762  0.5747 -0.1190  0.1277
  147SAPE  H14R16198   4.909   2.225   7.690  3.3988  0.9077  0.5025
  147SAPE  C21516199   4.903   2.181   7.889  0.2485  0.4067 -0.1283
  147SAPE  H15R16200   4.897   2.289   7.905  0.6751  0.6723 -1.6205
  147SAPE  C21616201   4.920   2.088   8.002  0.3242  0.1455 -0.1000
  147SAPE  H16R16202   4.884   1.988   7.972  1.2389  0.0236 -0.8392
  147SAPE  H16S16203   4.854   2.119   8.085 -0.2469 -1.6278  0.1393
  147SAPE  C21716204   5.060   2.069   8.053  0.3832 -0.4816  0.7571
  147SAPE  H17R16205   5.095   2.171   8.081 -2.3228  0.6561  0.3322
  147SAPE  H17S16206   5.135   2.036   7.978 -0.1022 -2.5942  1.1360
  147SAPE  C21816207   5.076   1.985   8.175 -0.2003  0.1760 -0.5937
  147SAPE  H18R16208   5.041   2.048   8.259 -2.6633  0.5484 -1.8150
  147SAPE  H18S16209   5.184   1.966   8.196 -0.4753 -1.8249 -0.8270
  147SAPE  C21916210   5.005   1.855   8.175 -0.0354  0.6830  0.8535
  147SAPE  H19R16211   5.053   1.802   8.090  1.0035  1.9493  0.6323
  147SAPE  H19S16212   4.896   1.868   8.157  0.3430  1.3141 -1.1317
  147SAPE  C22016213   5.007   1.777   8.308 -0.0849  0.1802 -0.8634
  147SAPE  H20R16214   4.965   1.675   8.304 -1.3720  0.5650  1.2182
  147SAPE  H20S16215   4.961   1.827   8.396  0.2382 -1.4373  0.2481
  147SAPE  H20T16216   5.115   1.774   8.331 -0.3401 -0.5564  0.2699
  147SAPE   C3316217   4.482   1.634   7.056 -0.2872 -0.0771  0.6232
  147SAPE   H3X16218   4.378   1.603   7.031 -1.2201  0.9753  2.8798
  147SAPE   H3Y16219   4.474   1.735   7.100 -2.2252 -0.4330  1.2221
  147SAPE   C3416220   4.539   1.532   7.154  0.6579 -0.3568 -0.3330
  147SAPE   H4X16221   4.636   1.575   7.189  0.7033  0.5018 -1.4426
  147SAPE   H4Y16222   4.551   1.433   7.106 -0.0859  0.2847 -1.9097
  147SAPE   C3516223   4.440   1.523   7.273  0.1341 -1.2727  0.2820
  147SAPE   H5X16224   4.355   1.462   7.236  0.3899 -1.2659 -0.3369
  147SAPE   H5Y16225   4.402   1.626   7.292 -1.3963 -0.9212 -3.6868
  147SAPE   C3616226   4.479   1.447   7.404 -0.0056 -0.3326  0.5026
  147SAPE   H6X16227   4.525   1.348   7.381 -0.0027 -0.0980 -0.5585
  147SAPE   H6Y16228   4.385   1.430   7.459  0.0284  1.6623  1.2522
  147SAPE   C3716229   4.563   1.526   7.499 -0.4671  0.4986  0.3237
  147SAPE   H7X16230   4.515   1.623   7.525 -1.1331  0.0553  0.7686
  147SAPE   H7Y16231   4.666   1.548   7.464  0.9306 -0.9410  3.2554
  147SAPE   C3816232   4.570   1.455   7.635  0.1185  0.4032 -0.6054
  147SAPE   H8X16233   4.613   1.355   7.615  1.5803  0.7225  0.6994
  147SAPE   H8Y16234   4.464   1.441   7.667  0.5908 -0.2732  0.7806
  147SAPE   C3916235   4.640   1.531   7.751 -0.0912  0.6281  0.3184
  147SAPE   H9X16236   4.748   1.540   7.728 -0.1077  0.2902  0.0919
  147SAPE   H9Y16237   4.635   1.463   7.839 -1.6599  1.4570  0.9037
  147SAPE  C31016238   4.591   1.673   7.784 -0.6291 -0.0711 -0.2066
  147SAPE  H10X16239   4.484   1.682   7.810 -0.7251  2.4740 -1.1622
  147SAPE  H10Y16240   4.612   1.743   7.699  0.6128 -2.2815 -1.8330
  147SAPE  C31116241   4.666   1.745   7.900  0.3166 -0.7082 -0.5681
  147SAPE  H11X16242   4.623   1.847   7.900  1.1136 -0.3316 -2.2760
  147SAPE  H11Y16243   4.773   1.749   7.869  0.3916  0.5919 -0.1753
  147SAPE  C31216244   4.651   1.683   8.039  0.6899  0.3673  0.0989
  147SAPE  H12X16245   4.693   1.748   8.119 -0.1529  1.5029 -0.3577
  147SAPE  H12Y16246   4.707   1.587   8.037 -0.1092 -0.0904 -1.5101
  147SAPE  C31316247   4.509   1.657   8.093  0.7030  0.7646  0.1310
  147SAPE  H13X16248   4.515   1.614   8.196 -0.5887  0.0018 -0.0806
  147SAPE  H13Y16249   4.462   1.573   8.036 -0.9462 -0.3468  2.9112
  147SAPE  C31416250   4.417   1.787   8.101  0.7507  0.4138  0.0340
  147SAPE  H14X16251   4.423   1.831   7.999  0.1782  0.3331 -0.0400
  147SAPE  H14Y16252   4.472   1.849   8.175  2.6924 -1.4518  0.2563
  147SAPE  C31516253   4.265   1.764   8.138 -0.2151 -0.0642 -0.1975
  147SAPE  H15X16254   4.235   1.680   8.072 -1.0623 -1.4229  1.8189
  147SAPE  H15Y16255   4.225   1.864   8.112  1.3022  0.8065  0.6714
  147SAPE  C31616256   4.239   1.735   8.285  0.3117  0.3949 -0.3999
  147SAPE  H16X16257   4.321   1.773   8.350  1.7291 -0.4185 -1.6446
  147SAPE  H16Y16258   4.240   1.625   8.302  4.2765  0.1478 -1.2426
  147SAPE  C31716259   4.121   1.803   8.349 -0.4035  0.0687  0.5639
  147SAPE  H17X16260   4.041   1.800   8.272 -0.1604  0.1285  0.3061
  147SAPE  H17Y16261   4.145   1.911   8.354  0.3149  0.0175 -1.0937
  147SAPE  C31816262   4.091   1.745   8.486 -1.9695  0.3225 -0.0500
  147SAPE  H18X16263   4.184   1.772   8.540 -1.4918  1.8491 -1.5301
  147SAPE  H18Y16264   4.083   1.635   8.493  2.3580 -0.1195  0.5491
  147SAPE  H18Z16265   4.011   1.796   8.544 -0.9296 -0.9183  2.6293
  148SAPE     N16266   2.546   6.128   6.184  0.3633 -0.1214  0.1229
  148SAPE   HN116267   2.560   6.210   6.122  0.0318 -1.1021 -1.3005
  148SAPE   HN216268   2.638   6.097   6.220  0.6018  0.0220 -0.3457
  148SAPE   HN316269   2.504   6.053   6.125  0.2295  0.1523 -0.1356
  148SAPE   C1216270   2.461   6.173   6.295  0.0252 -0.4797 -0.1078
  148SAPE  H12A16271   2.368   6.219   6.255  1.0569  1.5631 -0.3105
  148SAPE  H12B16272   2.524   6.246   6.349 -1.0198  0.9891 -0.8039
  148SAPE   C1116273   2.433   6.053   6.396 -0.2291  0.8060  0.6459
  148SAPE  H11A16274   2.372   5.980   6.338  0.3337 -0.7540  1.9469
  148SAPE  H11B16275   2.366   6.087   6.478 -0.7446  1.7383 -0.1451
  148SAPE     P16276   2.568   5.835   6.434  0.5144  0.3350 -0.0693
  148SAPE   O1316277   2.541   5.791   6.294  0.1779  0.6473 -0.3342
  148SAPE   O1416278   2.689   5.779   6.500 -0.4125  0.0279  0.0241
  148SAPE   O1216279   2.558   5.986   6.437  0.4180 -0.8891 -0.4321
  148SAPE   O1116280   2.446   5.793   6.522  0.2789  0.2372 -0.6416
  148SAPE    C116281   2.445   5.797   6.668  0.3643 -0.2123 -0.4352
  148SAPE    HA16282   2.375   5.720   6.707 -1.2650  0.4680 -1.8778
  148SAPE    HB16283   2.547   5.786   6.712  1.1249  0.8361 -1.8321
  148SAPE    C216284   2.387   5.932   6.719  0.2886 -0.1754 -0.1870
  148SAPE    HS16285   2.445   6.010   6.666 -0.5772  0.3070 -0.4595
  148SAPE   O2116286   2.409   5.942   6.863  0.0633  0.3454 -0.1980
  148SAPE   C2116287   2.364   6.052   6.913 -0.1446  0.1381  0.2318
  148SAPE   O2216288   2.320   6.150   6.854  0.5662 -0.1797 -0.6582
  148SAPE   C2216289   2.372   6.047   7.062 -0.1971  0.1022  0.4235
  148SAPE   H2R16290   2.298   5.969   7.090  0.0313 -0.8945 -1.5686
  148SAPE   H2S16291   2.476   6.022   7.090 -0.0170 -0.3120 -0.5654
  148SAPE    C316292   2.237   5.938   6.681  0.1132 -0.1616  0.5605
  148SAPE    HX16293   2.225   5.903   6.576  1.0109  1.6768 -0.1965
  148SAPE    HY16294   2.203   6.043   6.672 -0.9674 -0.5504 -0.0501
  148SAPE   O3116295   2.153   5.872   6.780  0.1005  0.8889  0.0057
  148SAPE   C3116296   2.027   5.846   6.746 -0.5315  0.7012  0.3310
  148SAPE   O3216297   1.983   5.868   6.634  0.3885 -0.7101 -0.4503
  148SAPE   C3216298   1.949   5.775   6.858 -0.2211 -0.0991  0.6805
  148SAPE   H2X16299   2.013   5.706   6.917  0.3211 -0.4125 -0.2684
  148SAPE   H2Y16300   1.871   5.727   6.796 -0.8832  1.0808  0.5594
  148SAPE   C2316301   2.337   6.190   7.120 -0.1401  0.2844 -0.5037
  148SAPE   H3R16302   2.249   6.236   7.071 -0.2204  0.6251 -0.0434
  148SAPE   H3S16303   2.417   6.258   7.084  0.6284 -0.9068 -1.0976
  148SAPE   C2416304   2.345   6.188   7.275 -0.1430  0.2702 -0.4141
  148SAPE   H4R16305   2.285   6.106   7.320 -2.6951  1.5005 -1.3804
  148SAPE   H4S16306   2.281   6.270   7.314 -1.5654 -1.9969  2.4441
  148SAPE   C2516307   2.489   6.194   7.334  0.0927  0.7592 -0.2776
  148SAPE   H5R16308   2.562   6.118   7.305 -0.2581  0.9264 -1.6686
  148SAPE   C2616309   2.532   6.273   7.431 -0.0419  0.0144  0.6493
  148SAPE   H6R16310   2.635   6.272   7.471  1.0046  1.5380 -1.7742
  148SAPE   C2716311   2.449   6.378   7.513  0.2597  0.2826  0.0413
  148SAPE   H7R16312   2.344   6.341   7.520  0.2173 -0.3070 -2.5736
  148SAPE   H7S16313   2.435   6.464   7.443  0.7260  0.2737 -0.0657
  148SAPE   C2816314   2.503   6.433   7.645 -0.2229 -1.1531  0.2242
  148SAPE   H8R16315   2.533   6.538   7.648  0.0836 -1.1698 -1.3241
  148SAPE   C2916316   2.509   6.366   7.762 -0.0250  0.6005 -0.3402
  148SAPE   H9R16317   2.551   6.409   7.854 -0.2986 -1.3206  0.7428
  148SAPE  C21016318   2.460   6.228   7.783  0.5797 -0.7066  0.0176
  148SAPE  H10R16319   2.396   6.200   7.696  1.5584  1.6178 -1.5371
  148SAPE  H10S16320   2.406   6.227   7.880 -0.5802  0.0538 -0.5892
  148SAPE  C21116321   2.577   6.141   7.793 -0.2431 -0.0579 -0.2203
  148SAPE  H11R16322   2.654   6.153   7.715 -0.6724  1.1920 -0.4671
  148SAPE  C21216323   2.588   6.037   7.880 -0.0195  0.1337  0.0384
  148SAPE  H12R16324   2.680   5.978   7.884  0.3845  0.5066 -2.2330
  148SAPE  C21316325   2.485   5.994   7.975  0.5145  0.3091  0.2652
  148SAPE  H13R16326   2.385   5.988   7.927 -0.5975  0.6546  2.3936
  148SAPE  H13S16327   2.471   6.077   8.047  0.4045 -0.0822  0.6970
  148SAPE  C21416328   2.510   5.858   8.032  0.0531  0.1394  0.7926
  148SAPE  H14R16329   2.452   5.781   7.979  2.6267 -0.8425 -0.8129
  148SAPE  C21516330   2.602   5.818   8.116  0.0967  0.0584 -0.5083
  148SAPE  H15R16331   2.596   5.722   8.169  1.3127  0.9618  1.3773
  148SAPE  C21616332   2.711   5.912   8.168  0.4912  0.1199 -0.6061
  148SAPE  H16R16333   2.717   5.924   8.279  0.9572  0.3171 -0.6482
  148SAPE  H16S16334   2.704   6.016   8.129 -1.6616 -0.4683 -1.9149
  148SAPE  C21716335   2.850   5.862   8.132  0.0783  0.3245  0.4428
  148SAPE  H17R16336   2.834   5.833   8.026 -3.3780 -1.0114  1.1839
  148SAPE  H17S16337   2.891   5.776   8.189 -0.6009  2.2515  4.1304
  148SAPE  C21816338   2.964   5.972   8.144  1.1482  0.2155 -0.5720
  148SAPE  H18R16339   2.914   6.052   8.085 -1.2317  0.7516  1.9687
  148SAPE  H18S16340   3.058   5.943   8.093  0.9325 -0.8248 -0.3939
  148SAPE  C21916341   2.981   6.035   8.284  0.1069 -0.7335 -0.3091
  148SAPE  H19R16342   3.000   5.955   8.360  2.6940 -0.4319 -0.5389
  148SAPE  H19S16343   2.886   6.085   8.309 -0.8162 -3.1636  1.4882
  148SAPE  C22016344   3.097   6.135   8.284  0.2032 -0.2509 -0.9206
  148SAPE  H20R16345   3.190   6.074   8.286  1.0976  0.8518  3.9399
  148SAPE  H20S16346   3.101   6.193   8.378 -0.6937 -2.5339  0.6397
  148SAPE  H20T16347   3.085   6.204   8.198 -0.8410  1.0890  0.2437
  148SAPE   C3316348   1.872   5.860   6.957  0.5161 -0.3428 -0.3216
  148SAPE   H3X16349   1.800   5.790   7.006  0.9986  0.4022  1.5206
  148SAPE   H3Y16350   1.801   5.923   6.899  0.5175 -1.9529 -2.1669
  148SAPE   C3416351   1.960   5.948   7.044 -0.1971  0.0182  0.4519
  148SAPE   H4X16352   2.007   6.028   6.981 -2.7733 -0.0964 -1.8249
  148SAPE   H4Y16353   2.020   5.872   7.098 -0.2201  0.6518  1.3927
  148SAPE   C3516354   1.872   6.039   7.134 -0.1362  1.1221  0.4194
  148SAPE   H5X16355   1.774   5.987   7.142 -0.5163  1.3648 -1.8867
  148SAPE   H5Y16356   1.851   6.135   7.083 -0.6086  1.1260  0.6236
  148SAPE   C3616357   1.942   6.075   7.260 -0.3014 -0.0620 -1.2340
  148SAPE   H6X16358   2.045   6.108   7.238  0.0890 -0.3034  0.1289
  148SAPE   H6Y16359   1.942   5.981   7.319  1.1654 -0.4517 -1.8230
  148SAPE   C3716360   1.861   6.178   7.341  0.4572 -0.9218  0.8930
  148SAPE   H7X16361   1.753   6.159   7.328  0.9112 -1.8298 -2.6181
  148SAPE   H7Y16362   1.887   6.278   7.301  4.8395 -0.9952  2.9504
  148SAPE   C3816363   1.875   6.205   7.486 -0.0099 -0.8268  0.0458
  148SAPE   H8X16364   1.857   6.114   7.548  1.1911 -0.6073  0.7480
  148SAPE   H8Y16365   1.802   6.284   7.513  0.9796  1.6488 -3.8115
  148SAPE   C3916366   2.012   6.247   7.531  0.3328 -0.0196  0.4932
  148SAPE   H9X16367   2.044   6.333   7.469 -0.9608 -1.1863 -1.9351
  148SAPE   H9Y16368   2.086   6.165   7.517  0.4030  0.3210 -1.4938
  148SAPE  C31016369   2.024   6.299   7.673 -0.4932 -0.3194 -0.3948
  148SAPE  H10X16370   1.989   6.404   7.670  0.1342 -0.0621  0.8725
  148SAPE  H10Y16371   2.133   6.302   7.697 -0.1861 -4.6027 -0.4921
  148SAPE  C31116372   1.953   6.222   7.779  0.1195  0.0665 -0.0062
  148SAPE  H11X16373   1.992   6.119   7.788 -0.4676 -0.1331  0.3099
  148SAPE  H11Y16374   1.848   6.218   7.742  0.2822 -0.3925 -0.4326
  148SAPE  C31216375   1.953   6.306   7.908 -0.0428 -0.0252 -0.2026
  148SAPE  H12X16376   1.875   6.383   7.893 -0.1429 -0.5378 -2.7427
  148SAPE  H12Y16377   2.052   6.353   7.926 -2.4305  4.6747  2.3136
  148SAPE  C31316378   1.914   6.228   8.033 -0.0867  0.4582  0.7433
  148SAPE  H13X16379   1.817   6.178   8.008  0.1628  0.6368 -0.6557
  148SAPE  H13Y16380   1.896   6.299   8.116 -0.1684 -0.0980  1.2106
  148SAPE  C31416381   2.014   6.124   8.079 -0.4066  0.0206  0.0970
  148SAPE  H14X16382   2.018   6.052   7.994  1.5009 -0.3810  0.4901
  148SAPE  H14Y16383   1.985   6.079   8.176  1.5470  0.4155  0.9154
  148SAPE  C31516384   2.163   6.157   8.103  0.0273 -0.2750 -1.0414
  148SAPE  H15X16385   2.201   6.208   8.012  0.0950  1.4897 -0.0904
  148SAPE  H15Y16386   2.230   6.071   8.126  2.9137  1.3857 -2.6209
  148SAPE  C31616387   2.186   6.255   8.222  0.0951  0.6909  0.1938
  148SAPE  H16X16388   2.150   6.204   8.313 -1.3928 -0.4556 -0.9808
  148SAPE  H16Y16389   2.127   6.349   8.207 -1.8222 -0.2138  1.6937
  148SAPE  C31716390   2.333   6.293   8.251  0.2227  0.3458  0.6121
  148SAPE  H17X16391   2.382   6.313   8.153 -0.0605 -0.2597  0.3375
  148SAPE  H17Y16392   2.382   6.200   8.288 -0.1083 -0.9988 -2.0842
  148SAPE  C31816393   2.338   6.405   8.350 -0.7789  0.1247 -0.1382
  148SAPE  H18X16394   2.320   6.497   8.291 -2.1195 -1.6667 -2.7121
  148SAPE  H18Y16395   2.432   6.409   8.409 -0.5880 -0.4191 -0.3967
  148SAPE  H18Z16396   2.259   6.391   8.427 -0.1552 -1.8648  0.2158
  149SAPE     N16397   1.659   5.803   6.248  0.2613  0.0281 -0.2806
  149SAPE   HN116398   1.631   5.758   6.338 -0.8969 -1.4747 -1.3259
  149SAPE   HN216399   1.631   5.735   6.174 -1.0631  2.5310 -2.2123
  149SAPE   HN316400   1.762   5.810   6.250  0.3838 -1.0976 -1.5908
  149SAPE   C1216401   1.582   5.929   6.200  0.4847  0.1032 -0.5346
  149SAPE  H12A16402   1.486   5.893   6.158 -0.8664  0.3737  2.0937
  149SAPE  H12B16403   1.634   5.975   6.114 -1.1714  0.3539 -1.4442
  149SAPE   C1116404   1.555   6.041   6.312 -0.1538 -0.0190  0.3621
  149SAPE  H11A16405   1.652   6.074   6.354 -0.7516  2.5417 -0.1146
  149SAPE  H11B16406   1.483   6.003   6.388  0.2530 -1.8942 -0.1276
  149SAPE     P16407   1.367   6.231   6.279  0.4344 -0.0210  0.1501
  149SAPE   O1316408   1.376   6.359   6.205 -0.3712 -0.4285 -0.4292
  149SAPE   O1416409   1.248   6.145   6.250 -0.2219  0.1959 -0.0262
  149SAPE   O1216410   1.496   6.149   6.244 -0.4856 -0.8751  0.2238
  149SAPE   O1116411   1.387   6.254   6.436 -0.1557  0.5983  0.8042
  149SAPE    C116412   1.482   6.354   6.476  0.0486  0.1531 -0.0315
  149SAPE    HA16413   1.541   6.405   6.397  2.8978 -1.8083  0.6888
  149SAPE    HB16414   1.426   6.427   6.539 -0.9872  0.5911 -1.4136
  149SAPE    C216415   1.583   6.292   6.570 -0.4410 -0.9051 -0.1610
  149SAPE    HS16416   1.633   6.206   6.521  0.0158 -0.1884 -0.9809
  149SAPE   O2116417   1.526   6.262   6.698 -0.2310 -0.4885 -0.5646
  149SAPE   C2116418   1.510   6.136   6.729 -1.2003  0.3758 -0.6700
  149SAPE   O2216419   1.571   6.039   6.685  0.0596 -0.4019 -0.4595
  149SAPE   C2216420   1.416   6.134   6.846 -0.3263  0.1519 -0.3529
  149SAPE   H2R16421   1.368   6.234   6.856 -1.6128 -0.3251 -1.4207
  149SAPE   H2S16422   1.338   6.062   6.815 -0.8236  1.1501 -1.5334
  149SAPE    C316423   1.702   6.395   6.603  0.4152  0.4004 -0.5180
  149SAPE    HX16424   1.667   6.493   6.643  1.7101  0.6101  0.1870
  149SAPE    HY16425   1.772   6.404   6.517  2.3492  0.2945  0.9585
  149SAPE   O3116426   1.776   6.337   6.711 -0.0376 -0.1311  0.7001
  149SAPE   C3116427   1.908   6.316   6.701  0.1397 -0.4777 -0.3087
  149SAPE   O3216428   1.973   6.331   6.598  0.5607 -0.2222 -0.4628
  149SAPE   C3216429   1.950   6.265   6.837  0.5454 -0.1207  0.1792
  149SAPE   H2X16430   2.045   6.209   6.826  1.3967  0.8266  2.3159
  149SAPE   H2Y16431   1.868   6.195   6.865 -0.5221  0.9440 -0.1977
  149SAPE   C2316432   1.487   6.090   6.977  0.0182 -0.7516  0.0028
  149SAPE   H3R16433   1.565   6.160   7.014 -0.2480 -0.7993  0.6631
  149SAPE   H3S16434   1.530   5.989   6.961 -0.5942 -1.3256  1.7682
  149SAPE   C2416435   1.399   6.075   7.106  0.2089 -1.1684  0.4902
  149SAPE   H4R16436   1.465   6.036   7.186  1.7713  1.2226  0.4771
  149SAPE   H4S16437   1.320   6.004   7.073  1.2483 -1.4115 -1.7369
  149SAPE   C2516438   1.336   6.204   7.130  0.7459 -0.4283  0.1203
  149SAPE   H5R16439   1.282   6.246   7.044 -0.9280 -1.5464  0.5694
  149SAPE   C2616440   1.342   6.267   7.248 -0.5148  0.0127 -0.2678
  149SAPE   H6R16441   1.295   6.366   7.258 -0.5428  0.1642 -1.6069
  149SAPE   C2716442   1.407   6.218   7.376  0.4642  0.3976  0.1257
  149SAPE   H7R16443   1.480   6.290   7.417  1.0337 -1.3011  2.3296
  149SAPE   H7S16444   1.475   6.133   7.352 -1.1243 -0.7806 -0.4185
  149SAPE   C2816445   1.301   6.174   7.482  0.3386 -0.1820 -0.5360
  149SAPE   H8R16446   1.219   6.124   7.428 -0.0554  1.4888 -1.5935
  149SAPE   C2916447   1.301   6.208   7.608 -0.3024  0.1596 -0.2311
  149SAPE   H9R16448   1.220   6.172   7.673  2.2191 -0.9957  2.5058
  149SAPE  C21016449   1.401   6.305   7.680  0.3506 -0.2653 -0.0377
  149SAPE  H10R16450   1.501   6.260   7.665  1.0191  1.0778  0.2590
  149SAPE  H10S16451   1.387   6.302   7.790  2.1820  1.0280  0.2766
  149SAPE  C21116452   1.386   6.450   7.639  0.4785  0.1361  0.3928
  149SAPE  H11R16453   1.376   6.470   7.531  1.0292 -1.1846  0.0835
  149SAPE  C21216454   1.425   6.555   7.713  0.3403 -0.5569  0.1999
  149SAPE  H12R16455   1.412   6.659   7.679  1.6901 -1.3190 -2.9407
  149SAPE  C21316456   1.490   6.555   7.851  0.5662  0.4969 -0.0260
  149SAPE  H13R16457   1.535   6.456   7.870  1.6850  1.0158  0.1083
  149SAPE  H13S16458   1.410   6.569   7.926  0.5548  0.9994 -0.1256
  149SAPE  C21416459   1.606   6.643   7.882 -0.0441  0.2238 -0.2024
  149SAPE  H14R16460   1.702   6.607   7.843  0.0972  2.6308 -2.3703
  149SAPE  C21516461   1.608   6.749   7.962 -0.3400  0.5862 -0.3983
  149SAPE  H15R16462   1.700   6.807   7.979 -0.8252  1.7581 -1.5597
  149SAPE  C21616463   1.493   6.815   8.042  0.7825 -0.4930  0.2748
  149SAPE  H16R16464   1.390   6.781   8.016 -0.1733  0.9391  1.9130
  149SAPE  H16S16465   1.504   6.924   8.025  2.5388 -0.4448  1.5196
  149SAPE  C21716466   1.498   6.800   8.191 -0.2897  0.1836 -0.0116
  149SAPE  H17R16467   1.600   6.833   8.221 -0.5520  0.1753  0.9089
  149SAPE  H17S16468   1.489   6.692   8.217 -0.7530  0.2682  0.1810
  149SAPE  C21816469   1.390   6.884   8.267 -0.0414 -0.3392  0.6107
  149SAPE  H18R16470   1.296   6.837   8.230 -0.5388  1.9760 -1.2723
  149SAPE  H18S16471   1.389   6.988   8.230 -1.2600 -1.1381 -1.8541
  149SAPE  C21916472   1.386   6.893   8.422 -0.9008 -0.1736  0.4437
  149SAPE  H19R16473   1.392   6.793   8.469 -0.4032  0.9461  2.9005
  149SAPE  H19S16474   1.289   6.937   8.453  0.0144  0.3881  2.6850
  149SAPE  C22016475   1.499   6.992   8.481 -0.1825  0.7531  0.4263
  149SAPE  H20R16476   1.593   6.992   8.421 -0.5617 -0.4376 -0.2052
  149SAPE  H20S16477   1.533   6.965   8.584 -0.5082  0.2813  0.4124
  149SAPE  H20T16478   1.452   7.092   8.474 -1.7420  0.0051 -0.2632
  149SAPE   C3316479   1.954   6.377   6.941  0.1495 -0.3955  0.5105
  149SAPE   H3X16480   1.979   6.330   7.038  1.1395  3.7096  2.4846
  149SAPE   H3Y16481   1.851   6.416   6.952  0.1390 -0.1547 -0.3136
  149SAPE   C3416482   2.057   6.486   6.919 -0.3707  0.0277  0.3842
  149SAPE   H4X16483   2.000   6.570   6.873  0.3838  0.2517 -0.1495
  149SAPE   H4Y16484   2.137   6.457   6.848  0.4437 -1.8883  1.9811
  149SAPE   C3516485   2.117   6.531   7.049 -0.0622  0.3755  0.0931
  149SAPE   H5X16486   2.151   6.441   7.103 -1.7147 -0.8631 -0.8242
  149SAPE   H5Y16487   2.035   6.563   7.116  1.9416  0.9084  2.4253
  149SAPE   C3616488   2.241   6.623   7.044 -0.6694  0.4477  0.0385
  149SAPE   H6X16489   2.222   6.718   6.989  1.3053  1.3423  0.7843
  149SAPE   H6Y16490   2.316   6.579   6.974 -1.0252  0.6839 -0.4935
  149SAPE   C3716491   2.311   6.647   7.181 -0.6435  0.6765  0.1019
  149SAPE   H7X16492   2.407   6.703   7.174  0.1647 -0.6294  0.3563
  149SAPE   H7Y16493   2.334   6.544   7.217 -0.3242  0.7311  0.0589
  149SAPE   C3816494   2.215   6.706   7.297 -0.8316 -0.1057  0.5869
  149SAPE   H8X16495   2.108   6.685   7.278 -0.1505 -2.0958 -1.5293
  149SAPE   H8Y16496   2.225   6.817   7.292  1.7111 -0.0576  3.5459
  149SAPE   C3916497   2.248   6.673   7.444  0.5547  0.4693 -0.7225
  149SAPE   H9X16498   2.354   6.707   7.447  1.0296 -0.5074 -3.4651
  149SAPE   H9Y16499   2.243   6.564   7.464  0.2572  0.7131  0.6254
  149SAPE  C31016500   2.162   6.743   7.550 -0.4886 -0.1819  0.5923
  149SAPE  H10X16501   2.060   6.700   7.537 -1.9138  2.7042  1.3267
  149SAPE  H10Y16502   2.160   6.853   7.535 -2.8844 -0.1777  0.5579
  149SAPE  C31116503   2.209   6.719   7.691  0.3385  0.0480 -0.5186
  149SAPE  H11X16504   2.307   6.770   7.700 -0.0759  0.5548  1.4537
  149SAPE  H11Y16505   2.209   6.610   7.711 -1.4580  0.3319  1.3995
  149SAPE  C31216506   2.109   6.787   7.794 -0.2871 -0.3366  0.4674
  149SAPE  H12X16507   2.006   6.763   7.757 -0.4350 -1.3982  1.5059
  149SAPE  H12Y16508   2.123   6.896   7.810  0.2521 -0.2994 -0.1764
  149SAPE  C31316509   2.109   6.714   7.927  0.0572  0.4379  0.7721
  149SAPE  H13X16510   2.186   6.764   7.990  1.9848  0.1409 -1.1933
  149SAPE  H13Y16511   2.134   6.607   7.910 -1.0787  0.1082  1.0835
  149SAPE  C31416512   1.979   6.709   7.996 -0.0214 -0.3407  0.1592
  149SAPE  H14X16513   1.898   6.667   7.932 -2.0976 -0.0169  2.4319
  149SAPE  H14Y16514   1.958   6.813   8.028  1.8509 -1.0334  4.2944
  149SAPE  C31516515   1.985   6.616   8.127  0.1084 -0.8809  0.5705
  149SAPE  H15X16516   2.062   6.668   8.188  1.0700 -0.1226 -1.1802
  149SAPE  H15Y16517   2.019   6.515   8.092 -1.9558 -0.7078 -2.3154
  149SAPE  C31616518   1.849   6.596   8.197 -0.4816  0.0360  0.2413
  149SAPE  H16X16519   1.779   6.545   8.127  0.1003 -0.5066  0.0399
  149SAPE  H16Y16520   1.808   6.697   8.215  2.0871  0.8484  2.1494
  149SAPE  C31716521   1.847   6.524   8.332 -0.5782  0.2841 -0.1742
  149SAPE  H17X16522   1.937   6.558   8.387  0.4235 -1.1123 -0.8924
  149SAPE  H17Y16523   1.846   6.414   8.321 -0.5509  0.0568  1.7944
  149SAPE  C31816524   1.729   6.562   8.427  0.1564 -0.3391  0.2973
  149SAPE  H18X16525   1.630   6.557   8.376  0.8450  0.1009 -1.1207
  149SAPE  H18Y16526   1.734   6.670   8.456 -1.2423 -0.3450  0.6398
  149SAPE  H18Z16527   1.725   6.484   8.506 -2.8086 -2.2307 -1.5287
  150SAPE     N16528   3.186   1.133   6.246  0.4966 -0.3027  0.5611
  150SAPE   HN116529   3.207   1.031   6.256  0.4516 -0.2335  1.3861
  150SAPE   HN216530   3.106   1.145   6.311  1.8241 -1.4185  2.5158
  150SAPE   HN316531   3.168   1.158   6.146  0.6137 -1.7388  0.1507
  150SAPE   C1216532   3.313   1.199   6.301 -0.4089  0.6870  1.1744
  150SAPE  H12A16533   3.383   1.216   6.216  0.4716 -0.4305  1.6493
  150SAPE  H12B16534   3.363   1.132   6.374 -0.6727 -1.0438 -0.1865
  150SAPE   C1116535   3.271   1.339   6.368 -0.4422 -0.4466 -0.3548
  150SAPE  H11A16536   3.253   1.417   6.291  4.5654  1.0947 -0.3255
  150SAPE  H11B16537   3.363   1.364   6.425 -0.4115 -2.3024  0.4962
  150SAPE     P16538   3.087   1.437   6.520 -0.2185  0.1937 -0.6295
  150SAPE   O1316539   3.001   1.516   6.425 -0.1914 -0.2142 -0.3026
  150SAPE   O1416540   3.016   1.388   6.643 -0.3882 -0.2062  0.5399
  150SAPE   O1216541   3.161   1.320   6.448  0.1220 -0.4209  0.4363
  150SAPE   O1116542   3.200   1.537   6.562 -0.3176 -0.0770 -0.4896
  150SAPE    C116543   3.182   1.631   6.677 -0.4746  0.1393 -0.1109
  150SAPE    HA16544   3.185   1.737   6.644  0.8433  0.1753  0.0714
  150SAPE    HB16545   3.086   1.622   6.733 -0.9905  0.9330 -0.8421
  150SAPE    C216546   3.302   1.613   6.771  0.2789  0.0567  0.3764
  150SAPE    HS16547   3.314   1.707   6.829  2.9360 -0.6603  1.1217
  150SAPE   O2116548   3.420   1.580   6.707  0.4129 -0.6421 -0.3818
  150SAPE   C2116549   3.466   1.664   6.620 -0.2065 -0.3315  0.0111
  150SAPE   O2216550   3.424   1.776   6.586 -0.1541 -0.0067 -0.0568
  150SAPE   C2216551   3.598   1.610   6.549  0.5027 -0.7779 -1.0092
  150SAPE   H2R16552   3.658   1.557   6.627 -0.9724  0.0671  0.7929
  150SAPE   H2S16553   3.577   1.534   6.472  2.4469 -1.2879 -1.1035
  150SAPE    C316554   3.270   1.505   6.881 -0.5661 -0.0472 -0.4170
  150SAPE    HX16555   3.282   1.403   6.840 -0.7515  0.1735 -1.0237
  150SAPE    HY16556   3.165   1.506   6.917 -0.0821  0.9041  1.0948
  150SAPE   O3116557   3.358   1.525   6.994 -0.2720 -0.3674  0.2248
  150SAPE   C3116558   3.482   1.476   6.984 -0.1205  0.2802 -1.4151
  150SAPE   O3216559   3.520   1.397   6.904 -0.3649 -0.3199  0.6131
  150SAPE   C3216560   3.567   1.536   7.098 -0.3083 -0.3190  0.1719
  150SAPE   H2X16561   3.576   1.645   7.081  3.8582 -0.3473  1.0790
  150SAPE   H2Y16562   3.668   1.488   7.091  0.1898  0.7289 -0.0410
  150SAPE   C2316563   3.686   1.724   6.494  0.1772 -0.1907  0.2974
  150SAPE   H3R16564   3.625   1.803   6.445  0.8037 -1.1170 -2.1598
  150SAPE   H3S16565   3.758   1.683   6.420 -0.0928 -0.3209  0.1038
  150SAPE   C2416566   3.785   1.792   6.596 -0.8833 -0.6315  0.1936
  150SAPE   H4R16567   3.722   1.841   6.673  0.0501  2.3812 -0.8192
  150SAPE   H4S16568   3.826   1.880   6.543  0.5312 -1.9850 -1.0639
  150SAPE   C2516569   3.891   1.701   6.646 -0.2168 -0.1396 -0.6838
  150SAPE   H5R16570   3.938   1.636   6.571 -2.1648 -1.2943 -0.9852
  150SAPE   C2616571   3.932   1.695   6.776 -0.1322 -0.4429 -0.7380
  150SAPE   H6R16572   4.018   1.631   6.803  0.0503  0.9615  2.5422
  150SAPE   C2716573   3.885   1.783   6.891  0.0588 -0.1808  0.2048
  150SAPE   H7R16574   3.816   1.715   6.945 -0.9162  0.1622 -0.5823
  150SAPE   H7S16575   3.838   1.876   6.853 -1.4157 -1.2285 -0.6105
  150SAPE   C2816576   4.008   1.816   6.972  0.1690 -0.2595 -0.0612
  150SAPE   H8R16577   4.091   1.870   6.924 -1.2005  1.6128 -0.4130
  150SAPE   C2916578   4.026   1.774   7.099  0.7143 -0.8831 -0.3992
  150SAPE   H9R16579   4.119   1.820   7.137  0.1700  1.5238 -1.7240
  150SAPE  C21016580   3.930   1.695   7.187 -0.6104 -0.0304  0.0475
  150SAPE  H10R16581   3.887   1.616   7.121 -1.4920  0.8028 -0.3971
  150SAPE  H10S16582   3.847   1.761   7.221 -0.6037  0.3255 -0.6009
  150SAPE  C21116583   4.001   1.635   7.304 -0.4564 -0.5284  0.0124
  150SAPE  H11R16584   4.021   1.527   7.296  1.2104 -0.4423  2.2272
  150SAPE  C21216585   4.031   1.704   7.411  0.1806  0.3971 -0.4050
  150SAPE  H12R16586   4.103   1.660   7.482  0.7367  0.5115 -0.8846
  150SAPE  C21316587   3.993   1.860   7.433  0.2864  0.1960  0.0413
  150SAPE  H13R16588   3.884   1.860   7.454  0.0230  0.4010 -1.2291
  150SAPE  H13S16589   3.997   1.915   7.337  0.9711  1.4096  0.7465
  150SAPE  C21416590   4.062   1.942   7.539  0.4415 -0.1691  0.2257
  150SAPE  H14R16591   4.098   2.036   7.494  1.5223 -0.5935  0.1646
  150SAPE  C21516592   4.077   1.925   7.671 -0.1612 -0.2482  0.2959
  150SAPE  H15R16593   4.147   1.986   7.729 -1.5192 -0.5787  2.3665
  150SAPE  C21616594   4.038   1.794   7.738 -0.0838 -0.2336  0.1738
  150SAPE  H16R16595   4.128   1.729   7.731  0.9079  1.2051 -0.7815
  150SAPE  H16S16596   3.948   1.737   7.705 -1.4168  1.3878  0.8393
  150SAPE  C21716597   4.002   1.820   7.889 -1.1409  0.3349 -0.2588
  150SAPE  H17R16598   4.070   1.902   7.921 -1.2766  1.7996 -3.3382
  150SAPE  H17S16599   4.020   1.727   7.946  0.4680  0.7590 -0.0094
  150SAPE  C21816600   3.861   1.891   7.910 -1.3009 -0.0058 -0.4073
  150SAPE  H18R16601   3.787   1.810   7.899  0.3077 -1.9922  2.1284
  150SAPE  H18S16602   3.861   1.964   7.826  4.5174  2.0017  0.8363
  150SAPE  C21916603   3.844   1.967   8.042 -0.1951 -0.0115 -0.1074
  150SAPE  H19R16604   3.902   2.062   8.049 -1.1682  0.7112 -1.4196
  150SAPE  H19S16605   3.880   1.898   8.121 -1.4256 -1.5342 -0.8239
  150SAPE  C22016606   3.693   1.998   8.065  0.0713 -0.1627 -0.2772
  150SAPE  H20R16607   3.626   1.910   8.059  0.1811 -0.4424  1.9780
  150SAPE  H20S16608   3.661   2.073   7.989  2.2720 -0.0627 -1.2058
  150SAPE  H20T16609   3.676   2.036   8.168 -1.3580  1.3157 -1.0139
  150SAPE   C3316610   3.517   1.504   7.245  0.0236  0.1313 -0.3537
  150SAPE   H3X16611   3.496   1.395   7.253 -0.4064  0.3477  3.9750
  150SAPE   H3Y16612   3.424   1.561   7.261 -0.8488 -1.3098 -0.1670
  150SAPE   C3416613   3.627   1.519   7.353 -0.2571 -0.0069  0.7779
  150SAPE   H4X16614   3.670   1.619   7.328 -1.6231  0.8576  1.7901
  150SAPE   H4Y16615   3.707   1.442   7.356 -0.9449 -0.7087  1.1169
  150SAPE   C3516616   3.574   1.537   7.491  0.4901 -0.1012 -0.9836
  150SAPE   H5X16617   3.490   1.464   7.500 -1.3978  2.1316  1.3126
  150SAPE   H5Y16618   3.523   1.636   7.502  0.0090 -0.2950 -1.4469
  150SAPE   C3616619   3.684   1.509   7.597 -0.1682  0.1891  0.3956
  150SAPE   H6X16620   3.770   1.580   7.602  0.2830 -0.4367  3.6338
  150SAPE   H6Y16621   3.727   1.408   7.574 -1.9125 -0.4234 -0.3045
  150SAPE   C3716622   3.631   1.512   7.742  0.2700 -0.0586  0.0289
  150SAPE   H7X16623   3.542   1.447   7.759  0.3639 -0.5962 -1.4382
  150SAPE   H7Y16624   3.605   1.617   7.766  3.7372  0.8887  0.0876
  150SAPE   C3816625   3.748   1.482   7.838  0.0425 -0.1539 -0.1265
  150SAPE   H8X16626   3.829   1.555   7.818  2.1834 -2.1948  0.5965
  150SAPE   H8Y16627   3.791   1.382   7.815  1.3439  0.4285 -0.3232
  150SAPE   C3916628   3.716   1.497   7.987  0.2059 -0.3994  0.0148
  150SAPE   H9X16629   3.664   1.407   8.026 -2.3512  1.0851  0.2486
  150SAPE   H9Y16630   3.658   1.589   8.007 -0.0879 -0.3786 -0.8759
  150SAPE  C31016631   3.845   1.490   8.067 -0.2800  0.3461  0.2211
  150SAPE  H10X16632   3.922   1.563   8.037  0.3492 -0.6386 -0.6263
  150SAPE  H10Y16633   3.895   1.394   8.043 -0.2621  0.5828 -0.6935
  150SAPE  C31116634   3.823   1.500   8.218 -0.0419 -0.1227 -0.8233
  150SAPE  H11X16635   3.735   1.563   8.239 -1.5136 -2.7459  1.4564
  150SAPE  H11Y16636   3.904   1.564   8.260  0.1599 -0.4259 -0.7477
  150SAPE  C31216637   3.805   1.362   8.280 -0.1957 -0.0005 -0.6503
  150SAPE  H12X16638   3.891   1.299   8.250  0.8440  0.6712  0.7463
  150SAPE  H12Y16639   3.710   1.312   8.252  0.5382 -2.1527  0.4638
  150SAPE  C31316640   3.820   1.361   8.438  0.3936  0.2096 -0.3343
  150SAPE  H13X16641   3.923   1.393   8.464 -0.0506 -0.3716  2.4641
  150SAPE  H13Y16642   3.809   1.255   8.471 -0.2784 -0.1113 -1.5315
  150SAPE  C31416643   3.720   1.453   8.515 -0.0280 -0.0254 -0.2287
  150SAPE  H14X16644   3.758   1.556   8.496 -1.6243  0.7510  0.6158
  150SAPE  H14Y16645   3.739   1.430   8.622  0.9463  0.4233 -0.2954
  150SAPE  C31516646   3.572   1.445   8.472  0.2448 -0.1962  0.2328
  150SAPE  H15X16647   3.523   1.348   8.498  0.2415  0.1322  1.4935
  150SAPE  H15Y16648   3.567   1.448   8.361 -2.7375  1.2448  0.2926
  150SAPE  C31616649   3.484   1.555   8.537 -0.2625  0.3594  0.7721
  150SAPE  H16X16650   3.378   1.540   8.508  0.6913 -3.3723 -1.3817
  150SAPE  H16Y16651   3.506   1.656   8.496 -2.0686  1.4548  2.3237
  150SAPE  C31716652   3.488   1.553   8.688 -1.1714  0.0969 -0.2540
  150SAPE  H17X16653   3.593   1.559   8.722 -1.4556 -1.7241  1.1055
  150SAPE  H17Y16654   3.458   1.449   8.715 -0.7536 -0.6470 -2.4698
  150SAPE  C31816655   3.394   1.662   8.746 -0.1474  0.2918  0.0932
  150SAPE  H18X16656   3.296   1.637   8.701 -0.1030 -0.1609  0.2470
  150SAPE  H18Y16657   3.430   1.763   8.717 -1.8269  0.3302 -2.0875
  150SAPE  H18Z16658   3.383   1.651   8.856  0.2912  0.3930  0.1483
  151SAPE     N16659   3.989   5.796   6.302  0.2258 -0.0790  0.0288
  151SAPE   HN116660   4.009   5.767   6.400 -0.9715  1.2046  0.6950
  151SAPE   HN216661   3.943   5.721   6.246 -1.4059 -0.2890  1.5236
  151SAPE   HN316662   4.073   5.832   6.254 -0.4859  2.7939  0.7530
  151SAPE   C1216663   3.896   5.914   6.315 -0.3946 -0.2155 -0.2259
  151SAPE  H12A16664   3.916   5.947   6.419  1.7620  1.7350 -1.1882
  151SAPE  H12B16665   3.792   5.878   6.298  0.1166 -1.8796 -0.0246
  151SAPE   C1116666   3.931   6.024   6.210  0.6818  0.3290  0.0042
  151SAPE  H11A16667   3.914   5.989   6.106  1.1570  2.2267 -0.7581
  151SAPE  H11B16668   4.037   6.058   6.203  0.6966  0.2233 -0.3238
  151SAPE     P16669   3.879   6.250   6.337 -0.0505  0.2220 -0.0052
  151SAPE   O1316670   4.020   6.285   6.353 -0.6419 -1.0702  0.3800
  151SAPE   O1416671   3.786   6.364   6.317 -0.1560  0.2989  0.2719
  151SAPE   O1216672   3.857   6.144   6.230 -0.2574 -0.3995  0.1329
  151SAPE   O1116673   3.844   6.178   6.474  0.2329  0.4888 -0.0746
  151SAPE    C116674   3.704   6.150   6.502 -0.0208 -0.9456  0.2354
  151SAPE    HA16675   3.629   6.204   6.441  0.0386  1.9030  2.4435
  151SAPE    HB16676   3.689   6.041   6.489  1.7032 -1.0550 -1.0210
  151SAPE    C216677   3.672   6.193   6.646  0.7764  0.1520  0.5657
  151SAPE    HS16678   3.578   6.144   6.680  0.1681  1.1835  0.4001
  151SAPE   O2116679   3.658   6.335   6.656 -0.1637 -0.0536  0.3352
  151SAPE   C2116680   3.576   6.383   6.743  0.2298  0.2028  0.0665
  151SAPE   O2216681   3.496   6.317   6.815 -0.5115 -0.2398 -0.2059
  151SAPE   C2216682   3.580   6.533   6.735  0.5875 -0.2082  0.4556
  151SAPE   H2R16683   3.656   6.567   6.662  1.0524  0.4976  1.2555
  151SAPE   H2S16684   3.479   6.561   6.698  1.3904  1.7186 -0.4155
  151SAPE    C316685   3.787   6.145   6.746  0.1215 -0.1339  0.9718
  151SAPE    HX16686   3.869   6.220   6.744  0.5899 -0.5690  2.7371
  151SAPE    HY16687   3.823   6.048   6.706 -1.0691  0.3733 -1.5312
  151SAPE   O3116688   3.742   6.129   6.882  0.0026  0.1029 -0.5486
  151SAPE   C3116689   3.668   6.036   6.918 -0.1424  0.6588  0.3016
  151SAPE   O3216690   3.631   5.938   6.859  0.0349 -0.1171 -0.1151
  151SAPE   C3216691   3.626   6.073   7.059 -0.0332  1.1257 -0.0120
  151SAPE   H2X16692   3.618   6.181   7.084 -2.2296  1.1012 -0.4471
  151SAPE   H2Y16693   3.703   6.029   7.126  0.0345  1.8562  0.4030
  151SAPE   C2316694   3.611   6.603   6.869 -0.2161 -0.0754 -0.7853
  151SAPE   H3R16695   3.560   6.546   6.949  0.0800 -1.6557 -1.6749
  151SAPE   H3S16696   3.563   6.703   6.872 -1.3070 -0.6201  0.5929
  151SAPE   C2416697   3.763   6.627   6.885  0.3859 -0.0055 -0.5179
  151SAPE   H4R16698   3.777   6.660   6.990 -1.3222 -1.3404  0.1645
  151SAPE   H4S16699   3.794   6.716   6.825 -1.7439  0.4789 -0.9744
  151SAPE   C2516700   3.854   6.501   6.874  1.0391  0.1221  0.3751
  151SAPE   H5R16701   3.885   6.488   6.769  1.5847  1.9687  0.2644
  151SAPE   C2616702   3.897   6.431   6.975 -0.4150  0.5111 -0.1447
  151SAPE   H6R16703   3.971   6.355   6.946 -0.1787  0.4838  0.5245
  151SAPE   C2716704   3.877   6.451   7.123 -0.5095 -0.5946  0.4629
  151SAPE   H7R16705   3.890   6.559   7.146  0.6258 -0.5490 -0.3077
  151SAPE   H7S16706   3.960   6.402   7.178  1.4421  0.7486 -1.1497
  151SAPE   C2816707   3.746   6.410   7.183  0.9001 -0.0046 -0.2375
  151SAPE   H8R16708   3.656   6.393   7.122  0.0476  0.0838  0.9542
  151SAPE   C2916709   3.722   6.378   7.311  0.1930 -0.4770 -0.2029
  151SAPE   H9R16710   3.618   6.360   7.342  0.9387 -4.7499  0.3804
  151SAPE  C21016711   3.829   6.371   7.425 -0.4337  0.0204 -0.1491
  151SAPE  H10R16712   3.803   6.447   7.502  2.3832 -1.5415  2.5741
  151SAPE  H10S16713   3.928   6.405   7.386 -1.8376  3.5933 -0.9762
  151SAPE  C21116714   3.828   6.238   7.494 -0.4685  0.5431  0.8517
  151SAPE  H11R16715   3.822   6.156   7.422 -1.3800  1.0341  0.3575
  151SAPE  C21216716   3.857   6.210   7.627 -0.3476 -0.7438  0.1593
  151SAPE  H12R16717   3.832   6.109   7.662 -2.0955  0.0367  1.2888
  151SAPE  C21316718   3.885   6.314   7.735  0.2429  0.1663  0.2148
  151SAPE  H13R16719   3.942   6.399   7.689 -1.3651  3.1763  3.3059
  151SAPE  H13S16720   3.957   6.289   7.815  0.5060  1.0643  0.2738
  151SAPE  C21416721   3.758   6.358   7.797  0.2225  0.1480  0.4201
  151SAPE  H14R16722   3.663   6.314   7.764 -2.3128  5.1799  0.0657
  151SAPE  C21516723   3.741   6.463   7.877  0.0768  0.7847  0.5323
  151SAPE  H15R16724   3.647   6.482   7.932  1.2450  1.5411  2.3590
  151SAPE  C21616725   3.837   6.566   7.931  0.3316 -0.2279 -0.2852
  151SAPE  H16R16726   3.806   6.671   7.914  1.3775  0.4174  1.5607
  151SAPE  H16S16727   3.927   6.550   7.867  0.3569  0.5486 -0.4499
  151SAPE  C21716728   3.857   6.551   8.086 -0.8622  0.2716  0.2749
  151SAPE  H17R16729   3.889   6.448   8.109 -1.7161 -0.5784 -2.0256
  151SAPE  H17S16730   3.759   6.575   8.133 -1.3320  2.6737 -1.6874
  151SAPE  C21816731   3.959   6.647   8.141 -0.5674 -0.2432  0.3199
  151SAPE  H18R16732   3.945   6.752   8.105  2.6106  0.6074  1.2251
  151SAPE  H18S16733   4.063   6.630   8.106 -0.5564  4.9727 -3.4046
  151SAPE  C21916734   3.963   6.641   8.300  0.1905  0.3952 -0.4499
  151SAPE  H19R16735   4.045   6.574   8.333 -1.4314 -1.6310 -0.3687
  151SAPE  H19S16736   3.867   6.598   8.336 -1.7209  3.3650 -1.6109
  151SAPE  C22016737   3.967   6.768   8.382 -0.0316  0.3423  0.2838
  151SAPE  H20R16738   3.882   6.839   8.370 -0.0613  0.0856 -1.3039
  151SAPE  H20S16739   3.988   6.744   8.488  0.6539  2.3859  0.6476
  151SAPE  H20T16740   4.060   6.826   8.364  0.0086 -0.1372 -1.2825
  151SAPE   C3316741   3.492   5.997   7.101 -0.3893 -0.5316 -0.8121
  151SAPE   H3X16742   3.503   5.888   7.083 -3.0533 -0.9840 -0.1988
  151SAPE   H3Y16743   3.414   6.032   7.029  0.2978 -1.2006 -1.9221
  151SAPE   C3416744   3.452   6.022   7.251  0.5856  0.2544 -0.6387
  151SAPE   H4X16745   3.352   5.979   7.274  0.3812  1.6516  1.4143
  151SAPE   H4Y16746   3.439   6.131   7.269 -2.6660 -0.1220 -0.0233
  151SAPE   C3516747   3.552   5.964   7.354 -0.6907 -1.0302 -0.1868
  151SAPE   H5X16748   3.654   6.006   7.344 -0.9317 -0.4330 -0.1655
  151SAPE   H5Y16749   3.572   5.858   7.328  3.7526 -0.3355 -0.3718
  151SAPE   C3616750   3.517   5.973   7.501  0.5908  0.0878  0.4946
  151SAPE   H6X16751   3.406   5.967   7.504  0.4534  2.0145  0.6532
  151SAPE   H6Y16752   3.545   6.075   7.535  1.0002 -0.2031  1.0571
  151SAPE   C3716753   3.580   5.857   7.583  0.8092 -0.2737 -0.0927
  151SAPE   H7X16754   3.688   5.876   7.596  1.1667  0.2324 -3.1073
  151SAPE   H7Y16755   3.568   5.765   7.522 -0.4313  0.4801 -1.0418
  151SAPE   C3816756   3.517   5.828   7.721  0.5623  0.3274 -0.1423
  151SAPE   H8X16757   3.409   5.804   7.736  0.6744 -0.2941 -0.3158
  151SAPE   H8Y16758   3.529   5.921   7.779  0.2084 -0.3794  1.0874
  151SAPE   C3916759   3.598   5.721   7.788  0.9381 -0.5316 -0.5070
  151SAPE   H9X16760   3.703   5.729   7.750  1.2545  0.1153  0.4672
  151SAPE   H9Y16761   3.565   5.620   7.754  2.4055 -1.6148  1.0854
  151SAPE  C31016762   3.599   5.719   7.939 -0.4697  0.6584 -1.1274
  151SAPE  H10X16763   3.653   5.628   7.970 -0.2941  1.3693  0.8205
  151SAPE  H10Y16764   3.493   5.720   7.975  0.5697  2.0588  2.2524
  151SAPE  C31116765   3.676   5.835   8.008  0.6926  0.4917  0.6480
  151SAPE  H11X16766   3.612   5.926   8.001  1.5000  1.1317  1.3811
  151SAPE  H11Y16767   3.767   5.870   7.955  1.5627 -0.6162  1.3731
  151SAPE  C31216768   3.699   5.820   8.157  0.0679  0.6724 -0.5260
  151SAPE  H12X16769   3.748   5.909   8.203  0.5358 -0.2553  0.8438
  151SAPE  H12Y16770   3.777   5.742   8.168 -1.4697 -0.6758  1.3726
  151SAPE  C31316771   3.576   5.788   8.243 -0.5615  0.2698  0.1320
  151SAPE  H13X16772   3.524   5.704   8.194  1.9135 -0.9158 -0.6541
  151SAPE  H13Y16773   3.509   5.877   8.249 -0.1894  0.6097 -0.5336
  151SAPE  C31416774   3.622   5.738   8.388 -0.0487 -0.5680 -0.7838
  151SAPE  H14X16775   3.710   5.669   8.381 -0.2590 -0.9035 -0.2377
  151SAPE  H14Y16776   3.543   5.678   8.438 -0.1529 -0.2747 -0.5957
  151SAPE  C31516777   3.669   5.857   8.475 -0.0415 -0.1740  0.0076
  151SAPE  H15X16778   3.576   5.915   8.489 -0.0740 -0.2867  0.2567
  151SAPE  H15Y16779   3.743   5.908   8.410 -0.4007 -0.0020 -0.2660
  151SAPE  C31616780   3.743   5.820   8.609 -0.5710 -0.1021  0.2559
  151SAPE  H16X16781   3.771   5.917   8.655 -0.7415  0.3549 -0.5840
  151SAPE  H16Y16782   3.833   5.758   8.589 -2.8249 -3.7466  0.3550
  151SAPE  C31716783   3.659   5.737   8.708 -0.3135  0.3360 -0.4340
  151SAPE  H17X16784   3.610   5.652   8.657 -0.8389  0.2933  0.1447
  151SAPE  H17Y16785   3.588   5.817   8.739 -0.0305  0.2765  0.3851
  151SAPE  C31816786   3.754   5.693   8.824 -0.3314  0.0325  0.7400
  151SAPE  H18X16787   3.688   5.659   8.906  0.7391  0.9997  2.0520
  151SAPE  H18Y16788   3.812   5.782   8.856 -0.1453 -0.2321  1.1354
  151SAPE  H18Z16789   3.820   5.608   8.796 -2.2331 -0.8140 -1.6176
  152SAPE     N16790   2.678   4.336   6.102  0.5389  0.6601  0.0337
  152SAPE   HN116791   2.583   4.306   6.071  0.6932  0.0693  0.1277
  152SAPE   HN216792   2.682   4.326   6.205  0.1095 -2.3786 -0.1579
  152SAPE   HN316793   2.696   4.433   6.066  1.9164 -0.5109 -2.7722
  152SAPE   C1216794   2.790   4.252   6.052 -0.7712  0.1437 -0.5392
  152SAPE  H12A16795   2.883   4.294   6.095 -0.4034 -1.0303 -0.1440
  152SAPE  H12B16796   2.797   4.269   5.942 -0.5826 -0.4149 -0.6219
  152SAPE   C1116797   2.777   4.104   6.098 -0.3563 -0.4652 -0.0221
  152SAPE  H11A16798   2.690   4.069   6.040 -0.9318  0.8492  0.0002
  152SAPE  H11B16799   2.757   4.091   6.207  2.1617 -1.0899  0.4424
  152SAPE     P16800   3.022   4.008   6.138  0.0928  0.1079  0.1996
  152SAPE   O1316801   3.101   3.906   6.070 -0.4142  0.7424  0.4801
  152SAPE   O1416802   3.091   4.136   6.162 -0.5363  0.2757 -0.1934
  152SAPE   O1216803   2.890   4.030   6.049 -0.3736  0.6437  0.6671
  152SAPE   O1116804   2.954   3.961   6.273  0.0893 -0.8341  0.3787
  152SAPE    C116805   2.900   3.840   6.317  0.0020  0.0404 -0.4760
  152SAPE    HA16806   2.789   3.844   6.321 -0.1745 -1.2039 -2.6423
  152SAPE    HB16807   2.917   3.759   6.244 -1.1298 -1.2663  0.6619
  152SAPE    C216808   2.958   3.793   6.454 -0.0765  0.1525  1.2891
  152SAPE    HS16809   2.929   3.688   6.475 -1.1421  0.0330 -0.5233
  152SAPE   O2116810   2.914   3.874   6.566  0.2719 -0.0797 -0.5712
  152SAPE   C2116811   2.785   3.878   6.596  0.9657  0.9143 -1.2349
  152SAPE   O2216812   2.691   3.827   6.537 -0.0460 -0.9828 -0.6584
  152SAPE   C2216813   2.774   3.962   6.720  0.1384  0.0172 -0.8467
  152SAPE   H2R16814   2.863   4.029   6.719  0.0127  0.1867 -0.8353
  152SAPE   H2S16815   2.674   4.011   6.722 -0.5320 -1.2309  1.8922
  152SAPE    C316816   3.110   3.799   6.445 -0.4112 -0.7031 -0.0680
  152SAPE    HX16817   3.144   3.900   6.413 -0.2061  0.3359  3.0746
  152SAPE    HY16818   3.150   3.728   6.370  1.0512  1.3849 -1.3593
  152SAPE   O3116819   3.175   3.772   6.569  0.4776  1.1069 -0.2181
  152SAPE   C3116820   3.178   3.640   6.609  0.0529 -0.0382 -0.3128
  152SAPE   O3216821   3.135   3.551   6.541  0.4970 -0.3073  0.7868
  152SAPE   C3216822   3.244   3.629   6.747  0.5275  0.1102  0.0676
  152SAPE   H2X16823   3.313   3.713   6.772 -1.7716  1.8549  0.9738
  152SAPE   H2Y16824   3.302   3.536   6.729  2.9840  1.5366  0.2406
  152SAPE   C2316825   2.786   3.870   6.847 -0.5320 -0.4724 -0.3786
  152SAPE   H3R16826   2.890   3.839   6.873 -1.0055 -0.9891  1.0288
  152SAPE   H3S16827   2.732   3.773   6.841  0.0809 -0.9497  1.1433
  152SAPE   C2416828   2.746   3.929   6.982 -0.0357  0.2815 -0.3250
  152SAPE   H4R16829   2.751   3.850   7.061  1.6323  1.6496  1.0109
  152SAPE   H4S16830   2.640   3.956   6.961  0.0233  0.5426 -0.2898
  152SAPE   C2516831   2.825   4.054   7.019  0.7564  0.6701 -0.5292
  152SAPE   H5R16832   2.802   4.143   6.959 -0.6974 -0.5274 -1.7922
  152SAPE   C2616833   2.925   4.069   7.112 -0.2505  0.0622 -0.6394
  152SAPE   H6R16834   2.971   4.168   7.126  0.6041 -0.0416 -2.4691
  152SAPE   C2716835   2.986   3.961   7.198  0.4697 -0.0826  0.5514
  152SAPE   H7R16836   3.079   4.006   7.237 -0.2221  1.0149  0.9575
  152SAPE   H7S16837   3.023   3.876   7.135  0.1828 -0.3809  0.7800
  152SAPE   C2816838   2.892   3.901   7.302 -0.6918 -0.4829  0.3407
  152SAPE   H8R16839   2.813   3.833   7.267 -1.4279  0.7047 -0.3956
  152SAPE   C2916840   2.876   3.931   7.433  0.2375 -0.2402  0.2682
  152SAPE   H9R16841   2.823   3.858   7.496 -2.4812  1.3510 -0.0088
  152SAPE  C21016842   2.951   4.043   7.501  0.0462  0.2654 -0.2350
  152SAPE  H10R16843   3.016   4.098   7.431 -0.6234  1.2917 -0.0802
  152SAPE  H10S16844   3.029   4.004   7.570 -0.9986 -1.4862  0.0177
  152SAPE  C21116845   2.871   4.143   7.568 -0.6818  0.3441 -0.5592
  152SAPE  H11R16846   2.818   4.213   7.502  1.5689  1.4445 -1.2969
  152SAPE  C21216847   2.864   4.157   7.706 -0.0529  0.4776  0.1718
  152SAPE  H12R16848   2.805   4.236   7.755  2.4406  0.5388  3.3367
  152SAPE  C21316849   2.937   4.071   7.809 -0.3251  0.3332 -0.5110
  152SAPE  H13R16850   3.043   4.102   7.818  0.4133 -1.7883 -1.3345
  152SAPE  H13S16851   2.942   3.964   7.777 -0.9991 -0.5185  2.0134
  152SAPE  C21416852   2.868   4.089   7.949 -0.1518 -0.8510  0.4404
  152SAPE  H14R16853   2.822   3.997   7.987  2.1758 -2.0211  0.6415
  152SAPE  C21516854   2.891   4.192   8.032 -0.2884  0.0318  0.0464
  152SAPE  H15R16855   2.839   4.186   8.129  0.1036  0.7957  0.3113
  152SAPE  C21616856   2.975   4.320   8.004  0.6969  0.2743 -0.6237
  152SAPE  H16R16857   3.006   4.316   7.898  0.5348  0.8978 -0.6989
  152SAPE  H16S16858   3.059   4.314   8.077  0.6152  1.5004 -0.3976
  152SAPE  C21716859   2.909   4.459   8.016  0.1296 -0.2558  0.3937
  152SAPE  H17R16860   2.826   4.473   7.944  0.2740  4.0024  0.8422
  152SAPE  H17S16861   2.985   4.532   7.983  0.0041  0.7578  2.2310
  152SAPE  C21816862   2.849   4.485   8.159  0.7523 -0.5860 -0.2199
  152SAPE  H18R16863   2.925   4.480   8.240  0.0734 -2.1293  0.3497
  152SAPE  H18S16864   2.779   4.406   8.194  0.0753  0.4847  0.9324
  152SAPE  C21916865   2.761   4.615   8.172 -0.6503  0.0758  0.5235
  152SAPE  H19R16866   2.713   4.618   8.273 -0.7064  2.7954  0.4691
  152SAPE  H19S16867   2.682   4.611   8.095 -0.7306  3.2384  0.3294
  152SAPE  C22016868   2.848   4.742   8.171 -0.1018 -0.2482  0.7245
  152SAPE  H20R16869   2.915   4.738   8.082 -2.2785 -3.6750 -1.0008
  152SAPE  H20S16870   2.908   4.745   8.264  2.3815  0.1598 -0.8072
  152SAPE  H20T16871   2.792   4.838   8.173 -0.1366 -0.2612  0.4833
  152SAPE   C3316872   3.151   3.610   6.874  0.3824 -0.4525  1.0560
  152SAPE   H3X16873   3.125   3.503   6.889  1.4845 -0.8835 -0.0257
  152SAPE   H3Y16874   3.071   3.686   6.859  1.9992  1.2611  0.8691
  152SAPE   C3416875   3.224   3.638   7.007 -0.6825  0.4668 -0.1102
  152SAPE   H4X16876   3.252   3.745   7.019  0.8858 -0.0340  1.0033
  152SAPE   H4Y16877   3.319   3.581   7.021 -1.6552 -0.7859  1.8133
  152SAPE   C3516878   3.143   3.604   7.131 -0.3897  0.5344  0.2425
  152SAPE   H5X16879   3.129   3.495   7.139  2.3679  0.1481  0.5068
  152SAPE   H5Y16880   3.040   3.646   7.124 -0.5183  0.1401 -0.3067
  152SAPE   C3616881   3.208   3.657   7.263  0.3635 -0.0598  0.0972
  152SAPE   H6X16882   3.190   3.767   7.269  1.6123  0.1476  0.3502
  152SAPE   H6Y16883   3.317   3.637   7.250  0.8886  3.0707 -1.4127
  152SAPE   C3716884   3.154   3.581   7.388 -0.9735 -0.5159 -0.3006
  152SAPE   H7X16885   3.204   3.482   7.378 -1.1205 -0.4415 -2.0649
  152SAPE   H7Y16886   3.045   3.569   7.373 -0.6476 -2.2180 -1.6319
  152SAPE   C3816887   3.203   3.653   7.515  0.1293 -0.0477 -0.5499
  152SAPE   H8X16888   3.175   3.761   7.514 -0.3247 -0.1663 -1.3393
  152SAPE   H8Y16889   3.314   3.649   7.506  0.3544  0.8036  1.3156
  152SAPE   C3916890   3.168   3.595   7.651  0.5600 -0.3764 -0.1750
  152SAPE   H9X16891   3.225   3.643   7.733 -0.3475 -0.3726  0.4781
  152SAPE   H9Y16892   3.205   3.490   7.656  1.9051  0.1375  1.8962
  152SAPE  C31016893   3.018   3.603   7.680  0.3326  0.0571 -0.4481
  152SAPE  H10X16894   2.958   3.558   7.598  0.6439  2.2990 -2.0097
  152SAPE  H10Y16895   2.985   3.709   7.682  0.4964  0.0967  0.5220
  152SAPE  C31116896   2.981   3.536   7.813  0.4377  0.2212 -0.7183
  152SAPE  H11X16897   3.056   3.548   7.893  0.8375 -1.9848 -0.6897
  152SAPE  H11Y16898   2.961   3.427   7.803  1.5713 -0.1208  0.4864
  152SAPE  C31216899   2.849   3.589   7.855 -0.0957  0.0708  0.3762
  152SAPE  H12X16900   2.778   3.557   7.776  2.1345 -0.8300 -1.3931
  152SAPE  H12Y16901   2.844   3.699   7.867  0.2922  0.4242 -2.1611
  152SAPE  C31316902   2.814   3.530   7.985  0.2859  0.2576  0.0646
  152SAPE  H13X16903   2.858   3.428   7.983  1.8250  0.8371  1.5634
  152SAPE  H13Y16904   2.705   3.518   7.998 -0.2217  1.8594 -2.1974
  152SAPE  C31416905   2.876   3.613   8.092  0.2410  0.0541  0.2042
  152SAPE  H14X16906   2.817   3.707   8.082 -1.2891 -1.1165 -3.0399
  152SAPE  H14Y16907   2.981   3.639   8.068 -0.2764 -0.4911 -3.0479
  152SAPE  C31516908   2.851   3.547   8.227  0.2480  1.2369  0.2459
  152SAPE  H15X16909   2.879   3.440   8.220 -1.6897  0.6001  1.2900
  152SAPE  H15Y16910   2.743   3.555   8.253  0.1621  2.2114 -0.3448
  152SAPE  C31616911   2.920   3.616   8.339  0.8359 -0.1595  0.0784
  152SAPE  H16X16912   2.905   3.567   8.438  1.9296 -1.4703 -0.3605
  152SAPE  H16Y16913   2.867   3.713   8.335  0.8460 -0.1831 -1.0495
  152SAPE  C31716914   3.077   3.640   8.331  0.3836  1.3107 -0.2587
  152SAPE  H17X16915   3.096   3.698   8.238  1.7520  0.0379 -0.8069
  152SAPE  H17Y16916   3.136   3.547   8.318  0.0968  1.3227 -1.7861
  152SAPE  C31816917   3.122   3.721   8.455  0.3158 -0.1098  0.4113
  152SAPE  H18X16918   3.232   3.736   8.444  0.0275  2.2891  0.3095
  152SAPE  H18Y16919   3.102   3.666   8.550 -3.6560  1.7380  0.8696
  152SAPE  H18Z16920   3.071   3.819   8.461  0.7927  0.1670 -0.0216
  153SAPE     N16921   3.813   0.367   6.363 -0.0683  0.3258  0.4273
  153SAPE   HN116922   3.805   0.470   6.355  2.8240  0.6027 -0.1684
  153SAPE   HN216923   3.900   0.337   6.315 -0.4527  2.4339 -1.7658
  153SAPE   HN316924   3.728   0.319   6.327 -1.2600  1.5986  1.4282
  153SAPE   C1216925   3.825   0.329   6.500 -0.1259  0.4952  0.0931
  153SAPE  H12A16926   3.778   0.229   6.507 -1.4085  1.1291  0.8657
  153SAPE  H12B16927   3.773   0.402   6.566 -0.4884  0.3129  0.0094
  153SAPE   C1116928   3.969   0.308   6.543 -0.5595 -0.4311 -0.2911
  153SAPE  H11A16929   3.973   0.274   6.648  0.5839  1.2862  0.2724
  153SAPE  H11B16930   4.024   0.404   6.538 -1.6915  0.6909  4.4022
  153SAPE     P16931   4.072   0.074   6.474  0.3675  0.0817 -0.1509
  153SAPE   O1316932   3.951   0.005   6.523 -0.1574 -0.3731  0.0012
  153SAPE   O1416933   4.129   0.005   6.362 -0.0677 -0.4328  0.0349
  153SAPE   O1216934   4.041   0.224   6.446  0.1547  0.8145 -0.0078
  153SAPE   O1116935   4.191   0.075   6.579  0.7698 -0.5839  0.9191
  153SAPE    C116936   4.168   0.055   6.718  0.1782  0.6744 -0.3578
  153SAPE    HA16937   4.222   0.130   6.778  1.9636 -2.1460  1.8299
  153SAPE    HB16938   4.059   0.066   6.736  0.1897  0.9708 -0.4645
  153SAPE    C216939   4.219  -0.091   6.749  1.1606  0.0859 -0.1368
  153SAPE    HS16940   4.148  -0.163   6.702 -1.1717 -0.3259  3.5864
  153SAPE   O2116941   4.224  -0.121   6.897  0.4141 -0.3726  0.4097
  153SAPE   C2116942   4.240  -0.248   6.931  0.0032  0.3980  0.4634
  153SAPE   O2216943   4.247  -0.339   6.848  0.0023 -0.4672  0.1171
  153SAPE   C2216944   4.249  -0.268   7.081  0.0441 -0.6376  0.0216
  153SAPE   H2R16945   4.294  -0.173   7.116 -0.4888 -0.7433  1.0291
  153SAPE   H2S16946   4.143  -0.264   7.114  0.3838 -0.0396  1.1077
  153SAPE    C316947   4.360  -0.111   6.691  0.2500  0.1413  0.1920
  153SAPE    HX16948   4.361  -0.082   6.583  2.6917  1.1730  0.4298
  153SAPE    HY16949   4.394  -0.216   6.672 -0.6140 -0.1246  0.0981
  153SAPE   O3116950   4.459  -0.038   6.763 -0.2655  0.0077  0.2518
  153SAPE   C3116951   4.582  -0.055   6.720 -0.5213  0.7550  0.9614
  153SAPE   O3216952   4.614  -0.138   6.635 -0.1969 -0.2653 -0.2188
  153SAPE   C3216953   4.673   0.037   6.793 -0.8364  0.5742 -0.2386
  153SAPE   H2X16954   4.642   0.031   6.899 -1.1614 -1.6787 -0.4145
  153SAPE   H2Y16955   4.654   0.143   6.763  0.2204  0.9814  0.4450
  153SAPE   C2316956   4.325  -0.398   7.131 -0.3859 -0.6735  0.1486
  153SAPE   H3R16957   4.426  -0.387   7.086 -1.2126  1.2779 -1.3647
  153SAPE   H3S16958   4.271  -0.489   7.096 -1.0563 -0.5606  0.8584
  153SAPE   C2416959   4.350  -0.380   7.279  0.1603 -0.0495 -0.2495
  153SAPE   H4R16960   4.406  -0.284   7.287  0.8373 -0.4363 -0.2354
  153SAPE   H4S16961   4.402  -0.471   7.317 -1.1666 -0.3717  0.8776
  153SAPE   C2516962   4.226  -0.368   7.364  0.2532 -0.2389 -0.5287
  153SAPE   H5R16963   4.134  -0.338   7.311 -0.5608 -1.4792  0.1257
  153SAPE   C2616964   4.214  -0.394   7.491  0.5921 -0.5241 -0.2245
  153SAPE   H6R16965   4.115  -0.375   7.535  1.1810  1.1308  0.4774
  153SAPE   C2716966   4.327  -0.447   7.582  0.1851 -0.3561  0.0538
  153SAPE   H7R16967   4.414  -0.476   7.519 -0.6215 -1.0772 -0.7531
  153SAPE   H7S16968   4.283  -0.533   7.636  1.0189 -0.2908  0.8553
  153SAPE   C2816969   4.393  -0.348   7.669 -0.5141 -0.8597 -0.2220
  153SAPE   H8R16970   4.431  -0.256   7.625 -1.2263 -0.1134  0.6756
  153SAPE   C2916971   4.421  -0.375   7.801 -0.3293 -0.1955  0.3356
  153SAPE   H9R16972   4.500  -0.305   7.832 -0.6875  0.7254 -0.7171
  153SAPE  C21016973   4.388  -0.495   7.884  0.8171  0.5446  0.3250
  153SAPE  H10R16974   4.474  -0.503   7.953  2.8293  2.9849 -1.7200
  153SAPE  H10S16975   4.373  -0.580   7.814  0.4158  0.8170  0.0793
  153SAPE  C21116976   4.274  -0.446   7.967  0.1749  0.2388 -1.1907
  153SAPE  H11R16977   4.272  -0.343   8.005 -2.0417  0.5659 -2.0135
  153SAPE  C21216978   4.177  -0.520   8.017 -0.2385  0.3435  0.2632
  153SAPE  H12R16979   4.112  -0.466   8.088  2.1284 -0.7278  3.4571
  153SAPE  C21316980   4.161  -0.672   7.996  0.3709 -0.3896 -0.6345
  153SAPE  H13R16981   4.254  -0.720   7.958  1.2918 -0.0165  1.0407
  153SAPE  H13S16982   4.090  -0.698   7.915 -0.2994 -1.2197  0.1889
  153SAPE  C21416983   4.104  -0.734   8.119 -0.7073 -0.4623  0.0212
  153SAPE  H14R16984   3.995  -0.748   8.128 -0.7444  0.6349  1.6778
  153SAPE  C21516985   4.176  -0.766   8.230  0.0466  0.1935  0.1712
  153SAPE  H15R16986   4.125  -0.798   8.322 -0.5429  3.2321  1.0223
  153SAPE  C21616987   4.327  -0.747   8.234 -0.3432  0.7126  0.2836
  153SAPE  H16R16988   4.364  -0.698   8.142  1.4459  1.3992  1.3088
  153SAPE  H16S16989   4.373  -0.848   8.236 -1.0303  0.3972  0.7084
  153SAPE  C21716990   4.373  -0.680   8.368  0.5588 -0.2219 -0.1939
  153SAPE  H17R16991   4.313  -0.729   8.447  0.7376  0.3803  0.3242
  153SAPE  H17S16992   4.330  -0.578   8.374  1.7288  0.4452 -2.0846
  153SAPE  C21816993   4.522  -0.688   8.393 -0.2409  0.2395 -0.1038
  153SAPE  H18R16994   4.543  -0.579   8.392 -1.6976  0.5442 -0.6686
  153SAPE  H18S16995   4.569  -0.727   8.301 -0.5445  1.5915 -0.8618
  153SAPE  C21916996   4.567  -0.758   8.518  0.5358 -0.5555 -0.5383
  153SAPE  H19R16997   4.514  -0.725   8.610 -0.2324 -1.1704 -0.7468
  153SAPE  H19S16998   4.672  -0.736   8.543  0.6978  0.0082 -1.6208
  153SAPE  C22016999   4.544  -0.911   8.496 -0.4314  0.4692  0.3422
  153SAPE  H20R17000   4.590  -0.982   8.569 -2.9872 -1.2443  0.4304
  153SAPE  H20S17001   4.572  -0.931   8.390 -2.0652  0.9802 -0.2108
  153SAPE  H20T17002   4.439  -0.948   8.495  0.4440 -2.2865 -1.4953
  153SAPE   C3317003   4.826   0.005   6.768 -0.0488  0.0768  0.0604
  153SAPE   H3X17004   4.843   0.024   6.660  0.7722 -2.7350 -0.3746
  153SAPE   H3Y17005   4.853  -0.102   6.779  1.0987  0.1552 -1.6796
  153SAPE   C3417006   4.922   0.091   6.854  0.0705 -0.0931  0.3077
  153SAPE   H4X17007   4.901   0.200   6.844 -0.5903 -0.3841 -2.4030
  153SAPE   H4Y17008   5.024   0.075   6.813 -0.0753  2.0024 -1.0225
  153SAPE   C3517009   4.914   0.046   7.000 -0.2368 -0.1357 -1.0934
  153SAPE   H5X17010   4.949  -0.058   7.014 -1.0779 -0.3280 -0.2481
  153SAPE   H5Y17011   4.809   0.061   7.035  0.5260  0.8916  0.9636
  153SAPE   C3617012   5.004   0.129   7.099  0.5239 -0.4896  0.5856
  153SAPE   H6X17013   4.984   0.237   7.088  0.7782 -0.4483  0.5112
  153SAPE   H6Y17014   5.106   0.116   7.056 -0.0906  1.1720 -1.5857
  153SAPE   C3717015   5.011   0.092   7.238 -0.8974  0.1104 -0.1704
  153SAPE   H7X17016   5.023  -0.018   7.240  0.0068  0.1003 -2.5477
  153SAPE   H7Y17017   4.921   0.120   7.298 -2.0572 -0.3451 -1.6490
  153SAPE   C3817018   5.138   0.152   7.308  0.4749 -0.3344  0.3664
  153SAPE   H8X17019   5.151   0.260   7.284  2.2762  0.0034  2.5036
  153SAPE   H8Y17020   5.224   0.107   7.253 -0.0938  0.2780 -1.0746
  153SAPE   C3917021   5.147   0.133   7.454 -0.3498  0.7484 -0.4730
  153SAPE   H9X17022   5.205   0.043   7.483 -3.2510 -0.8031  1.0410
  153SAPE   H9Y17023   5.043   0.118   7.492  0.0152  2.3103  1.2868
  153SAPE  C31017024   5.191   0.253   7.537  0.2076 -0.4473  0.2731
  153SAPE  H10X17025   5.129   0.340   7.507 -0.8783 -0.2397  2.7904
  153SAPE  H10Y17026   5.295   0.271   7.503  0.2212 -0.9225  0.0590
  153SAPE  C31117027   5.188   0.218   7.684  0.2165  0.3551 -0.2375
  153SAPE  H11X17028   5.248   0.125   7.691  1.2295  1.0747  1.0510
  153SAPE  H11Y17029   5.084   0.190   7.711  0.5289 -2.6971 -1.7489
  153SAPE  C31217030   5.248   0.318   7.785 -0.0732  0.3663  0.1717
  153SAPE  H12X17031   5.183   0.408   7.784 -0.8317 -0.1453 -1.7960
  153SAPE  H12Y17032   5.348   0.345   7.745 -0.6506 -0.3222 -1.8277
  153SAPE  C31317033   5.257   0.261   7.925 -0.6104  0.3066 -0.6478
  153SAPE  H13X17034   5.331   0.323   7.981  1.2129 -2.9661  0.8523
  153SAPE  H13Y17035   5.302   0.159   7.925 -0.8611  0.1850 -1.3800
  153SAPE  C31417036   5.133   0.260   8.011  0.1008 -0.1235  0.6001
  153SAPE  H14X17037   5.068   0.173   7.985  2.2517 -1.8476  0.6972
  153SAPE  H14Y17038   5.079   0.355   7.991  1.0901  0.2089 -0.5694
  153SAPE  C31517039   5.164   0.262   8.161  0.8832 -0.0042 -0.4249
  153SAPE  H15X17040   5.249   0.325   8.194  0.3923 -0.2979  1.4981
  153SAPE  H15Y17041   5.198   0.157   8.176 -0.4433 -0.7701 -2.2682
  153SAPE  C31617042   5.042   0.277   8.247  0.0447 -0.3004 -0.0813
  153SAPE  H16X17043   4.965   0.200   8.224  1.4881 -2.6950  2.4849
  153SAPE  H16Y17044   4.991   0.374   8.229 -0.5320 -1.1022 -3.4617
  153SAPE  C31717045   5.077   0.266   8.401  0.9350 -0.0044  1.2196
  153SAPE  H17X17046   5.166   0.329   8.419  1.3387 -0.8227  2.1985
  153SAPE  H17Y17047   5.111   0.162   8.422  0.3196 -0.8100 -1.4041
  153SAPE  C31817048   4.965   0.307   8.494 -0.3648 -0.4795 -0.4281
  153SAPE  H18X17049   4.992   0.315   8.601  0.0532 -0.2805 -0.5482
  153SAPE  H18Y17050   4.876   0.240   8.487  0.0901 -1.0447 -0.8439
  153SAPE  H18Z17051   4.934   0.410   8.465 -1.1231 -0.3569  0.7374
  154SAPE     N17052   5.577   1.193   6.047 -0.6449  0.4339 -0.0779
  154SAPE   HN117053   5.600   1.294   6.049 -0.7489  0.5036  3.0651
  154SAPE   HN217054   5.634   1.139   5.980 -1.6837 -1.4289  0.4455
  154SAPE   HN317055   5.475   1.177   6.033 -0.4403 -0.7694 -0.2984
  154SAPE   C1217056   5.608   1.156   6.193  0.2699 -0.5715 -0.1312
  154SAPE  H12A17057   5.586   1.247   6.253  2.0640 -0.3157  0.1866
  154SAPE  H12B17058   5.717   1.135   6.195  0.3949 -0.2778 -1.7852
  154SAPE   C1117059   5.524   1.034   6.235 -0.7630  0.4299 -0.0127
  154SAPE  H11A17060   5.414   1.048   6.226 -0.8314 -0.0417  0.0597
  154SAPE  H11B17061   5.538   1.014   6.343 -0.8320  0.1894 -0.0489
  154SAPE     P17062   5.664   0.819   6.183  0.1331 -0.1738  0.3698
  154SAPE   O1317063   5.679   0.709   6.083  0.5968  0.1214  0.0525
  154SAPE   O1417064   5.793   0.884   6.215 -0.0661  0.1408  0.0842
  154SAPE   O1217065   5.550   0.920   6.149 -0.3117 -0.7715 -0.4436
  154SAPE   O1117066   5.606   0.756   6.318  0.2690 -0.3491  0.5374
  154SAPE    C117067   5.464   0.724   6.339 -0.2864  0.4645  0.1833
  154SAPE    HA17068   5.397   0.811   6.322  0.3387  0.8476 -0.3843
  154SAPE    HB17069   5.440   0.649   6.261  0.6590 -1.0440  1.2874
  154SAPE    C217070   5.445   0.676   6.490  0.7193 -0.4500  0.0302
  154SAPE    HS17071   5.517   0.593   6.504  0.7877 -0.7206 -1.6772
  154SAPE   O2117072   5.305   0.645   6.525 -0.4268  0.3696 -0.3705
  154SAPE   C2117073   5.250   0.538   6.477  1.5134 -0.2508 -0.1463
  154SAPE   O2217074   5.295   0.468   6.390 -0.3294 -0.3214 -0.2434
  154SAPE   C2217075   5.116   0.507   6.554 -0.0117 -0.2924 -0.4482
  154SAPE   H2R17076   5.118   0.560   6.651  1.5937 -3.0720  1.1777
  154SAPE   H2S17077   5.041   0.542   6.480  1.6882  1.5646 -1.4156
  154SAPE    C317078   5.472   0.797   6.584  0.4128 -0.2924  0.2856
  154SAPE    HX17079   5.411   0.881   6.543  0.8880 -0.1641 -0.1807
  154SAPE    HY17080   5.581   0.809   6.567  0.3243 -1.9189 -1.7665
  154SAPE   O3117081   5.437   0.769   6.722 -0.0387  0.4492 -0.0639
  154SAPE   C3117082   5.323   0.812   6.776  0.2810 -0.2086 -0.1410
  154SAPE   O3217083   5.236   0.870   6.713 -0.1891 -0.1976  0.3352
  154SAPE   C3217084   5.324   0.766   6.916  0.3689 -0.4036 -0.6310
  154SAPE   H2X17085   5.413   0.816   6.960 -0.6367  0.7701  0.1560
  154SAPE   H2Y17086   5.333   0.656   6.927 -1.7299 -0.6818 -1.2251
  154SAPE   C2317087   5.093   0.355   6.563  0.4214 -0.2401  0.3033
  154SAPE   H3R17088   5.111   0.308   6.464  0.9827  1.7529 -0.5958
  154SAPE   H3S17089   4.985   0.338   6.581  0.4240 -1.6900 -0.8800
  154SAPE   C2417090   5.182   0.284   6.669 -0.5700  0.1530  0.1535
  154SAPE   H4R17091   5.291   0.284   6.647 -0.5765 -1.5570 -0.0040
  154SAPE   H4S17092   5.144   0.181   6.656 -0.3070  0.0572  0.1392
  154SAPE   C2517093   5.182   0.347   6.804  0.3329 -0.3808 -0.5190
  154SAPE   H5R17094   5.080   0.370   6.837  1.7491  2.2673  2.6313
  154SAPE   C2617095   5.282   0.362   6.894  0.0688  0.3211 -0.7574
  154SAPE   H6R17096   5.272   0.426   6.983  0.4954 -1.5792  0.7229
  154SAPE   C2717097   5.425   0.317   6.874 -0.6669  0.8191  0.1432
  154SAPE   H7R17098   5.439   0.227   6.811  1.0722 -0.0428  1.6751
  154SAPE   H7S17099   5.468   0.296   6.974  0.3995  0.5385 -0.3608
  154SAPE   C2817100   5.497   0.434   6.808  0.0331 -0.4300 -0.0985
  154SAPE   H8R17101   5.489   0.449   6.699 -0.0436  0.7135  0.0488
  154SAPE   C2917102   5.591   0.517   6.870  0.1852  0.7714  0.2399
  154SAPE   H9R17103   5.627   0.604   6.813 -0.9477  1.2173  0.1742
  154SAPE  C21017104   5.629   0.503   7.017 -0.6801 -0.1445 -0.0144
  154SAPE  H10R17105   5.675   0.402   7.023  3.1582  1.3514 -1.4202
  154SAPE  H10S17106   5.550   0.518   7.094 -0.4457  3.3783 -0.3130
  154SAPE  C21117107   5.736   0.593   7.059  0.1877  0.6426  0.0231
  154SAPE  H11R17108   5.807   0.618   6.979  2.3955 -3.9662  0.2433
  154SAPE  C21217109   5.757   0.649   7.183  1.1401  0.3299 -0.1598
  154SAPE  H12R17110   5.837   0.722   7.202  1.5171 -0.4462  1.4119
  154SAPE  C21317111   5.669   0.608   7.302 -0.4649 -0.0420 -0.1750
  154SAPE  H13R17112   5.562   0.585   7.285 -0.3144 -1.6525  0.8462
  154SAPE  H13S17113   5.673   0.696   7.370 -4.2545  0.6240 -0.6048
  154SAPE  C21417114   5.716   0.486   7.367 -0.6113 -0.0794 -0.7192
  154SAPE  H14R17115   5.757   0.413   7.295  0.2542  0.6881 -1.0369
  154SAPE  C21517116   5.719   0.463   7.497 -0.4272  0.7287 -0.6763
  154SAPE  H15R17117   5.731   0.366   7.546  0.2179  1.5278  0.7913
  154SAPE  C21617118   5.674   0.554   7.603 -0.2469  0.4439 -0.0708
  154SAPE  H16R17119   5.586   0.616   7.577 -0.4789  0.1244 -0.0523
  154SAPE  H16S17120   5.758   0.626   7.615 -0.1333  0.3938 -0.5312
  154SAPE  C21717121   5.658   0.489   7.743  0.2154 -0.3324  0.0698
  154SAPE  H17R17122   5.752   0.446   7.782  0.4412  0.2537  0.1697
  154SAPE  H17S17123   5.578   0.411   7.737 -1.3719  1.2667 -0.7010
  154SAPE  C21817124   5.626   0.599   7.842  0.1161 -0.7610  0.0161
  154SAPE  H18R17125   5.520   0.632   7.835 -0.1537 -1.9512 -2.3785
  154SAPE  H18S17126   5.687   0.690   7.823  1.4956 -1.8309 -0.8240
  154SAPE  C21917127   5.662   0.566   7.994 -0.0626  0.4632 -0.0934
  154SAPE  H19R17128   5.770   0.545   8.012  0.1455  0.3098 -1.4625
  154SAPE  H19S17129   5.600   0.483   8.032 -1.3059  1.2674 -0.3034
  154SAPE  C22017130   5.637   0.687   8.079  0.2297  0.2609  0.3387
  154SAPE  H20R17131   5.661   0.666   8.186 -2.1764  1.2115  1.1350
  154SAPE  H20S17132   5.529   0.713   8.080  0.1994  0.3447 -1.8759
  154SAPE  H20T17133   5.694   0.775   8.042  1.1260 -0.9303 -1.2078
  154SAPE   C3317134   5.192   0.799   7.000  0.3608 -0.3110 -0.2241
  154SAPE   H3X17135   5.117   0.719   6.983  0.9928 -1.3626  1.6580
  154SAPE   H3Y17136   5.155   0.898   6.966  3.3254  0.4710 -1.5761
  154SAPE   C3417137   5.223   0.811   7.152 -0.1000  0.8394  0.1983
  154SAPE   H4X17138   5.126   0.817   7.207  0.3709  0.8759  1.0506
  154SAPE   H4Y17139   5.288   0.900   7.169  0.8127  0.2318 -0.0820
  154SAPE   C3517140   5.287   0.674   7.196  0.2566  0.0410  0.5029
  154SAPE   H5X17141   5.375   0.649   7.133 -1.1367  2.5910 -2.7551
  154SAPE   H5Y17142   5.209   0.597   7.178  0.2010  0.3503 -0.6590
  154SAPE   C3617143   5.323   0.679   7.345 -0.1680  0.1614  0.0368
  154SAPE   H6X17144   5.418   0.731   7.370  0.5885 -0.5618 -1.1945
  154SAPE   H6Y17145   5.347   0.577   7.385  3.0617 -0.3046 -2.6909
  154SAPE   C3717146   5.204   0.725   7.439  0.1700  0.0262  0.0204
  154SAPE   H7X17147   5.111   0.693   7.388 -0.0080  0.3709  0.1197
  154SAPE   H7Y17148   5.200   0.836   7.434 -0.1715  0.0316  0.3399
  154SAPE   C3817149   5.217   0.689   7.582 -0.0803  0.3849 -0.3484
  154SAPE   H8X17150   5.313   0.718   7.630 -0.0250 -2.1619  1.2813
  154SAPE   H8Y17151   5.228   0.579   7.590  2.3442  0.4880 -1.4638
  154SAPE   C3917152   5.102   0.756   7.659  0.1036 -0.7046  0.7517
  154SAPE   H9X17153   5.003   0.731   7.615 -0.8939 -0.7539  2.9094
  154SAPE   H9Y17154   5.118   0.866   7.653 -0.3178 -0.5630  1.9950
  154SAPE  C31017155   5.104   0.730   7.810 -0.4468  0.2152 -0.2386
  154SAPE  H10X17156   5.092   0.620   7.819  2.1916  0.0090  2.7245
  154SAPE  H10Y17157   5.024   0.792   7.855  0.5091  0.2116  1.5608
  154SAPE  C31117158   5.237   0.755   7.883  0.0656 -0.2318 -0.1707
  154SAPE  H11X17159   5.297   0.835   7.835  2.7731 -1.3355  1.1902
  154SAPE  H11Y17160   5.298   0.663   7.877  0.0379 -0.2048 -0.9669
  154SAPE  C31217161   5.215   0.800   8.029 -0.5162 -0.3892 -0.2352
  154SAPE  H12X17162   5.154   0.893   8.032 -1.2442 -0.6741 -2.8478
  154SAPE  H12Y17163   5.314   0.833   8.066  0.4605 -3.0679 -0.2626
  154SAPE  C31317164   5.166   0.683   8.114  0.3035 -0.2915  0.0980
  154SAPE  H13X17165   5.206   0.590   8.069 -1.0298 -1.4932  1.2777
  154SAPE  H13Y17166   5.057   0.674   8.095 -0.3786  1.7862  2.3818
  154SAPE  C31417167   5.191   0.685   8.262  0.5234 -0.3844  0.3464
  154SAPE  H14X17168   5.301   0.688   8.274  0.7573  0.8420 -1.6385
  154SAPE  H14Y17169   5.167   0.584   8.301  1.3362 -0.4766  0.6117
  154SAPE  C31517170   5.134   0.813   8.348  0.2051 -0.3020  0.8194
  154SAPE  H15X17171   5.026   0.819   8.324  0.6018 -1.0504 -1.3289
  154SAPE  H15Y17172   5.177   0.899   8.291 -0.2276  0.3390  1.4415
  154SAPE  C31617173   5.179   0.818   8.492 -0.0430  0.3995  0.2318
  154SAPE  H16X17174   5.151   0.917   8.535  0.5954  1.5532 -1.8212
  154SAPE  H16Y17175   5.291   0.822   8.494 -0.0421  1.0851 -0.4602
  154SAPE  C31717176   5.099   0.712   8.579 -0.5955  0.4963  0.0282
  154SAPE  H17X17177   5.106   0.614   8.526 -3.4507  0.7575 -1.0259
  154SAPE  H17Y17178   4.992   0.742   8.583 -0.8415 -0.4684  2.0433
  154SAPE  C31817179   5.155   0.699   8.720 -0.1913 -0.2948 -0.7702
  154SAPE  H18X17180   5.097   0.632   8.786 -2.8581  0.7469 -1.8911
  154SAPE  H18Y17181   5.160   0.800   8.766  0.5571 -0.9710  0.6985
  154SAPE  H18Z17182   5.256   0.653   8.725 -0.3242 -0.4593  0.9428
  155SAPE     N17183   2.045   5.559   6.418 -0.8747 -0.0989  0.0263
  155SAPE   HN117184   1.989   5.565   6.506  0.0449 -3.6096  1.0261
  155SAPE   HN217185   1.998   5.600   6.335 -1.3238  0.3390  0.4862
  155SAPE   HN317186   2.065   5.461   6.389  1.7608  0.6398 -0.8957
  155SAPE   C1217187   2.183   5.620   6.432  0.2234  0.3136 -0.6117
  155SAPE  H12A17188   2.219   5.608   6.537 -0.2593  0.4581 -0.4243
  155SAPE  H12B17189   2.175   5.731   6.434 -3.9275  0.2233 -2.3028
  155SAPE   C1117190   2.287   5.575   6.318 -0.8119 -0.0280  0.2026
  155SAPE  H11A17191   2.387   5.605   6.355 -0.2418 -0.8288 -0.6509
  155SAPE  H11B17192   2.266   5.626   6.222 -2.2617 -1.7750 -0.4659
  155SAPE     P17193   2.382   5.339   6.391  0.2347  0.5378  0.1621
  155SAPE   O1317194   2.373   5.203   6.339  0.0988 -0.4043 -0.3542
  155SAPE   O1417195   2.514   5.405   6.400  0.1526 -0.7443 -0.4482
  155SAPE   O1217196   2.292   5.431   6.299 -0.2037 -0.5721  0.5750
  155SAPE   O1117197   2.301   5.351   6.523  0.5348 -0.0946 -0.1788
  155SAPE    C117198   2.330   5.255   6.624  0.1092  0.3709 -0.5538
  155SAPE    HA17199   2.327   5.153   6.580  2.2011 -0.2998  0.6890
  155SAPE    HB17200   2.430   5.273   6.670  0.2074 -1.4598  0.0318
  155SAPE    C217201   2.225   5.247   6.736  0.1959 -0.2993 -0.0518
  155SAPE    HS17202   2.124   5.269   6.694  0.0491  0.3829  0.6384
  155SAPE   O2117203   2.262   5.353   6.832  0.1886  0.1896 -0.0080
  155SAPE   C2117204   2.216   5.471   6.816  0.2113  0.2606 -0.1164
  155SAPE   O2217205   2.128   5.511   6.741  0.3094  0.1876  0.4056
  155SAPE   C2217206   2.288   5.558   6.925 -0.1799  0.3733  0.1906
  155SAPE   H2R17207   2.391   5.568   6.883 -0.7443 -1.3325 -1.7538
  155SAPE   H2S17208   2.250   5.662   6.919 -0.7673  0.2613  1.6246
  155SAPE    C317209   2.219   5.105   6.809 -0.0810  0.7553 -0.2698
  155SAPE    HX17210   2.310   5.087   6.870 -0.4970  0.0152  0.1564
  155SAPE    HY17211   2.210   5.025   6.732 -1.6655  0.6894 -0.0442
  155SAPE   O3117212   2.104   5.104   6.898  0.3151 -0.3205 -0.1748
  155SAPE   C3117213   2.076   4.994   6.961  0.0516  0.3027 -0.6979
  155SAPE   O3217214   2.129   4.884   6.952  0.0213 -0.5994  0.5158
  155SAPE   C3217215   1.962   5.030   7.063 -0.3370  0.5590 -0.3292
  155SAPE   H2X17216   1.872   5.042   7.000  0.0083  1.0145 -0.7384
  155SAPE   H2Y17217   1.999   5.126   7.105  1.9204 -0.2092 -0.4128
  155SAPE   C2317218   2.277   5.505   7.071  0.4673  0.1832 -0.2890
  155SAPE   H3R17219   2.338   5.414   7.091 -1.1779 -0.5411  1.7783
  155SAPE   H3S17220   2.172   5.483   7.100  0.7900  0.9487  1.6926
  155SAPE   C2417221   2.326   5.622   7.164 -0.0810 -0.2171  0.4840
  155SAPE   H4R17222   2.272   5.716   7.141 -1.7462 -0.9705  1.1520
  155SAPE   H4S17223   2.434   5.644   7.147  0.2337 -2.2272 -0.4357
  155SAPE   C2517224   2.311   5.585   7.306 -0.7139  0.5597 -0.8298
  155SAPE   H5R17225   2.340   5.480   7.318 -2.0273  0.1152 -1.4159
  155SAPE   C2617226   2.268   5.661   7.408  0.6739 -0.1536  0.1622
  155SAPE   H6R17227   2.248   5.611   7.504  0.8672  0.6254  0.6182
  155SAPE   C2717228   2.228   5.808   7.420 -0.1987 -0.2928 -0.5317
  155SAPE   H7R17229   2.117   5.804   7.431 -0.1995 -1.2792 -0.8472
  155SAPE   H7S17230   2.244   5.868   7.328 -3.1650  0.5842 -0.5983
  155SAPE   C2817231   2.281   5.878   7.534  0.6452  1.0745 -0.4811
  155SAPE   H8R17232   2.371   5.939   7.515  0.6722  1.1021 -0.2648
  155SAPE   C2917233   2.258   5.861   7.668 -0.6082  0.1074  0.1259
  155SAPE   H9R17234   2.331   5.916   7.730 -0.0530  0.4222 -0.7915
  155SAPE  C21017235   2.154   5.769   7.727 -0.5898 -0.6498 -0.2189
  155SAPE  H10R17236   2.192   5.677   7.778 -3.8285 -3.1456 -1.8422
  155SAPE  H10S17237   2.097   5.726   7.642  1.4849 -0.3978 -1.8143
  155SAPE  C21117238   2.068   5.843   7.829 -0.2751 -0.3815 -0.4002
  155SAPE  H11R17239   2.022   5.935   7.789 -0.7949 -1.9302 -3.6795
  155SAPE  C21217240   2.057   5.809   7.958  0.1845  0.0153 -0.1763
  155SAPE  H12R17241   1.988   5.871   8.018 -0.9210 -1.6470  0.3317
  155SAPE  C21317242   2.135   5.699   8.030  0.3265 -0.0617 -0.3671
  155SAPE  H13R17243   2.243   5.717   8.048  0.5317  0.5971 -2.0566
  155SAPE  H13S17244   2.131   5.610   7.964 -2.3067 -0.6264  0.4355
  155SAPE  C21417245   2.075   5.658   8.169  0.2558 -0.3499  0.5614
  155SAPE  H14R17246   1.979   5.607   8.158  0.9608 -1.8688  1.1179
  155SAPE  C21517247   2.116   5.685   8.293 -0.1295 -0.4382  0.1009
  155SAPE  H15R17248   2.062   5.627   8.369  1.1835 -0.4357  1.0834
  155SAPE  C21617249   2.245   5.748   8.337 -0.1284 -0.2991 -0.0621
  155SAPE  H16R17250   2.323   5.759   8.258 -0.3132  4.0082  0.1146
  155SAPE  H16S17251   2.302   5.689   8.412  0.1820 -1.1834 -0.9747
  155SAPE  C21717252   2.238   5.895   8.397  0.8501  0.1283 -0.0618
  155SAPE  H17R17253   2.177   5.898   8.490  1.2209  0.1884  0.1821
  155SAPE  H17S17254   2.186   5.970   8.334 -3.2447 -2.6957 -0.4627
  155SAPE  C21817255   2.388   5.936   8.416 -0.1110 -0.3319 -0.2242
  155SAPE  H18R17256   2.430   5.970   8.319  0.7050 -0.8092 -0.0388
  155SAPE  H18S17257   2.445   5.845   8.444 -1.9613 -0.9969  1.6125
  155SAPE  C21917258   2.395   6.054   8.510  0.3979  1.2515 -0.3624
  155SAPE  H19R17259   2.382   6.023   8.616 -0.1339  0.0659 -0.7586
  155SAPE  H19S17260   2.309   6.121   8.489 -0.7271  0.5201  1.6188
  155SAPE  C22017261   2.531   6.125   8.517  0.6060 -0.0030  0.5724
  155SAPE  H20R17262   2.518   6.216   8.580 -2.4338 -0.1756  0.3043
  155SAPE  H20S17263   2.567   6.160   8.418 -2.8011  2.1532 -0.0776
  155SAPE  H20T17264   2.608   6.062   8.567  1.7873  1.4842  0.7073
  155SAPE   C3317265   1.942   4.916   7.174  0.2949 -0.2127 -0.3778
  155SAPE   H3X17266   2.038   4.863   7.190  0.3799  0.1718  0.4263
  155SAPE   H3Y17267   1.862   4.851   7.132 -1.1638  2.0598 -1.2666
  155SAPE   C3417268   1.899   4.969   7.308  0.9728 -0.5959 -0.3502
  155SAPE   H4X17269   1.797   5.012   7.290  0.3878 -1.7031  0.2282
  155SAPE   H4Y17270   1.971   5.045   7.346 -0.3757  0.3819  0.3737
  155SAPE   C3517271   1.845   4.873   7.413 -0.7605 -0.4476 -0.2109
  155SAPE   H5X17272   1.921   4.809   7.464  1.4068  0.6955 -1.8243
  155SAPE   H5Y17273   1.774   4.807   7.359 -0.5763  0.2791 -1.3764
  155SAPE   C3617274   1.773   4.944   7.524  0.8120 -0.4739  0.4144
  155SAPE   H6X17275   1.691   4.999   7.472 -1.3193 -1.3998  2.6181
  155SAPE   H6Y17276   1.837   5.020   7.575 -1.5086  1.5711  0.4889
  155SAPE   C3717277   1.718   4.847   7.627 -0.5625 -0.4592 -0.2155
  155SAPE   H7X17278   1.712   4.743   7.587 -1.5537 -0.8425  0.8493
  155SAPE   H7Y17279   1.610   4.865   7.645 -0.9241 -2.0243 -0.6549
  155SAPE   C3817280   1.791   4.841   7.765 -0.1856 -0.4670  1.0482
  155SAPE   H8X17281   1.778   4.930   7.830  0.3793 -1.1322  2.1021
  155SAPE   H8Y17282   1.902   4.840   7.754 -0.1683  3.1057 -0.5149
  155SAPE   C3917283   1.746   4.718   7.849  0.0751 -0.1477  0.0396
  155SAPE   H9X17284   1.750   4.626   7.787 -1.5017  1.3755 -2.5375
  155SAPE   H9Y17285   1.640   4.719   7.881 -0.6279 -4.8829 -1.4035
  155SAPE  C31017286   1.839   4.708   7.967  0.1075  0.1486  0.0611
  155SAPE  H10X17287   1.834   4.793   8.038  0.8067  0.0242  0.2703
  155SAPE  H10Y17288   1.946   4.712   7.937  0.2786  1.9954  0.7619
  155SAPE  C31117289   1.832   4.582   8.063 -0.3240 -0.0919  0.0989
  155SAPE  H11X17290   1.838   4.502   7.986  1.2269  0.7799 -0.7241
  155SAPE  H11Y17291   1.738   4.588   8.122  0.2038  2.4054  0.8077
  155SAPE  C31217292   1.950   4.553   8.148  0.3045  0.1476 -0.3927
  155SAPE  H12X17293   2.043   4.524   8.093 -0.8251 -1.2169 -1.6717
  155SAPE  H12Y17294   1.928   4.466   8.214 -2.2250  0.6232 -0.5144
  155SAPE  C31317295   1.986   4.671   8.234  0.2396 -0.0072 -0.1454
  155SAPE  H13X17296   1.892   4.709   8.279  0.9105  1.9376 -0.2788
  155SAPE  H13Y17297   2.025   4.757   8.174  1.4390  0.9117  1.8505
  155SAPE  C31417298   2.099   4.646   8.342  0.4049 -0.4305  0.9455
  155SAPE  H14X17299   2.069   4.563   8.410 -0.7491 -1.3946 -0.6637
  155SAPE  H14Y17300   2.111   4.739   8.400  0.6313  0.2709 -0.1961
  155SAPE  C31517301   2.231   4.595   8.278 -0.2438 -0.4340 -0.2235
  155SAPE  H15X17302   2.215   4.493   8.238 -1.0087  0.6211 -2.8081
  155SAPE  H15Y17303   2.298   4.589   8.367 -0.4115 -0.6137 -0.1059
  155SAPE  C31617304   2.301   4.686   8.176  0.4371 -1.1864 -0.9477
  155SAPE  H16X17305   2.229   4.696   8.092 -1.1772 -2.3150  0.2247
  155SAPE  H16Y17306   2.394   4.632   8.149  0.4493 -1.0615 -1.1564
  155SAPE  C31717307   2.342   4.823   8.237 -0.3769 -0.3355  0.2889
  155SAPE  H17X17308   2.367   4.811   8.345  0.5916 -1.2103 -0.0071
  155SAPE  H17Y17309   2.261   4.898   8.233 -1.9172 -1.9604 -0.4012
  155SAPE  C31817310   2.458   4.883   8.157 -0.6031 -0.4129  0.2197
  155SAPE  H18X17311   2.517   4.791   8.137 -0.6648 -0.6171  0.9391
  155SAPE  H18Y17312   2.505   4.953   8.229 -0.7249 -1.6414  1.5633
  155SAPE  H18Z17313   2.423   4.928   8.062 -1.5910 -0.4952  0.5313
  156SAPE     N17314   0.928   3.306   6.044  0.3137  0.1678 -0.0737
  156SAPE   HN117315   0.985   3.232   6.090  0.2101 -0.0020 -0.2175
  156SAPE   HN217316   0.830   3.279   6.063  0.4705  0.4015  1.1305
  156SAPE   HN317317   0.950   3.310   5.942 -1.9286 -1.4895 -0.7000
  156SAPE   C1217318   0.957   3.434   6.112  0.8143  0.1743  0.2915
  156SAPE  H12A17319   0.913   3.517   6.053  2.0491 -0.1534 -1.1506
  156SAPE  H12B17320   1.067   3.448   6.122  0.7290  1.0073  0.1164
  156SAPE   C1117321   0.894   3.428   6.249  0.0990  1.1637  0.8256
  156SAPE  H11A17322   0.787   3.399   6.243  0.2272 -0.7716  4.6098
  156SAPE  H11B17323   0.892   3.525   6.305 -1.3433  2.3412 -1.1164
  156SAPE     P17324   1.083   3.356   6.414  0.0988 -0.3052 -0.5508
  156SAPE   O1317325   1.179   3.249   6.399  0.2336  0.8229  0.2708
  156SAPE   O1417326   1.144   3.485   6.384  0.0763 -0.7160  0.3999
  156SAPE   O1217327   0.961   3.325   6.328 -0.4711  0.1592  0.7081
  156SAPE   O1117328   1.022   3.366   6.561 -0.4385  0.2807  0.0255
  156SAPE    C117329   0.944   3.267   6.621 -0.3089  0.3964  0.0032
  156SAPE    HA17330   0.850   3.314   6.658  1.0486  2.1664  1.4206
  156SAPE    HB17331   0.918   3.186   6.550  1.4075  0.6452 -0.9573
  156SAPE    C217332   1.002   3.203   6.750  0.5216 -0.3259 -0.5021
  156SAPE    HS17333   0.918   3.136   6.776  0.3096 -0.3662 -1.2502
  156SAPE   O2117334   1.035   3.309   6.843  0.6589  0.0584  0.6597
  156SAPE   C2117335   0.989   3.283   6.961 -0.1573 -0.5939 -0.2140
  156SAPE   O2217336   0.917   3.190   6.997 -0.6685 -0.5335  0.0946
  156SAPE   C2217337   1.046   3.383   7.059 -0.1627 -0.5215  0.2965
  156SAPE   H2R17338   1.072   3.470   6.996  0.5842  1.1258  2.7416
  156SAPE   H2S17339   0.970   3.414   7.134 -1.3288 -1.1447 -0.5998
  156SAPE    C317340   1.124   3.104   6.734 -0.1175 -0.0596  0.2582
  156SAPE    HX17341   1.212   3.166   6.708 -1.0293  0.3197 -2.1540
  156SAPE    HY17342   1.102   3.037   6.648 -1.0722 -0.9532  1.1727
  156SAPE   O3117343   1.160   3.024   6.854  0.8102  0.7146 -0.4773
  156SAPE   C3117344   1.090   2.905   6.870  0.1243 -0.2446  0.0576
  156SAPE   O3217345   0.992   2.869   6.808 -0.0661 -0.0885  0.1779
  156SAPE   C3217346   1.154   2.816   6.984  0.6203 -0.9721 -0.1303
  156SAPE   H2X17347   1.262   2.840   6.984  0.5963 -0.6895 -2.3291
  156SAPE   H2Y17348   1.143   2.711   6.951  2.4843 -0.7460 -1.6181
  156SAPE   C2317349   1.184   3.347   7.125  0.0858 -0.2927  0.3184
  156SAPE   H3R17350   1.250   3.435   7.111 -0.7006  0.1759 -0.5238
  156SAPE   H3S17351   1.242   3.266   7.075  1.7294  1.2388 -0.3310
  156SAPE   C2417352   1.180   3.328   7.280  0.1619 -0.3606  0.3812
  156SAPE   H4R17353   1.155   3.426   7.326 -0.0606 -0.5310  0.6260
  156SAPE   H4S17354   1.280   3.316   7.327 -0.7442  1.4045  3.0086
  156SAPE   C2517355   1.080   3.225   7.336 -0.4195  0.3216  0.4230
  156SAPE   H5R17356   1.015   3.176   7.261 -0.6861 -1.3047  1.6523
  156SAPE   C2617357   1.065   3.178   7.463 -0.1674  0.8255  0.8740
  156SAPE   H6R17358   0.984   3.107   7.485  0.8465 -0.1425  1.6160
  156SAPE   C2717359   1.153   3.222   7.573  0.2361 -0.2324 -0.4161
  156SAPE   H7R17360   1.157   3.332   7.559  2.4162 -0.0407  1.1982
  156SAPE   H7S17361   1.249   3.165   7.578  1.1139  1.2788  2.7930
  156SAPE   C2817362   1.084   3.178   7.704 -0.5866  0.0861  0.2655
  156SAPE   H8R17363   1.066   3.070   7.705  2.7070 -0.5968 -1.1584
  156SAPE   C2917364   1.068   3.249   7.823  0.3553 -0.0572 -0.1802
  156SAPE   H9R17365   1.031   3.195   7.912  1.9689 -0.5370  0.2383
  156SAPE  C21017366   1.102   3.395   7.850  0.3336 -0.1797 -0.4736
  156SAPE  H10R17367   1.115   3.444   7.751 -1.8387 -1.7940 -1.6342
  156SAPE  H10S17368   1.204   3.401   7.893 -0.2751  0.0225  0.9966
  156SAPE  C21117369   1.011   3.473   7.941  0.1091 -0.5973  0.6659
  156SAPE  H11R17370   0.947   3.544   7.888 -0.1679 -1.1161  0.2915
  156SAPE  C21217371   1.009   3.463   8.075 -1.1063 -0.6062  0.3236
  156SAPE  H12R17372   0.935   3.509   8.142 -1.0268  0.2176 -0.1465
  156SAPE  C21317373   1.091   3.372   8.161  0.1276 -0.0472 -0.3316
  156SAPE  H13R17374   1.146   3.434   8.235  0.8957 -0.0449 -0.8878
  156SAPE  H13S17375   1.177   3.339   8.099  0.6877  1.0996 -0.1905
  156SAPE  C21417376   1.013   3.260   8.230  0.4774 -0.7509 -0.4999
  156SAPE  H14R17377   0.939   3.200   8.175 -3.1301  1.6999  1.2205
  156SAPE  C21517378   1.038   3.226   8.363 -0.0815 -0.5033  0.7461
  156SAPE  H15R17379   0.960   3.165   8.411 -0.1666 -1.1033 -0.1267
  156SAPE  C21617380   1.140   3.287   8.458  0.0977  0.2892 -0.1234
  156SAPE  H16R17381   1.233   3.312   8.404 -0.3712  0.6112 -0.7933
  156SAPE  H16S17382   1.168   3.208   8.532  1.3598  1.0880  0.2807
  156SAPE  C21717383   1.076   3.402   8.531  1.2010 -0.2670 -0.6416
  156SAPE  H17R17384   0.978   3.365   8.566  0.7407 -0.5975 -2.2154
  156SAPE  H17S17385   1.051   3.483   8.459 -0.1099  0.3748  0.4756
  156SAPE  C21817386   1.152   3.464   8.645  0.1774 -0.2350  0.5936
  156SAPE  H18R17387   1.198   3.383   8.706 -1.8265 -0.9449  1.2422
  156SAPE  H18S17388   1.074   3.508   8.711  0.4758 -3.8058  3.6635
  156SAPE  C21917389   1.247   3.584   8.603 -0.2059  0.2604 -0.5102
  156SAPE  H19R17390   1.292   3.614   8.700 -1.0050  1.5149 -0.5119
  156SAPE  H19S17391   1.186   3.672   8.574 -2.9140 -0.4444  2.4279
  156SAPE  C22017392   1.362   3.556   8.508  0.4564 -0.5407  0.2620
  156SAPE  H20R17393   1.433   3.641   8.518  0.0606 -0.3232  1.2442
  156SAPE  H20S17394   1.316   3.537   8.408 -0.5677  0.4340  0.5331
  156SAPE  H20T17395   1.426   3.469   8.534  1.7624  0.2005 -0.3750
  156SAPE   C3317396   1.078   2.823   7.121  0.8385  0.3469 -0.1838
  156SAPE   H3X17397   0.981   2.772   7.107 -0.0591  1.9031  0.1096
  156SAPE   H3Y17398   1.053   2.930   7.140 -0.8581  0.1135 -0.9526
  156SAPE   C3417399   1.157   2.763   7.236 -0.0529  0.9023  0.2820
  156SAPE   H4X17400   1.247   2.821   7.268  1.1405 -0.5407 -0.3348
  156SAPE   H4Y17401   1.200   2.667   7.200  0.7133  0.1627  2.9375
  156SAPE   C3517402   1.081   2.739   7.369  0.1493 -0.2723  0.4622
  156SAPE   H5X17403   0.975   2.710   7.349 -0.4921  1.2140  1.5246
  156SAPE   H5Y17404   1.072   2.836   7.422 -0.0485  0.3447 -0.6659
  156SAPE   C3617405   1.153   2.632   7.454  0.0472  0.0833  0.2564
  156SAPE   H6X17406   1.165   2.539   7.395  0.1635  1.3600 -1.8432
  156SAPE   H6Y17407   1.083   2.625   7.540 -0.8994 -1.3289 -0.6045
  156SAPE   C3717408   1.291   2.677   7.497  0.1115 -0.5929 -0.9389
  156SAPE   H7X17409   1.302   2.788   7.493  0.2339 -0.3652  2.6700
  156SAPE   H7Y17410   1.371   2.640   7.429  0.7592 -0.7596 -0.0887
  156SAPE   C3817411   1.327   2.642   7.647 -0.1867 -0.0077  0.0921
  156SAPE   H8X17412   1.330   2.531   7.639 -1.2894  0.0245 -1.0191
  156SAPE   H8Y17413   1.234   2.668   7.701  1.2114  1.0531  2.1372
  156SAPE   C3917414   1.450   2.696   7.716  0.0206  0.0601  0.3125
  156SAPE   H9X17415   1.435   2.806   7.703 -0.1809 -0.0852 -0.7736
  156SAPE   H9Y17416   1.553   2.676   7.681  0.3225 -0.2281  1.3277
  156SAPE  C31017417   1.455   2.654   7.858  0.3608  0.0866 -0.5065
  156SAPE  H10X17418   1.488   2.548   7.853 -2.4461 -0.9517  0.6567
  156SAPE  H10Y17419   1.357   2.648   7.911 -1.0111 -1.1141 -2.9845
  156SAPE  C31117420   1.543   2.755   7.930  0.0157 -0.2485 -0.4509
  156SAPE  H11X17421   1.488   2.851   7.920  0.9923  0.3348 -0.3335
  156SAPE  H11Y17422   1.645   2.779   7.895  0.1867  1.6252  1.1395
  156SAPE  C31217423   1.546   2.719   8.080 -0.2276 -0.4802  0.5480
  156SAPE  H12X17424   1.570   2.613   8.104  0.7223  0.2481  3.1296
  156SAPE  H12Y17425   1.443   2.741   8.116 -0.6367  0.2689 -1.0005
  156SAPE  C31317426   1.638   2.804   8.164  0.2686 -0.4211 -0.0999
  156SAPE  H13X17427   1.614   2.911   8.146  0.1566 -0.0462  2.0063
  156SAPE  H13Y17428   1.744   2.785   8.138 -0.1770 -3.5686 -0.0083
  156SAPE  C31417429   1.638   2.786   8.314  0.4878 -0.6596 -0.4972
  156SAPE  H14X17430   1.555   2.843   8.361  0.0567 -1.5814 -0.0981
  156SAPE  H14Y17431   1.733   2.830   8.351 -0.2898  0.8754 -0.2595
  156SAPE  C31517432   1.654   2.640   8.357  0.1014  0.0776 -0.5897
  156SAPE  H15X17433   1.732   2.581   8.304 -1.6078 -4.2927  1.2980
  156SAPE  H15Y17434   1.567   2.584   8.318  2.0587 -1.5555 -2.9191
  156SAPE  C31617435   1.675   2.623   8.508  0.5232 -1.0443 -0.2098
  156SAPE  H16X17436   1.590   2.676   8.556  0.7866 -0.4860 -0.3599
  156SAPE  H16Y17437   1.763   2.683   8.539 -1.1023  0.6832  1.2766
  156SAPE  C31717438   1.679   2.479   8.552  0.4270  0.0363  0.1912
  156SAPE  H17X17439   1.747   2.419   8.488  2.0039  0.7647  1.1218
  156SAPE  H17Y17440   1.579   2.435   8.535  0.4005 -1.2037  3.0386
  156SAPE  C31817441   1.724   2.456   8.695 -0.5143  0.1276  0.2158
  156SAPE  H18X17442   1.834   2.470   8.699 -0.2559 -1.9063  1.5923
  156SAPE  H18Y17443   1.705   2.354   8.735 -0.2850 -0.0867 -0.2196
  156SAPE  H18Z17444   1.679   2.520   8.774 -1.4849 -3.0954  2.4821
  157SAPE     N17445   4.485   6.232   6.148  0.3407 -0.1752  0.3616
  157SAPE   HN117446   4.467   6.185   6.057 -1.3880  0.7979  0.1580
  157SAPE   HN217447   4.434   6.322   6.140  0.9510  0.0310 -2.2387
  157SAPE   HN317448   4.589   6.236   6.154  0.3394 -0.2987  0.4851
  157SAPE   C1217449   4.432   6.153   6.263 -0.4126 -0.1466  0.3825
  157SAPE  H12A17450   4.322   6.153   6.246 -0.1894 -1.4759 -1.3759
  157SAPE  H12B17451   4.473   6.196   6.357 -0.9977  1.9123 -0.2466
  157SAPE   C1117452   4.471   6.008   6.259  0.2478 -0.0678  0.0832
  157SAPE  H11A17453   4.427   5.950   6.343 -0.3484 -0.5882 -0.5742
  157SAPE  H11B17454   4.578   5.998   6.288  0.1182 -1.0245  0.2870
  157SAPE     P17455   4.360   5.813   6.118 -0.5560 -0.4450  0.1545
  157SAPE   O1317456   4.222   5.853   6.163 -0.1746  0.4393 -0.0976
  157SAPE   O1417457   4.384   5.761   5.978 -0.4288  0.3249 -0.1812
  157SAPE   O1217458   4.449   5.947   6.129 -0.2635  0.0234  0.1789
  157SAPE   O1117459   4.425   5.725   6.231  0.8554 -0.3167  0.3597
  157SAPE    C117460   4.546   5.668   6.201  0.5782 -0.5528  0.8763
  157SAPE    HA17461   4.530   5.588   6.126 -1.8157 -2.7296  3.4483
  157SAPE    HB17462   4.617   5.747   6.172 -0.2864 -0.4553 -1.1526
  157SAPE    C217463   4.608   5.602   6.326  0.2308 -0.3802  0.1751
  157SAPE    HS17464   4.697   5.544   6.293  1.3975  0.4762  1.6850
  157SAPE   O2117465   4.508   5.524   6.386  0.3140  0.2573 -0.0484
  157SAPE   C2117466   4.540   5.388   6.393  0.6610 -0.5471  0.7518
  157SAPE   O2217467   4.646   5.343   6.361  0.7118 -0.5709  0.6565
  157SAPE   C2217468   4.432   5.322   6.469  0.2183 -0.6210  0.5593
  157SAPE   H2R17469   4.337   5.359   6.426  0.6297  3.0204  2.3863
  157SAPE   H2S17470   4.439   5.212   6.465 -2.8163 -0.8529 -0.6080
  157SAPE    C317471   4.657   5.713   6.430 -0.3084 -0.0627 -0.0620
  157SAPE    HX17472   4.575   5.763   6.485 -0.2627 -0.5790  0.4903
  157SAPE    HY17473   4.719   5.773   6.361 -1.1290  0.0038 -0.7551
  157SAPE   O3117474   4.743   5.660   6.533 -0.2935 -0.1145  0.1652
  157SAPE   C3117475   4.767   5.739   6.633  0.3693  0.0435 -0.1502
  157SAPE   O3217476   4.741   5.855   6.651  0.5810  0.4643  0.3388
  157SAPE   C3217477   4.837   5.644   6.735 -0.1457  0.0946 -0.2653
  157SAPE   H2X17478   4.947   5.639   6.718  0.2119  0.1867  1.7887
  157SAPE   H2Y17479   4.808   5.537   6.724  0.4192 -0.0074 -0.8558
  157SAPE   C2317480   4.434   5.366   6.613  0.5612 -0.1446  0.5870
  157SAPE   H3R17481   4.368   5.291   6.662 -0.1544  0.1208  0.0539
  157SAPE   H3S17482   4.390   5.468   6.611  1.0154  0.1712 -3.5759
  157SAPE   C2417483   4.565   5.370   6.685  0.6575  0.8266  0.4578
  157SAPE   H4R17484   4.530   5.394   6.788  1.8468 -0.1006  1.1056
  157SAPE   H4S17485   4.626   5.447   6.633  0.9477 -1.4303 -2.9067
  157SAPE   C2517486   4.654   5.243   6.684 -0.3596 -0.5333 -0.0702
  157SAPE   H5R17487   4.673   5.193   6.588 -1.8418 -0.8539 -0.2320
  157SAPE   C2617488   4.682   5.175   6.792  0.1968  0.2647  0.2513
  157SAPE   H6R17489   4.754   5.095   6.771 -0.8510 -1.0454  1.4679
  157SAPE   C2717490   4.635   5.201   6.938 -0.1883  0.1379 -0.0180
  157SAPE   H7R17491   4.648   5.309   6.962 -1.3073  0.4771 -0.8708
  157SAPE   H7S17492   4.706   5.157   7.012  1.3220  1.6538 -0.4848
  157SAPE   C2817493   4.492   5.162   6.976 -0.6695  0.0430 -0.1684
  157SAPE   H8R17494   4.422   5.207   6.904 -0.0082 -0.5762 -1.2358
  157SAPE   C2917495   4.450   5.082   7.078  0.3890 -0.7574 -0.2916
  157SAPE   H9R17496   4.341   5.067   7.090  0.3272  0.3726  0.7358
  157SAPE  C21017497   4.521   5.017   7.182 -0.0742  0.3759  0.1985
  157SAPE  H10R17498   4.624   5.057   7.195 -0.2807 -0.0130  4.4291
  157SAPE  H10S17499   4.544   4.913   7.149  0.6377  0.2283  1.1350
  157SAPE  C21117500   4.455   5.011   7.325  0.0875  1.0291  0.4295
  157SAPE  H11R17501   4.345   5.001   7.322 -0.1099  2.8165  0.8456
  157SAPE  C21217502   4.518   4.984   7.436  0.6214  0.8840 -0.3230
  157SAPE  H12R17503   4.460   4.981   7.529  2.9593  0.5889  1.2048
  157SAPE  C21317504   4.670   4.970   7.449 -0.1793  0.0819  0.0026
  157SAPE  H13R17505   4.715   4.994   7.350 -1.6897  0.7829 -0.5384
  157SAPE  H13S17506   4.694   4.865   7.477  0.8976  0.0373 -1.0144
  157SAPE  C21417507   4.733   5.054   7.561  0.1461 -0.2095  0.3388
  157SAPE  H14R17508   4.755   5.157   7.532 -0.4241  0.1400  1.1098
  157SAPE  C21517509   4.773   5.021   7.681 -0.0272 -0.5016 -0.5181
  157SAPE  H15R17510   4.813   5.100   7.747  1.4484  0.5697 -2.5902
  157SAPE  C21617511   4.772   4.887   7.746 -0.7815 -0.0034 -0.1791
  157SAPE  H16R17512   4.722   4.808   7.685  2.0120 -0.2307 -2.3909
  157SAPE  H16S17513   4.715   4.890   7.841 -1.2822 -0.3645 -0.4642
  157SAPE  C21717514   4.915   4.836   7.778  0.5243  0.7059 -0.0211
  157SAPE  H17R17515   4.968   4.911   7.840  1.3933  1.1399 -1.2620
  157SAPE  H17S17516   4.983   4.840   7.691  0.8732 -0.8303  0.1521
  157SAPE  C21817517   4.924   4.705   7.844 -0.1545  0.1992 -0.1608
  157SAPE  H18R17518   4.909   4.624   7.770  0.2632 -0.1065  0.0855
  157SAPE  H18S17519   4.852   4.695   7.928 -2.8054  2.8016 -1.9087
  157SAPE  C21917520   5.062   4.669   7.901 -0.3239 -0.5435 -0.2442
  157SAPE  H19R17521   5.060   4.562   7.930 -1.3653 -0.5899 -0.4395
  157SAPE  H19S17522   5.067   4.725   7.998  3.8965  0.6105 -0.9271
  157SAPE  C22017523   5.196   4.694   7.829  0.4739 -0.4561  0.0476
  157SAPE  H20R17524   5.212   4.804   7.838 -1.7788  0.0776 -1.5832
  157SAPE  H20S17525   5.202   4.640   7.732  1.4874 -1.7095  0.7707
  157SAPE  H20T17526   5.279   4.645   7.885  2.0434  0.8410 -1.0609
  157SAPE   C3317527   4.789   5.693   6.880 -1.0008 -0.6063  0.1895
  157SAPE   H3X17528   4.791   5.804   6.887  3.0332 -0.5888  1.1970
  157SAPE   H3Y17529   4.867   5.662   6.953 -1.0501 -1.2873 -0.0377
  157SAPE   C3417530   4.651   5.647   6.922 -0.2362 -0.1738  0.2321
  157SAPE   H4X17531   4.651   5.537   6.910  1.9562 -0.1594 -0.3302
  157SAPE   H4Y17532   4.572   5.675   6.848 -1.8061  0.0853  1.9361
  157SAPE   C3517533   4.621   5.700   7.064 -0.5941 -0.3782 -0.4967
  157SAPE   H5X17534   4.510   5.699   7.073 -0.6101  1.2240 -0.2685
  157SAPE   H5Y17535   4.656   5.805   7.072 -1.4095 -0.0649 -0.9575
  157SAPE   C3617536   4.689   5.614   7.166 -0.5990  0.3902  0.6865
  157SAPE   H6X17537   4.799   5.617   7.145 -0.6822  0.5743  0.2758
  157SAPE   H6Y17538   4.656   5.508   7.161 -0.7603  0.4819 -0.4627
  157SAPE   C3717539   4.654   5.657   7.310 -0.2389  0.8451  0.3809
  157SAPE   H7X17540   4.544   5.670   7.321 -0.4000 -1.7603  3.2015
  157SAPE   H7Y17541   4.701   5.758   7.317  3.5788 -0.7324 -0.1162
  157SAPE   C3817542   4.708   5.557   7.404 -0.4969  0.5819 -0.5286
  157SAPE   H8X17543   4.817   5.543   7.392 -0.5709 -1.7292  0.8978
  157SAPE   H8Y17544   4.676   5.453   7.382 -0.2293 -0.1144  2.0417
  157SAPE   C3917545   4.690   5.593   7.551  0.1955 -0.8236  0.6977
  157SAPE   H9X17546   4.585   5.595   7.585  0.9066 -1.7653  3.1904
  157SAPE   H9Y17547   4.740   5.692   7.561 -0.4526 -0.3907 -0.2391
  157SAPE  C31017548   4.753   5.490   7.633 -0.4726 -0.7482 -0.4338
  157SAPE  H10X17549   4.861   5.506   7.612 -0.1299  1.2772  2.3320
  157SAPE  H10Y17550   4.725   5.383   7.622 -2.8120 -0.0381 -1.9722
  157SAPE  C31117551   4.733   5.520   7.784 -0.2178 -1.1083 -0.1562
  157SAPE  H11X17552   4.623   5.509   7.799 -0.6131  0.5621 -1.4704
  157SAPE  H11Y17553   4.759   5.625   7.806  0.9803 -0.8225 -2.5575
  157SAPE  C31217554   4.812   5.429   7.878  0.1047 -0.1833  0.4177
  157SAPE  H12X17555   4.918   5.460   7.870  0.1521 -0.4908 -0.2661
  157SAPE  H12Y17556   4.806   5.325   7.838 -0.5144 -1.1953  2.9644
  157SAPE  C31317557   4.750   5.442   8.018  0.3217  0.3462  0.5641
  157SAPE  H13X17558   4.644   5.411   8.031  1.0192 -2.1221  0.8717
  157SAPE  H13Y17559   4.761   5.547   8.054  3.1942 -0.7060  3.2712
  157SAPE  C31417560   4.823   5.360   8.122  0.7665  0.3914 -0.4731
  157SAPE  H14X17561   4.934   5.371   8.113  1.0678 -0.9469  1.0807
  157SAPE  H14Y17562   4.806   5.255   8.090  0.1857 -0.1996  1.6122
  157SAPE  C31517563   4.753   5.365   8.259 -0.1836  0.0298  0.3918
  157SAPE  H15X17564   4.801   5.289   8.324 -0.3518 -1.5495 -1.2325
  157SAPE  H15Y17565   4.647   5.332   8.255 -0.2289 -0.3797  3.1099
  157SAPE  C31617566   4.779   5.493   8.337 -0.2156  0.3657 -0.6322
  157SAPE  H16X17567   4.784   5.586   8.276 -0.2276  0.3542 -0.6514
  157SAPE  H16Y17568   4.880   5.489   8.383 -0.7249 -0.7937  0.4175
  157SAPE  C31717569   4.674   5.516   8.441 -0.0977 -0.5967  0.2047
  157SAPE  H17X17570   4.672   5.424   8.502  0.1625 -0.1343  0.9371
  157SAPE  H17Y17571   4.578   5.534   8.390  0.5582 -0.7721 -1.1200
  157SAPE  C31817572   4.705   5.629   8.534  0.2324 -0.2242  0.3394
  157SAPE  H18X17573   4.802   5.613   8.585  0.6403 -2.8625 -1.0815
  157SAPE  H18Y17574   4.622   5.635   8.608  0.3456 -1.1142  0.5496
  157SAPE  H18Z17575   4.722   5.720   8.472 -2.8989 -0.9266 -1.7970
  158SAPE     N17576   1.919   3.054   6.056  0.3085  0.3276  0.7067
  158SAPE   HN117577   1.825   3.010   6.067 -0.2355  0.9947 -0.8947
  158SAPE   HN217578   1.922   3.084   5.957  0.9259 -0.1728  0.5736
  158SAPE   HN317579   1.992   2.983   6.075  1.6792  1.4896 -0.0224
  158SAPE   C1217580   1.933   3.164   6.153  0.1613 -0.0182 -0.1008
  158SAPE  H12A17581   2.017   3.232   6.128  0.0892  0.6101  1.2452
  158SAPE  H12B17582   1.969   3.107   6.241  0.7405 -0.2880 -0.5058
  158SAPE   C1117583   1.801   3.234   6.181  0.8334  0.7943  0.2572
  158SAPE  H11A17584   1.772   3.279   6.084 -2.2841  0.7318  1.0471
  158SAPE  H11B17585   1.824   3.320   6.247 -1.0674  0.2402  1.7170
  158SAPE     P17586   1.679   3.121   6.376  0.1517 -0.4363 -0.3539
  158SAPE   O1317587   1.619   2.987   6.394  0.6783 -0.4160  0.0976
  158SAPE   O1417588   1.806   3.136   6.451  0.0919  0.4885 -0.0859
  158SAPE   O1217589   1.698   3.149   6.223 -0.3241 -0.2080 -0.3689
  158SAPE   O1117590   1.576   3.230   6.425  0.1504 -0.7403  0.1450
  158SAPE    C117591   1.616   3.365   6.460 -0.3158  0.4963 -0.0499
  158SAPE    HA17592   1.690   3.411   6.390  1.9735  0.8734  2.4751
  158SAPE    HB17593   1.528   3.432   6.465 -1.2963 -0.6694 -0.8883
  158SAPE    C217594   1.676   3.375   6.604 -0.1438  0.0086  0.6596
  158SAPE    HS17595   1.769   3.315   6.605 -0.3475 -0.3606 -0.7145
  158SAPE   O2117596   1.573   3.340   6.705 -0.1493  0.2193  0.2815
  158SAPE   C2117597   1.618   3.255   6.796 -0.5288  0.2775 -0.0111
  158SAPE   O2217598   1.727   3.201   6.801 -0.1946  0.5713  0.7989
  158SAPE   C2217599   1.512   3.224   6.893  0.0653  0.0159 -0.1217
  158SAPE   H2R17600   1.468   3.319   6.929 -0.8009  0.5374 -2.4046
  158SAPE   H2S17601   1.435   3.162   6.842  1.1768 -0.8841 -0.7627
  158SAPE    C317602   1.726   3.520   6.628  0.2993 -0.2370 -0.4569
  158SAPE    HX17603   1.644   3.595   6.628  0.2292 -0.2433 -2.7786
  158SAPE    HY17604   1.792   3.561   6.549 -0.5396  0.1705 -0.9652
  158SAPE   O3117605   1.776   3.526   6.769  0.3149 -0.3956  0.2140
  158SAPE   C3117606   1.903   3.502   6.771  0.7681 -0.7320  0.3333
  158SAPE   O3217607   1.971   3.466   6.676  0.0815  0.0687 -0.6478
  158SAPE   C3217608   1.955   3.518   6.918 -0.3449  0.2415  0.3232
  158SAPE   H2X17609   1.913   3.611   6.963 -0.7113 -0.1541  0.8061
  158SAPE   H2Y17610   2.065   3.516   6.930 -0.6028 -0.4668  3.1451
  158SAPE   C2317611   1.561   3.127   6.994  0.1033 -0.2067 -0.5641
  158SAPE   H3R17612   1.637   3.177   7.057 -2.5730  1.5414  1.5289
  158SAPE   H3S17613   1.591   3.031   6.947 -0.0277  0.0939 -1.2758
  158SAPE   C2417614   1.461   3.080   7.102  0.0859 -0.0049 -0.0433
  158SAPE   H4R17615   1.370   3.047   7.048  0.6616 -0.2313 -0.8914
  158SAPE   H4S17616   1.440   3.164   7.172  1.2946 -0.4405  0.8533
  158SAPE   C2517617   1.516   2.959   7.175 -0.7164 -0.1575  0.7407
  158SAPE   H5R17618   1.544   2.882   7.103  3.0664  1.5938  0.0935
  158SAPE   C2617619   1.544   2.930   7.304  0.4606 -0.2717 -0.4088
  158SAPE   H6R17620   1.581   2.830   7.329 -0.4810 -0.5542 -0.1331
  158SAPE   C2717621   1.517   3.022   7.423 -0.1333 -0.0118 -0.3081
  158SAPE   H7R17622   1.519   2.961   7.515 -0.4711  0.9917  0.3883
  158SAPE   H7S17623   1.413   3.062   7.416  0.4226  1.7159  0.7170
  158SAPE   C2817624   1.613   3.141   7.434  0.3312 -0.4717  0.0508
  158SAPE   H8R17625   1.676   3.159   7.345  0.1870  0.3638  0.1118
  158SAPE   C2917626   1.635   3.205   7.555  0.3186 -0.2034 -0.2365
  158SAPE   H9R17627   1.715   3.279   7.569  0.2803  0.1643 -1.7707
  158SAPE  C21017628   1.571   3.180   7.682  0.1203  0.3624  0.1774
  158SAPE  H10R17629   1.468   3.139   7.679  0.9825 -1.9016 -0.5562
  158SAPE  H10S17630   1.555   3.278   7.732 -1.7019  0.3253 -0.2761
  158SAPE  C21117631   1.647   3.071   7.763 -0.3785 -0.4775  0.1007
  158SAPE  H11R17632   1.673   2.978   7.711  0.2720 -0.3660  0.2275
  158SAPE  C21217633   1.683   3.087   7.893 -0.1429  0.0549  0.5982
  158SAPE  H12R17634   1.737   2.999   7.930 -0.9987 -1.4615 -1.5165
  158SAPE  C21317635   1.653   3.207   7.974 -0.1714  0.1411 -0.1592
  158SAPE  H13R17636   1.650   3.301   7.915  0.3792  0.1269 -0.2124
  158SAPE  H13S17637   1.734   3.231   8.045  0.2797 -0.5776 -0.4217
  158SAPE  C21417638   1.526   3.175   8.052 -0.3320 -0.3992 -0.2488
  158SAPE  H14R17639   1.449   3.125   7.992 -0.4868  1.9232 -2.1312
  158SAPE  C21517640   1.507   3.188   8.179  0.3678 -0.0110 -0.2410
  158SAPE  H15R17641   1.406   3.169   8.218  0.2481 -1.4247 -1.1585
  158SAPE  C21617642   1.605   3.247   8.279 -0.3750 -0.2848  0.2850
  158SAPE  H16R17643   1.558   3.334   8.329 -0.7528 -0.1896 -0.2254
  158SAPE  H16S17644   1.698   3.282   8.229  0.4734 -3.3912 -0.5518
  158SAPE  C21717645   1.639   3.157   8.401  0.5377 -0.7991 -0.0948
  158SAPE  H17R17646   1.710   3.217   8.462  1.7430 -1.3622 -0.8805
  158SAPE  H17S17647   1.691   3.063   8.373  0.2382 -0.3599 -2.3483
  158SAPE  C21817648   1.518   3.116   8.486  0.1930  0.0119 -0.4416
  158SAPE  H18R17649   1.480   3.023   8.440  1.8359 -1.6068  1.2883
  158SAPE  H18S17650   1.440   3.193   8.470  0.0249 -0.6620 -3.3493
  158SAPE  C21917651   1.549   3.084   8.634 -0.1206  0.1891 -0.7817
  158SAPE  H19R17652   1.453   3.049   8.680 -1.4529  2.2408 -1.8409
  158SAPE  H19S17653   1.567   3.183   8.682 -0.6467 -1.1681  2.5216
  158SAPE  C22017654   1.659   2.980   8.662 -0.5494 -0.4490  0.0594
  158SAPE  H20R17655   1.660   2.963   8.772 -0.0919  1.2742  0.3641
  158SAPE  H20S17656   1.755   3.024   8.628 -0.8686  1.4951  1.4492
  158SAPE  H20T17657   1.644   2.894   8.594  0.4272  0.5553 -1.4908
  158SAPE   C3317658   1.906   3.399   7.002  0.1613 -0.2695  0.2595
  158SAPE   H3X17659   1.939   3.307   6.950  0.8095  0.4282 -0.5691
  158SAPE   H3Y17660   1.795   3.393   7.012  0.2861 -0.8159  1.5411
  158SAPE   C3417661   1.956   3.390   7.149  0.4006  0.6789 -0.3190
  158SAPE   H4X17662   2.065   3.369   7.152  0.2397 -0.1024  2.7311
  158SAPE   H4Y17663   1.909   3.306   7.205  0.6674  1.0600  0.4783
  158SAPE   C3517664   1.937   3.529   7.223 -0.5262  0.3967  0.0399
  158SAPE   H5X17665   1.845   3.575   7.180 -1.4415 -0.4163  1.0811
  158SAPE   H5Y17666   2.030   3.585   7.204  1.4335 -2.6271  0.0342
  158SAPE   C3617667   1.922   3.493   7.365 -0.7363 -0.0420 -0.7367
  158SAPE   H6X17668   1.834   3.427   7.382 -1.5005  1.1618  0.1084
  158SAPE   H6Y17669   1.906   3.583   7.427 -1.0663 -0.2293 -0.5475
  158SAPE   C3717670   2.045   3.426   7.429 -0.6121  0.3671 -0.2221
  158SAPE   H7X17671   2.090   3.352   7.359  0.1986  1.0747 -0.4663
  158SAPE   H7Y17672   2.121   3.505   7.449  0.3907 -0.5350 -0.3794
  158SAPE   C3817673   2.031   3.360   7.565 -0.1228  0.3663  0.3311
  158SAPE   H8X17674   1.957   3.279   7.550  0.8757 -0.7593  1.2603
  158SAPE   H8Y17675   1.999   3.440   7.635 -0.3286 -1.1114  1.9848
  158SAPE   C3917676   2.165   3.300   7.627 -0.0280 -0.1481  0.6301
  158SAPE   H9X17677   2.249   3.374   7.632 -0.3650  0.2565  0.3889
  158SAPE   H9Y17678   2.199   3.217   7.561  0.6162  0.1535  0.5684
  158SAPE  C31017679   2.157   3.246   7.773 -0.6285 -0.6358  0.4229
  158SAPE  H10X17680   2.173   3.335   7.838 -0.1041  1.3052 -2.1811
  158SAPE  H10Y17681   2.238   3.171   7.784  1.2987  1.3688  0.5872
  158SAPE  C31117682   2.021   3.173   7.799  0.1351  1.0131  0.0954
  158SAPE  H11X17683   1.998   3.105   7.715  0.4448  1.3860 -0.2965
  158SAPE  H11Y17684   1.933   3.240   7.790 -2.0202 -1.7990 -1.4869
  158SAPE  C31217685   2.031   3.102   7.939 -0.2848  0.0865 -0.5353
  158SAPE  H12X17686   2.122   3.039   7.952  0.2836  0.9427 -0.2576
  158SAPE  H12Y17687   1.940   3.039   7.948  0.0617 -0.4374 -0.6986
  158SAPE  C31317688   2.028   3.204   8.055  0.0465 -0.0207  0.1560
  158SAPE  H13X17689   1.945   3.267   8.019  0.3640  1.3662  1.7451
  158SAPE  H13Y17690   2.115   3.273   8.056  1.6230 -1.9273  1.1977
  158SAPE  C31417691   1.999   3.141   8.190 -0.4745  0.0861  1.1023
  158SAPE  H14X17692   1.913   3.071   8.183 -1.2881  0.9673  1.8527
  158SAPE  H14Y17693   1.968   3.227   8.253  0.4199  0.2313  1.3557
  158SAPE  C31517694   2.112   3.053   8.250  0.2057  0.9455  0.0906
  158SAPE  H15X17695   2.214   3.097   8.251  0.0092  1.4004  1.4410
  158SAPE  H15Y17696   2.137   2.962   8.192 -1.3335  0.4711  0.1420
  158SAPE  C31617697   2.068   3.020   8.390  0.3820  0.3416  0.7048
  158SAPE  H16X17698   1.968   2.972   8.401  0.4042 -0.7367 -2.6883
  158SAPE  H16Y17699   2.064   3.116   8.445  1.1653  1.6451 -1.4264
  158SAPE  C31717700   2.154   2.931   8.474 -0.2516  0.1672  0.5339
  158SAPE  H17X17701   2.250   2.986   8.488  0.3030 -1.2699  2.9990
  158SAPE  H17Y17702   2.169   2.831   8.428 -0.6747 -0.2611  1.3224
  158SAPE  C31817703   2.103   2.905   8.614 -0.5932  0.4224  0.2356
  158SAPE  H18X17704   2.166   2.830   8.668 -0.8771 -0.7031 -0.9374
  158SAPE  H18Y17705   2.001   2.862   8.614 -0.5694  0.2686  2.1971
  158SAPE  H18Z17706   2.107   3.005   8.663  0.3786  0.0018  1.0586
  159SAPE     N17707   6.448   0.659   6.055 -0.1914  0.0565  0.1185
  159SAPE   HN117708   6.424   0.606   6.141 -0.6892 -1.8632 -1.1373
  159SAPE   HN217709   6.511   0.737   6.082  1.8419 -2.0224  1.8515
  159SAPE   HN317710   6.357   0.698   6.025  0.0011  1.5218  1.2826
  159SAPE   C1217711   6.504   0.570   5.943 -0.4560 -0.2345  0.0022
  159SAPE  H12A17712   6.498   0.641   5.858 -0.6858  0.4350  0.5732
  159SAPE  H12B17713   6.433   0.490   5.915 -0.8956 -0.1509  0.8299
  159SAPE   C1117714   6.654   0.526   5.968  0.5672 -0.1288 -1.5774
  159SAPE  H11A17715   6.703   0.620   6.001  3.3106 -2.3347  1.2449
  159SAPE  H11B17716   6.698   0.485   5.875 -0.5833 -0.0278 -2.1847
  159SAPE     P17717   6.785   0.416   6.179 -0.3161  0.1750 -0.2398
  159SAPE   O1317718   6.801   0.272   6.217 -0.2309 -0.5545  0.0560
  159SAPE   O1417719   6.900   0.477   6.111 -0.1653 -0.0047  0.2417
  159SAPE   O1217720   6.663   0.439   6.086 -0.1665  0.1757 -0.2799
  159SAPE   O1117721   6.755   0.498   6.312  0.3006  0.3447  0.9533
  159SAPE    C117722   6.635   0.491   6.387 -0.1474 -0.2187 -0.4303
  159SAPE    HA17723   6.556   0.557   6.342  0.9421  0.9388 -0.7093
  159SAPE    HB17724   6.604   0.385   6.400  0.6194 -0.4580 -0.5333
  159SAPE    C217725   6.656   0.536   6.534  0.3382  0.0372  0.6560
  159SAPE    HS17726   6.696   0.639   6.541  0.2328 -0.0186  3.1476
  159SAPE   O2117727   6.741   0.440   6.601  0.3119 -0.0009  0.7212
  159SAPE   C2117728   6.841   0.480   6.674 -0.4654  0.6246  0.5501
  159SAPE   O2217729   6.863   0.597   6.689  0.2378  0.3006 -0.8257
  159SAPE   C2217730   6.937   0.367   6.723 -0.3355 -0.3568 -0.1154
  159SAPE   H2R17731   6.891   0.268   6.742 -0.5120  0.0201  1.5428
  159SAPE   H2S17732   7.017   0.344   6.649 -0.6952 -2.4168  0.1018
  159SAPE    C317733   6.520   0.543   6.616  0.2803  1.3567 -0.1588
  159SAPE    HX17734   6.472   0.442   6.621  2.1485  0.2336 -2.4912
  159SAPE    HY17735   6.448   0.612   6.568 -0.7469  0.3994 -0.0542
  159SAPE   O3117736   6.539   0.595   6.747  0.5358  0.4866  0.8896
  159SAPE   C3117737   6.566   0.715   6.755  0.8379 -0.1884  0.0042
  159SAPE   O3217738   6.581   0.794   6.665 -0.0829 -0.5753 -0.7953
  159SAPE   C3217739   6.571   0.738   6.906  0.0225  0.4439  0.3536
  159SAPE   H2X17740   6.635   0.658   6.950  1.8280  0.9693 -1.2141
  159SAPE   H2Y17741   6.469   0.734   6.952  0.8237  0.0699  2.2178
  159SAPE   C2317742   7.007   0.414   6.850  0.3510 -0.0686  0.5389
  159SAPE   H3R17743   6.938   0.444   6.932  0.7225  0.7484  0.5599
  159SAPE   H3S17744   7.073   0.502   6.833 -0.0185 -0.0317 -0.7894
  159SAPE   C2417745   7.108   0.309   6.913 -0.3329 -0.1418  1.2538
  159SAPE   H4R17746   7.177   0.278   6.832 -1.2773 -0.1701  0.4378
  159SAPE   H4S17747   7.044   0.222   6.939 -0.0224 -0.4417  1.0192
  159SAPE   C2517748   7.189   0.371   7.027  0.6184  0.0497  0.1227
  159SAPE   H5R17749   7.260   0.451   6.999  1.7753 -0.6518  0.9932
  159SAPE   C2617750   7.190   0.343   7.153 -0.2847  0.0639 -1.3304
  159SAPE   H6R17751   7.264   0.392   7.218 -1.0715 -1.1457  0.5726
  159SAPE   C2717752   7.125   0.234   7.226  0.1256  0.2773 -0.3972
  159SAPE   H7R17753   7.196   0.163   7.273 -1.7103 -1.6689 -0.3771
  159SAPE   H7S17754   7.061   0.169   7.163 -0.2064 -1.9142  2.0040
  159SAPE   C2817755   7.030   0.285   7.327 -0.1237 -0.6919  0.5456
  159SAPE   H8R17756   6.938   0.331   7.289 -0.0509 -1.2806 -0.3584
  159SAPE   C2917757   7.037   0.292   7.463 -0.1533 -0.6420  0.1025
  159SAPE   H9R17758   6.958   0.341   7.523  1.2626  0.1912  1.3585
  159SAPE  C21017759   7.147   0.244   7.544  0.2158 -0.2733  0.5239
  159SAPE  H10R17760   7.214   0.329   7.571  0.5753  0.3350 -2.0297
  159SAPE  H10S17761   7.211   0.177   7.484 -1.5464 -1.2900 -0.2873
  159SAPE  C21117762   7.105   0.165   7.666  0.6779  0.5629 -0.1665
  159SAPE  H11R17763   7.125   0.057   7.654 -0.1663  0.1218  1.9787
  159SAPE  C21217764   7.054   0.210   7.781  0.0323 -0.8970 -0.6594
  159SAPE  H12R17765   7.042   0.144   7.868  0.7805  1.6970  1.5639
  159SAPE  C21317766   7.039   0.364   7.807  0.5098  0.0250  1.1823
  159SAPE  H13R17767   6.936   0.380   7.769  0.4459 -1.3109  0.7337
  159SAPE  H13S17768   7.106   0.418   7.737 -0.0936 -0.6321  0.0596
  159SAPE  C21417769   7.059   0.414   7.948  0.0291 -0.3089 -0.0420
  159SAPE  H14R17770   7.159   0.457   7.964  0.0266 -0.3523  0.0882
  159SAPE  C21517771   6.971   0.398   8.049  0.0552 -0.3357  0.0724
  159SAPE  H15R17772   6.999   0.427   8.152  1.0817  0.0511 -0.3075
  159SAPE  C21617773   6.834   0.339   8.043 -0.4860 -0.4216 -0.6586
  159SAPE  H16R17774   6.814   0.289   7.945  1.0106  0.3074 -1.3700
  159SAPE  H16S17775   6.757   0.415   8.064  0.4049  0.2380  0.2687
  159SAPE  C21717776   6.806   0.233   8.151 -0.5114  0.0019 -0.4112
  159SAPE  H17R17777   6.698   0.209   8.150 -0.2085 -2.0508  2.8141
  159SAPE  H17S17778   6.830   0.267   8.255  0.1811  0.0706 -0.5864
  159SAPE  C21817779   6.889   0.107   8.130 -0.1491 -0.1540 -0.0108
  159SAPE  H18R17780   6.992   0.133   8.162 -0.3286  1.3765 -0.5930
  159SAPE  H18S17781   6.886   0.080   8.022 -0.7929  0.1720 -0.0756
  159SAPE  C21917782   6.838  -0.007   8.211  0.0072  0.1292 -0.8996
  159SAPE  H19R17783   6.908  -0.092   8.198  2.8472  2.4179 -1.6047
  159SAPE  H19S17784   6.737  -0.040   8.180  0.3033 -3.7756  1.5255
  159SAPE  C22017785   6.823   0.007   8.367  0.7812  0.7475 -0.3486
  159SAPE  H20R17786   6.749   0.084   8.397 -0.5295 -0.7636  0.4206
  159SAPE  H20S17787   6.926   0.019   8.406  0.9070 -2.4066  0.5260
  159SAPE  H20T17788   6.790  -0.091   8.406 -0.1350  1.2229  0.1004
  159SAPE   C3317789   6.645   0.866   6.934 -0.4807 -0.1836 -0.6390
  159SAPE   H3X17790   6.581   0.949   6.897  0.5542  0.4836 -0.9612
  159SAPE   H3Y17791   6.747   0.871   6.892  0.3090 -0.4321  1.1278
  159SAPE   C3417792   6.647   0.899   7.086  0.3370  0.2981 -0.5854
  159SAPE   H4X17793   6.714   0.986   7.103  1.2879 -0.4990 -0.1502
  159SAPE   H4Y17794   6.691   0.813   7.141  0.1872 -0.5589 -1.7705
  159SAPE   C3517795   6.512   0.948   7.133 -0.6408 -0.1269  0.9077
  159SAPE   H5X17796   6.435   0.873   7.105 -0.0476 -0.0532 -1.0191
  159SAPE   H5Y17797   6.493   1.042   7.077  2.6063  1.0592  1.5713
  159SAPE   C3617798   6.511   0.978   7.285  0.9160  0.2492  1.0993
  159SAPE   H6X17799   6.453   1.071   7.305 -1.3128 -0.3107 -2.0266
  159SAPE   H6Y17800   6.615   0.990   7.322  0.9830 -2.1549  1.8591
  159SAPE   C3717801   6.464   0.862   7.377  0.0227  0.5580 -1.0013
  159SAPE   H7X17802   6.541   0.783   7.360  1.2932  1.7319 -0.8416
  159SAPE   H7Y17803   6.370   0.823   7.332  0.1711  1.2473 -1.9427
  159SAPE   C3817804   6.457   0.902   7.520  0.2742 -0.2181 -0.6121
  159SAPE   H8X17805   6.364   0.963   7.525  0.9458  0.8016 -0.5263
  159SAPE   H8Y17806   6.542   0.968   7.545 -0.7233  1.0514 -0.4912
  159SAPE   C3917807   6.452   0.789   7.621  0.5127  0.0149 -0.1574
  159SAPE   H9X17808   6.548   0.735   7.633  1.4485  1.8880  1.4301
  159SAPE   H9Y17809   6.392   0.710   7.572  1.5665 -1.3114  0.6222
  159SAPE  C31017810   6.385   0.817   7.755 -0.0998  0.4108  0.1425
  159SAPE  H10X17811   6.350   0.718   7.789  2.2670 -0.4795  0.1966
  159SAPE  H10Y17812   6.306   0.895   7.752 -1.0353 -0.5178  0.4662
  159SAPE  C31117813   6.487   0.887   7.851  0.9454  0.6507 -0.7394
  159SAPE  H11X17814   6.531   0.973   7.796  1.4401 -0.1353 -1.5838
  159SAPE  H11Y17815   6.567   0.814   7.872  0.0461 -0.2289 -0.2645
  159SAPE  C31217816   6.416   0.931   7.976 -0.3513 -0.3830 -0.0072
  159SAPE  H12X17817   6.340   0.854   8.002  1.3530 -2.3704 -0.5616
  159SAPE  H12Y17818   6.365   1.028   7.961  1.2720  0.1808 -2.4682
  159SAPE  C31317819   6.515   0.943   8.090  0.5071 -0.3404  0.6381
  159SAPE  H13X17820   6.596   1.011   8.055 -0.7342  0.6066 -0.4721
  159SAPE  H13Y17821   6.562   0.843   8.105 -2.1590 -1.6676  0.6876
  159SAPE  C31417822   6.443   0.993   8.210  0.0405  0.4098  0.3832
  159SAPE  H14X17823   6.345   0.945   8.230  0.6653  0.0126  2.7663
  159SAPE  H14Y17824   6.427   1.100   8.185  0.0184 -0.0777 -1.9378
  159SAPE  C31517825   6.534   0.977   8.343  0.5701 -0.7356  0.2777
  159SAPE  H15X17826   6.635   1.013   8.316 -0.3291  0.3648 -1.8291
  159SAPE  H15Y17827   6.535   0.869   8.369 -1.6230 -0.9094 -0.1453
  159SAPE  C31617828   6.463   1.057   8.460  0.1048 -0.3335  1.1144
  159SAPE  H16X17829   6.364   1.094   8.425 -1.4888 -2.2002  3.3503
  159SAPE  H16Y17830   6.519   1.151   8.482  1.2124  0.0600 -2.6738
  159SAPE  C31717831   6.443   0.974   8.583  0.0253 -0.4984  0.4562
  159SAPE  H17X17832   6.536   0.942   8.633  1.2348 -1.1713 -2.0458
  159SAPE  H17Y17833   6.385   0.886   8.549 -0.6891  0.4897 -1.0250
  159SAPE  C31817834   6.364   1.056   8.692 -0.9500 -0.0090  0.2380
  159SAPE  H18X17835   6.272   1.103   8.651 -0.9473 -0.4365 -0.2784
  159SAPE  H18Y17836   6.439   1.129   8.727 -0.4976  0.5547 -1.8094
  159SAPE  H18Z17837   6.323   0.996   8.776 -1.4973  1.8809  1.3636
  160SAPE     N17838   5.509   5.915   6.206 -0.4168  0.7984 -0.1891
  160SAPE   HN117839   5.469   5.841   6.146  1.7580 -0.9315  0.3949
  160SAPE   HN217840   5.433   5.976   6.243  0.9720  1.4749  1.6957
  160SAPE   HN317841   5.571   5.968   6.142  1.1642 -1.0026 -0.2071
  160SAPE   C1217842   5.587   5.867   6.327  0.1147 -0.5126 -0.2181
  160SAPE  H12A17843   5.516   5.809   6.389  0.0030 -1.7394 -1.4420
  160SAPE  H12B17844   5.628   5.959   6.376  0.2765 -0.7503  0.0946
  160SAPE   C1117845   5.709   5.778   6.301  0.0533 -1.1351  0.5068
  160SAPE  H11A17846   5.735   5.738   6.401 -2.9457 -1.8667  1.0903
  160SAPE  H11B17847   5.796   5.832   6.259  0.9265 -1.2408  2.0962
  160SAPE     P17848   5.779   5.574   6.159 -0.2733 -0.3837  0.0484
  160SAPE   O1317849   5.713   5.508   6.049 -0.1171  0.2004 -0.0387
  160SAPE   O1417850   5.908   5.647   6.129 -0.3465  0.0638  0.5402
  160SAPE   O1217851   5.673   5.669   6.217  0.1191 -0.9054  0.7471
  160SAPE   O1117852   5.804   5.472   6.271  0.7444  0.1285  0.0717
  160SAPE    C117853   5.912   5.487   6.367  0.3682  0.1143  0.1227
  160SAPE    HA17854   5.979   5.399   6.363 -3.3914 -3.0086 -0.1311
  160SAPE    HB17855   5.977   5.574   6.342  0.4125  0.4229  1.2512
  160SAPE    C217856   5.867   5.495   6.516  0.2317  0.2930 -0.4500
  160SAPE    HS17857   5.807   5.587   6.535 -3.9497 -1.5270 -3.3313
  160SAPE   O2117858   5.989   5.481   6.602  0.4576  0.0765  0.7307
  160SAPE   C2117859   6.054   5.589   6.623 -0.3208 -0.0466 -0.4113
  160SAPE   O2217860   6.025   5.702   6.584 -0.9597 -0.5872  0.0778
  160SAPE   C2217861   6.171   5.572   6.719 -0.1064  0.1984  0.6191
  160SAPE   H2R17862   6.150   5.490   6.792 -0.0853 -0.3460  0.0264
  160SAPE   H2S17863   6.261   5.553   6.656 -1.6206  1.3411 -2.0550
  160SAPE    C317864   5.755   5.389   6.557  0.2196 -0.6176  0.4192
  160SAPE    HX17865   5.782   5.288   6.518 -1.1776 -0.9358  0.2325
  160SAPE    HY17866   5.664   5.398   6.494  0.9119 -1.7606 -0.8273
  160SAPE   O3117867   5.732   5.390   6.702  0.0099 -0.6230  0.2521
  160SAPE   C3117868   5.660   5.494   6.741  0.2710  0.6656  0.0197
  160SAPE   O3217869   5.598   5.573   6.672  0.0901 -0.1756  0.4668
  160SAPE   C3217870   5.644   5.494   6.895 -0.5539 -0.0437 -0.4137
  160SAPE   H2X17871   5.721   5.430   6.942 -1.2053 -0.8709 -0.4584
  160SAPE   H2Y17872   5.547   5.445   6.921 -1.0155  2.4292  3.3343
  160SAPE   C2317873   6.216   5.697   6.795 -0.2407 -0.2414  0.9090
  160SAPE   H3R17874   6.125   5.752   6.830  0.5639  1.0065  1.1094
  160SAPE   H3S17875   6.284   5.741   6.719 -1.1491 -0.3791 -0.0089
  160SAPE   C2417876   6.294   5.667   6.921  0.8575 -0.8384 -1.1927
  160SAPE   H4R17877   6.386   5.606   6.908  0.3896 -2.4783  2.0729
  160SAPE   H4S17878   6.237   5.608   6.996  1.7540 -0.6222 -0.3057
  160SAPE   C2517879   6.342   5.798   6.985 -0.1864 -0.2271  0.5822
  160SAPE   H5R17880   6.390   5.861   6.909  0.2177 -2.6698 -1.3043
  160SAPE   C2617881   6.321   5.847   7.111 -0.2357  0.4819 -0.5575
  160SAPE   H6R17882   6.377   5.940   7.129 -0.7546  0.9626 -1.3574
  160SAPE   C2717883   6.253   5.783   7.233 -0.1488  0.4478 -0.3824
  160SAPE   H7R17884   6.235   5.673   7.227 -3.4157  0.7687  1.1118
  160SAPE   H7S17885   6.152   5.829   7.244 -0.1945  0.1779  0.3693
  160SAPE   C2817886   6.334   5.812   7.359 -0.3551  0.0427 -0.9531
  160SAPE   H8R17887   6.443   5.820   7.348 -0.5333  0.7430 -2.4975
  160SAPE   C2917888   6.283   5.860   7.475 -0.6980 -0.0067  0.1914
  160SAPE   H9R17889   6.356   5.869   7.557  1.4807 -0.9704 -1.5393
  160SAPE  C21017890   6.142   5.875   7.511  0.2751 -0.3554  0.3540
  160SAPE  H10R17891   6.095   5.792   7.453  0.6777 -0.2797 -0.0887
  160SAPE  H10S17892   6.110   5.968   7.460 -1.0585 -0.0972  1.6202
  160SAPE  C21117893   6.102   5.875   7.654 -0.3618  0.5556 -0.2758
  160SAPE  H11R17894   6.045   5.783   7.675  0.5187 -0.4101 -1.8506
  160SAPE  C21217895   6.132   5.967   7.752  0.1094 -0.0829  0.4550
  160SAPE  H12R17896   6.083   5.952   7.849  1.7107 -0.3841  1.2499
  160SAPE  C21317897   6.219   6.086   7.734 -0.3197 -0.3696 -0.3556
  160SAPE  H13R17898   6.202   6.126   7.631 -0.7272  1.9882  0.5627
  160SAPE  H13S17899   6.319   6.045   7.758 -0.7692 -0.6000  1.1969
  160SAPE  C21417900   6.179   6.197   7.831  0.6095  0.1260  0.8953
  160SAPE  H14R17901   6.087   6.251   7.804  0.6569  0.4067  1.2947
  160SAPE  C21517902   6.234   6.215   7.953  0.4233  1.1033  0.0802
  160SAPE  H15R17903   6.193   6.286   8.026 -1.2435 -0.1394  0.4307
  160SAPE  C21617904   6.355   6.141   8.015 -0.0331 -0.7022  0.3521
  160SAPE  H16R17905   6.393   6.053   7.958 -1.0963  0.6443 -2.6557
  160SAPE  H16S17906   6.329   6.109   8.118 -0.6471  1.4682  0.9159
  160SAPE  C21717907   6.474   6.232   8.045  0.5430  0.3988 -0.4030
  160SAPE  H17R17908   6.487   6.292   7.953 -0.9666 -0.7897 -1.4444
  160SAPE  H17S17909   6.558   6.165   8.073 -0.6076 -1.2405 -0.7093
  160SAPE  C21817910   6.455   6.323   8.167 -0.2210  0.2608  0.0566
  160SAPE  H18R17911   6.441   6.267   8.262  1.1740  1.7539  1.2007
  160SAPE  H18S17912   6.373   6.396   8.149 -0.1775  0.4138  0.4859
  160SAPE  C21917913   6.569   6.426   8.180 -0.8833 -0.4845  0.2138
  160SAPE  H19R17914   6.568   6.489   8.089  2.9576 -0.6602 -0.0958
  160SAPE  H19S17915   6.668   6.375   8.190 -1.3136 -1.1024  1.6195
  160SAPE  C22017916   6.543   6.531   8.293 -0.9451 -0.0618  0.2239
  160SAPE  H20R17917   6.452   6.593   8.280 -2.0374 -1.6778 -0.1576
  160SAPE  H20S17918   6.631   6.597   8.284 -1.4681  0.3797 -2.2862
  160SAPE  H20T17919   6.541   6.482   8.393 -0.2323 -1.7708 -0.5562
  160SAPE   C3317920   5.628   5.636   6.957 -0.4154  0.0400 -0.0208
  160SAPE   H3X17921   5.544   5.683   6.903 -0.2613 -2.9232 -3.1241
  160SAPE   H3Y17922   5.725   5.692   6.959  0.7578 -1.9149  0.9301
  160SAPE   C3417923   5.581   5.621   7.106 -0.0933 -0.9099  0.4725
  160SAPE   H4X17924   5.495   5.554   7.131 -1.3110  1.0410  1.7581
  160SAPE   H4Y17925   5.542   5.720   7.138 -2.4957 -1.2570 -1.0670
  160SAPE   C3517926   5.692   5.592   7.199 -0.3663  1.2385 -0.2557
  160SAPE   H5X17927   5.777   5.661   7.178  0.0639  1.1622  1.1185
  160SAPE   H5Y17928   5.733   5.489   7.193  0.4199  1.5500 -0.3951
  160SAPE   C3617929   5.653   5.614   7.348 -0.0198  0.5684 -0.2883
  160SAPE   H6X17930   5.594   5.707   7.363 -1.0472  0.0211 -0.8553
  160SAPE   H6Y17931   5.749   5.625   7.403 -0.3261  0.3014  0.3097
  160SAPE   C3717932   5.572   5.496   7.417 -1.0780 -0.1567  0.3764
  160SAPE   H7X17933   5.604   5.402   7.367  0.3211 -0.0922  1.0929
  160SAPE   H7Y17934   5.466   5.502   7.382 -1.0544  0.1889  0.3655
  160SAPE   C3817935   5.592   5.498   7.568  0.1498 -0.1125 -0.8250
  160SAPE   H8X17936   5.513   5.431   7.609  0.5788 -1.1082 -1.5826
  160SAPE   H8Y17937   5.567   5.598   7.610 -3.0496 -0.6846 -1.1045
  160SAPE   C3917938   5.727   5.460   7.614 -0.5564  0.1261 -0.4104
  160SAPE   H9X17939   5.730   5.479   7.723  0.1590  0.9181 -0.5553
  160SAPE   H9Y17940   5.805   5.526   7.571  0.9669 -1.3166  0.0463
  160SAPE  C31017941   5.755   5.311   7.591  0.1632  0.0893  0.3611
  160SAPE  H10X17942   5.865   5.309   7.600  0.2486  0.1523 -0.5433
  160SAPE  H10Y17943   5.734   5.272   7.489 -1.3014 -0.9059  1.0030
  160SAPE  C31117944   5.697   5.214   7.701 -0.4139 -0.3785  0.2964
  160SAPE  H11X17945   5.597   5.180   7.665 -0.0821 -1.0385 -0.0052
  160SAPE  H11Y17946   5.688   5.270   7.796  0.7212 -0.6488  0.5746
  160SAPE  C31217947   5.773   5.088   7.718  0.2029 -0.4475  0.7699
  160SAPE  H12X17948   5.874   5.115   7.757 -0.5757  0.7807  2.0611
  160SAPE  H12Y17949   5.779   5.052   7.613  1.8600 -0.7395  0.9406
  160SAPE  C31317950   5.699   4.982   7.796 -0.3361 -0.3069  0.4440
  160SAPE  H13X17951   5.724   4.884   7.749 -0.0729  0.0353 -0.1432
  160SAPE  H13Y17952   5.590   5.000   7.786 -0.4804 -1.4831 -0.3799
  160SAPE  C31417953   5.762   4.984   7.937  0.1031  0.0417  0.1452
  160SAPE  H14X17954   5.722   5.078   7.983 -1.3759 -0.6675  0.3587
  160SAPE  H14Y17955   5.873   4.984   7.939  0.1614 -1.5234  3.4440
  160SAPE  C31517956   5.709   4.867   8.026 -0.3582  0.1359 -0.4608
  160SAPE  H15X17957   5.601   4.848   8.010 -0.0953 -1.0967 -0.8242
  160SAPE  H15Y17958   5.719   4.899   8.132 -0.1222 -2.3125  0.3189
  160SAPE  C31617959   5.786   4.737   8.018 -0.8618 -0.7662  0.1569
  160SAPE  H16X17960   5.893   4.767   8.013 -0.7187 -1.3599 -0.4690
  160SAPE  H16Y17961   5.777   4.679   7.924 -3.6456 -4.5460  2.4596
  160SAPE  C31717962   5.759   4.648   8.139  0.2755  0.6403  0.4319
  160SAPE  H17X17963   5.654   4.614   8.122  1.2347 -2.9559  0.9793
  160SAPE  H17Y17964   5.772   4.704   8.235  1.4257  1.4589 -0.1841
  160SAPE  C31817965   5.849   4.526   8.146 -0.1258 -0.5792 -0.4125
  160SAPE  H18X17966   5.953   4.558   8.166  0.0097 -1.8245  1.0758
  160SAPE  H18Y17967   5.843   4.470   8.050 -0.1934  2.3516 -2.2275
  160SAPE  H18Z17968   5.822   4.457   8.229 -0.6945  1.1028  0.8754
  161SOPE     N17969   4.543   5.245  10.956  0.2143 -0.0899 -0.1233
  161SOPE   HN117970   4.559   5.298  11.044 -0.1176  1.0147 -0.7132
  161SOPE   HN217971   4.449   5.235  10.912 -0.3624 -1.2956  1.3002
  161SOPE   HN317972   4.581   5.149  10.970 -0.1153 -0.2690 -0.4382
  161SOPE   C1217973   4.633   5.305  10.847  0.2788  0.0216  0.3003
  161SOPE  H12A17974   4.659   5.410  10.872  0.1502 -0.0705  0.8437
  161SOPE  H12B17975   4.563   5.301  10.761 -2.3344 -1.6436  2.3213
  161SOPE   C1117976   4.751   5.213  10.818  0.5360 -0.8435  0.3310
  161SOPE  H11A17977   4.830   5.228  10.895  0.5706 -1.4979  0.4251
  161SOPE  H11B17978   4.800   5.247  10.724 -2.5421  1.0142 -0.7402
  161SOPE     P17979   4.797   4.966  10.752  0.1158 -0.2512  0.1401
  161SOPE   O1317980   4.713   4.852  10.719  0.7086  0.1297 -0.1526
  161SOPE   O1417981   4.925   4.949  10.823 -0.0262 -0.2475  0.0220
  161SOPE   O1217982   4.712   5.075  10.821  0.0768  0.3607  0.0981
  161SOPE   O1117983   4.823   5.031  10.610 -0.8059 -0.4662 -0.2755
  161SOPE    C117984   4.718   5.053  10.516  0.1442  0.4233  0.5254
  161SOPE    HA17985   4.736   5.153  10.469  1.8568  0.1760  0.5788
  161SOPE    HB17986   4.619   5.038  10.562  0.0580  0.3712  0.3262
  161SOPE    C217987   4.737   4.953  10.391 -0.0786  0.3030 -0.5699
  161SOPE    HS17988   4.721   4.849  10.427 -0.0904  0.2325 -0.7803
  161SOPE   O2117989   4.856   4.981  10.325 -0.2806 -0.0091  0.0131
  161SOPE   C2117990   4.908   4.878  10.261 -0.4179  0.8699 -0.7079
  161SOPE   O2217991   4.886   4.762  10.285  0.2885  0.2834  0.3949
  161SOPE   C2217992   5.010   4.920  10.159  0.1024  0.0616  0.0065
  161SOPE   H2R17993   5.104   4.868  10.187  0.8463  1.2081 -0.2696
  161SOPE   H2S17994   5.021   5.031  10.164  1.5632 -0.0769  0.5830
  161SOPE    C317995   4.618   4.966  10.291  0.2337 -1.2314 -0.0517
  161SOPE    HX17996   4.629   5.065  10.242 -0.3999 -2.1801 -2.2454
  161SOPE    HY17997   4.524   4.968  10.350 -1.2684  0.5827 -2.3614
  161SOPE   O3117998   4.628   4.876  10.178 -0.1247 -0.3674  0.0889
  161SOPE   C3117999   4.512   4.808  10.159  0.1642  0.1473  0.1385
  161SOPE   O3218000   4.431   4.782  10.246 -0.0892  0.4176 -0.1132
  161SOPE   C3218001   4.498   4.761  10.013 -0.6536  0.0442 -0.6677
  161SOPE   H2X18002   4.583   4.792   9.950 -0.2900 -1.0697 -0.7481
  161SOPE   H2Y18003   4.414   4.813   9.962 -0.9710  0.8855  0.6789
  161SOPE   C2318004   4.967   4.885  10.018 -0.6109  0.3639  1.0576
  161SOPE   H3R18005   4.868   4.927   9.990  0.0477  0.0799 -2.1116
  161SOPE   H3S18006   4.955   4.775  10.010 -1.9219  0.4924  1.1287
  161SOPE   C2418007   5.074   4.931   9.921  0.2589  0.7882  0.9190
  161SOPE   H4R18008   5.082   5.040   9.940  1.0523  1.1424 -1.1243
  161SOPE   H4S18009   5.175   4.891   9.945  0.6715  1.0006 -0.3868
  161SOPE   C2518010   5.034   4.914   9.774 -1.1774  0.1095 -0.0663
  161SOPE   H5R18011   5.059   4.810   9.743 -0.9041 -0.4802  1.9748
  161SOPE   H5S18012   4.923   4.920   9.769 -1.1998 -0.9490 -2.1380
  161SOPE   C2618013   5.100   5.017   9.681  0.9702 -0.2820  0.0053
  161SOPE   H6R18014   5.032   5.025   9.594  1.2456 -0.7378 -0.2576
  161SOPE   H6S18015   5.097   5.120   9.721 -2.4326  0.2074 -1.2427
  161SOPE   C2718016   5.234   4.984   9.633  0.0363 -0.0486 -0.7715
  161SOPE   H7R18017   5.293   4.960   9.724 -1.4855  1.4300  0.6956
  161SOPE   H7S18018   5.231   4.887   9.578 -0.7562 -0.9073  0.7058
  161SOPE   C2818019   5.317   5.085   9.548 -0.0802  0.1780  0.1039
  161SOPE   H8R18020   5.333   5.173   9.614  0.2705 -0.3361  0.7138
  161SOPE   H8S18021   5.412   5.029   9.536 -1.1072 -1.8532  0.9540
  161SOPE   C2918022   5.249   5.112   9.417  0.2562 -0.0019  0.6245
  161SOPE   H9118023   5.144   5.144   9.417 -0.7075 -2.4289 -3.3334
  161SOPE  C21018024   5.302   5.093   9.295  0.0772  0.2465  0.0246
  161SOPE  H10118025   5.243   5.122   9.207  0.4562  0.8819 -0.0237
  161SOPE  C21118026   5.441   5.052   9.267  0.1239  0.5835  0.2259
  161SOPE  H11R18027   5.427   4.973   9.190 -0.7159  0.7362  0.2211
  161SOPE  H11S18028   5.490   5.014   9.359  0.2594  1.0826  0.3639
  161SOPE  C21218029   5.526   5.152   9.197 -0.5536  0.0139 -0.2605
  161SOPE  H12R18030   5.623   5.108   9.164 -1.5451 -2.2305 -0.4045
  161SOPE  H12S18031   5.543   5.233   9.271 -0.7572 -0.6097  0.4824
  161SOPE  C21318032   5.455   5.224   9.079 -0.4519 -0.7169  0.0521
  161SOPE  H13R18033   5.377   5.296   9.111 -0.6829 -0.6014 -0.7452
  161SOPE  H13S18034   5.407   5.150   9.012  0.2442  0.0782 -1.3803
  161SOPE  C21418035   5.553   5.285   8.975  0.5305  0.4194  0.1045
  161SOPE  H14R18036   5.646   5.224   8.970 -0.3462 -0.9358 -0.2783
  161SOPE  H14S18037   5.580   5.383   9.019  0.7673  1.5528 -2.3730
  161SOPE  C21518038   5.506   5.310   8.832  0.5686  0.4700  0.2158
  161SOPE  H15R18039   5.561   5.387   8.773  0.0610  0.4626 -0.2718
  161SOPE  H15S18040   5.400   5.342   8.832  0.7321  1.1159  1.7616
  161SOPE  C21618041   5.510   5.182   8.742 -0.8742 -0.6677 -0.2307
  161SOPE  H16R18042   5.452   5.094   8.775 -2.1256  0.3396  0.2965
  161SOPE  H16S18043   5.615   5.144   8.750 -1.1100 -2.1462 -2.8462
  161SOPE  C21718044   5.485   5.196   8.590  0.5047 -0.5217  0.9549
  161SOPE  H17R18045   5.392   5.252   8.564  0.9995  0.0013  0.2905
  161SOPE  H17S18046   5.469   5.091   8.557 -0.6566  0.4196 -1.7945
  161SOPE  C21818047   5.601   5.265   8.513  0.0362 -0.8388 -0.6477
  161SOPE  H18R18048   5.597   5.371   8.546  1.6411 -1.5742  2.1845
  161SOPE  H18S18049   5.578   5.269   8.404 -1.6637  0.8828 -0.2754
  161SOPE  H18T18050   5.700   5.221   8.537  0.2433  0.0616  0.2000
  161SOPE   C3318051   4.482   4.609  10.008  0.0188 -0.4709 -0.1678
  161SOPE   H3X18052   4.407   4.582  10.086 -0.3321 -0.4356 -0.4942
  161SOPE   H3Y18053   4.577   4.570  10.051 -0.1888  0.0218  0.7829
  161SOPE   C3418054   4.467   4.556   9.868 -0.5003 -0.0873  0.6487
  161SOPE   H4X18055   4.485   4.447   9.862  0.4447  0.1305 -0.9264
  161SOPE   H4Y18056   4.531   4.605   9.791 -2.2305 -0.2623 -0.9765
  161SOPE   C3518057   4.329   4.584   9.818  0.5505 -0.0051  0.8610
  161SOPE   H5X18058   4.311   4.693   9.812  0.5163 -0.0964 -3.1530
  161SOPE   H5Y18059   4.250   4.543   9.885 -0.7162  2.0940  0.7220
  161SOPE   C3618060   4.300   4.524   9.676 -0.1548 -0.2613 -0.4189
  161SOPE   H6X18061   4.312   4.414   9.668  1.0198 -0.3028  1.3682
  161SOPE   H6Y18062   4.373   4.570   9.606  0.1660  0.8997  0.6306
  161SOPE   C3718063   4.163   4.575   9.612 -0.4572  0.8167  0.2277
  161SOPE   H7X18064   4.147   4.685   9.609 -1.7878  0.6244 -0.6559
  161SOPE   H7Y18065   4.076   4.538   9.671  1.4885 -1.6772  1.6734
  161SOPE   C3818066   4.148   4.509   9.473 -0.3294  0.2021 -0.2117
  161SOPE   H8X18067   4.041   4.516   9.443 -0.3062 -0.3927 -0.4514
  161SOPE   H8Y18068   4.169   4.400   9.470 -1.9099 -0.1133 -1.3139
  161SOPE   C3918069   4.232   4.582   9.372 -0.1710 -0.0697 -0.2696
  161SOPE   H9X18070   4.337   4.548   9.383  0.0221 -0.4849 -2.7820
  161SOPE   H9Y18071   4.225   4.692   9.391 -0.3506  0.0233 -0.8575
  161SOPE  C31018072   4.192   4.551   9.226 -0.7859 -0.8291 -0.5589
  161SOPE  H10X18073   4.098   4.607   9.206 -0.5417  0.3402  1.3237
  161SOPE  H10Y18074   4.172   4.442   9.221  1.8552 -1.5394  1.9191
  161SOPE  C31118075   4.291   4.600   9.119  0.4134 -0.0198  0.4101
  161SOPE  H11X18076   4.369   4.523   9.102  0.1321 -0.5437  1.4593
  161SOPE  H11Y18077   4.342   4.687   9.166 -2.4077  1.8107  0.3499
  161SOPE  C31218078   4.212   4.639   8.986  0.0187 -0.0996  0.0751
  161SOPE  H12X18079   4.152   4.732   9.000 -2.0322 -0.8128 -2.8859
  161SOPE  H12Y18080   4.134   4.561   8.968 -2.5248  2.3008 -0.0098
  161SOPE  C31318081   4.311   4.661   8.875 -0.3157 -0.2284  0.8515
  161SOPE  H13X18082   4.381   4.745   8.895 -0.0832 -0.1355 -0.2707
  161SOPE  H13Y18083   4.263   4.687   8.778  1.5553  1.1798  0.2460
  161SOPE  C31418084   4.400   4.531   8.845  0.6421  0.2907  0.0598
  161SOPE  H14X18085   4.337   4.442   8.863  0.1071  0.4011 -1.1329
  161SOPE  H14Y18086   4.480   4.532   8.922 -0.8678  0.0087  1.7116
  161SOPE  C31518087   4.430   4.534   8.698  0.1101  0.1345 -0.0218
  161SOPE  H15X18088   4.488   4.625   8.674 -1.2101  1.2242  0.7617
  161SOPE  H15Y18089   4.339   4.543   8.635  2.3493  1.4422 -3.3111
  161SOPE  C31618090   4.495   4.401   8.651 -0.7528 -0.5434  0.0695
  161SOPE  H16X18091   4.425   4.315   8.658 -1.6712 -0.0843 -2.5433
  161SOPE  H16Y18092   4.579   4.389   8.723 -1.2336 -0.5346  0.6507
  161SOPE  C31718093   4.563   4.393   8.517 -1.0182  0.2865  0.8631
  161SOPE  H17X18094   4.648   4.466   8.522  1.1967 -2.0913  0.2509
  161SOPE  H17Y18095   4.508   4.429   8.428 -0.1444 -2.3394 -0.8611
  161SOPE  C31818096   4.636   4.260   8.476 -0.0242  0.1964  0.2210
  161SOPE  H18X18097   4.563   4.182   8.448 -0.7828  1.2502 -0.8146
  161SOPE  H18Y18098   4.713   4.246   8.555  0.6411  0.7287 -0.3130
  161SOPE  H18Z18099   4.696   4.290   8.387 -0.0784  0.2993  0.2190
  162SOPE     N18100   3.990   0.758  11.285  0.5159 -0.5302  0.0595
  162SOPE   HN118101   3.923   0.767  11.206 -2.9489 -1.1384  2.7202
  162SOPE   HN218102   3.926   0.725  11.360 -0.8188 -0.4191 -0.9995
  162SOPE   HN318103   4.030   0.851  11.311 -0.5695 -0.5568  2.0286
  162SOPE   C1218104   4.090   0.649  11.258  0.6886  0.1307  0.1057
  162SOPE  H12A18105   4.030   0.558  11.284  0.3549  0.9403  2.4442
  162SOPE  H12B18106   4.177   0.665  11.324  0.5259 -1.5802  0.7917
  162SOPE   C1118107   4.144   0.645  11.114  0.1005  0.6767 -0.3442
  162SOPE  H11A18108   4.060   0.636  11.042  0.4227 -2.0161 -0.4842
  162SOPE  H11B18109   4.200   0.550  11.102 -1.0929  0.0746 -1.5275
  162SOPE     P18110   4.310   0.770  10.951  0.2902  0.1051 -0.4195
  162SOPE   O1318111   4.423   0.686  10.977  0.1529 -0.3371 -0.3303
  162SOPE   O1418112   4.336   0.912  10.914  0.3484  0.2069 -0.9660
  162SOPE   O1218113   4.226   0.761  11.090  0.6824  0.3442 -0.0865
  162SOPE   O1118114   4.215   0.708  10.835  0.3742  0.8948  0.6318
  162SOPE    C118115   4.096   0.776  10.796  0.6637 -0.3910  0.4363
  162SOPE    HA18116   4.102   0.887  10.792 -0.6113 -0.2908  0.8033
  162SOPE    HB18117   4.020   0.747  10.873 -0.5241 -0.7746 -0.8374
  162SOPE    C218118   4.029   0.716  10.669 -0.6782  0.8632 -0.3856
  162SOPE    HS18119   4.010   0.610  10.700 -0.9138  0.3936 -2.0323
  162SOPE   O2118120   4.119   0.724  10.556 -0.5865  0.1294  0.4878
  162SOPE   C2118121   4.149   0.612  10.487 -0.1605 -0.0945 -0.0584
  162SOPE   O2218122   4.098   0.503  10.507 -0.1631 -0.1436  0.1173
  162SOPE   C2218123   4.281   0.644  10.407  0.1605 -0.5023  1.1586
  162SOPE   H2R18124   4.368   0.638  10.476  1.3479  0.3819 -0.2054
  162SOPE   H2S18125   4.274   0.749  10.372  0.0138 -0.4273  1.4122
  162SOPE    C318126   3.885   0.772  10.643  0.4481 -0.2478 -0.2172
  162SOPE    HX18127   3.914   0.870  10.600 -1.1743 -0.1255 -1.1134
  162SOPE    HY18128   3.824   0.786  10.734 -1.7870  0.1729 -1.7058
  162SOPE   O3118129   3.811   0.698  10.545  0.5507  0.0088  0.2537
  162SOPE   C3118130   3.720   0.769  10.478  0.1349 -0.0409 -0.0294
  162SOPE   O3218131   3.686   0.880  10.511  0.3777 -0.1581  0.1097
  162SOPE   C3218132   3.683   0.689  10.356 -0.3152 -0.4585 -0.0954
  162SOPE   H2X18133   3.595   0.731  10.303 -0.4269  0.0077  0.4442
  162SOPE   H2Y18134   3.651   0.588  10.390  2.3955 -1.1225  0.7124
  162SOPE   C2318135   4.308   0.551  10.289  0.1376  0.5393 -0.9898
  162SOPE   H3R18136   4.270   0.449  10.307 -2.5559  1.3162 -1.8056
  162SOPE   H3S18137   4.418   0.547  10.272  0.3258 -0.3358  0.2941
  162SOPE   C2418138   4.242   0.592  10.153 -0.1544  0.4144  0.1396
  162SOPE   H4R18139   4.131   0.593  10.161 -0.1739  0.4175 -0.1268
  162SOPE   H4S18140   4.277   0.695  10.130 -0.2419  0.7952  1.5902
  162SOPE   C2518141   4.274   0.496  10.039 -0.2141 -0.2606  0.7036
  162SOPE   H5R18142   4.385   0.487  10.048 -0.1776 -3.4058 -1.2580
  162SOPE   H5S18143   4.230   0.395  10.055  1.0369 -1.0163 -0.4393
  162SOPE   C2618144   4.235   0.552   9.897 -0.6194  0.7419  0.3560
  162SOPE   H6R18145   4.124   0.557   9.892 -0.7823 -0.5348  1.8802
  162SOPE   H6S18146   4.286   0.650   9.888 -0.8186  0.7297 -1.0772
  162SOPE   C2718147   4.287   0.458   9.782 -0.2634 -0.5660 -0.2321
  162SOPE   H7R18148   4.397   0.471   9.780 -0.3291  1.0482  2.3011
  162SOPE   H7S18149   4.268   0.352   9.807 -0.0256 -0.8496 -1.2055
  162SOPE   C2818150   4.217   0.467   9.644  0.1393  0.0025 -0.8449
  162SOPE   H8R18151   4.257   0.382   9.586 -2.3740 -1.5558 -0.4103
  162SOPE   H8S18152   4.108   0.471   9.665  0.1787  0.2511 -0.6874
  162SOPE   C2918153   4.239   0.599   9.589 -0.4015 -1.3525 -0.1967
  162SOPE   H9118154   4.196   0.689   9.635 -0.2206 -1.9059  1.1266
  162SOPE  C21018155   4.333   0.622   9.494  0.1033 -0.1645 -0.0317
  162SOPE  H10118156   4.349   0.725   9.458 -1.2355 -0.3239 -1.1799
  162SOPE  C21118157   4.427   0.526   9.417  0.4292  0.0014  0.2795
  162SOPE  H11R18158   4.436   0.429   9.471  1.2808 -1.7290 -2.7445
  162SOPE  H11S18159   4.527   0.574   9.411  0.9963 -1.2279 -0.5945
  162SOPE  C21218160   4.377   0.489   9.271 -0.0794  0.5085  0.6512
  162SOPE  H12R18161   4.384   0.586   9.217  2.1365 -0.5915 -1.2424
  162SOPE  H12S18162   4.271   0.456   9.269  0.0746  0.0342 -0.6680
  162SOPE  C21318163   4.456   0.364   9.215 -0.1361 -0.3532  0.7646
  162SOPE  H13R18164   4.449   0.275   9.282  0.4906 -0.7782  0.2783
  162SOPE  H13S18165   4.563   0.390   9.203 -0.2302 -0.5962 -0.7755
  162SOPE  C21418166   4.401   0.319   9.073  0.2945 -0.2573  0.0639
  162SOPE  H14R18167   4.389   0.419   9.026 -1.0151 -1.3897 -2.1952
  162SOPE  H14S18168   4.300   0.272   9.075  0.2856 -0.2546 -0.2915
  162SOPE  C21518169   4.489   0.236   8.982 -0.6137 -0.2577 -0.2615
  162SOPE  H15R18170   4.509   0.130   9.010  3.7542  0.3371 -0.3635
  162SOPE  H15S18171   4.587   0.287   8.967 -1.0693  0.5441 -0.5491
  162SOPE  C21618172   4.436   0.222   8.834  0.0874 -0.2023  0.3372
  162SOPE  H16R18173   4.420   0.324   8.791  1.4498  0.5473  1.5193
  162SOPE  H16S18174   4.337   0.173   8.840 -0.9643  1.8246  0.5827
  162SOPE  C21718175   4.534   0.167   8.729 -0.2881  0.7417 -0.3995
  162SOPE  H17R18176   4.631   0.220   8.711 -0.1925  0.5609 -0.4223
  162SOPE  H17S18177   4.483   0.190   8.633 -0.0324 -1.5927 -1.1586
  162SOPE  C21818178   4.583   0.023   8.746 -0.1520 -0.1245  0.3660
  162SOPE  H18R18179   4.664  -0.003   8.674 -0.3542  2.7256 -1.0180
  162SOPE  H18S18180   4.495  -0.036   8.712 -1.2918  2.1266 -0.8014
  162SOPE  H18T18181   4.618   0.004   8.850 -0.4341 -0.1991  0.4488
  162SOPE   C3318182   3.804   0.672  10.262  0.1043  0.4399 -0.1359
  162SOPE   H3X18183   3.898   0.642  10.314 -1.3645 -1.1495  1.7486
  162SOPE   H3Y18184   3.822   0.769  10.209 -0.3456  0.1380 -0.8597
  162SOPE   C3418185   3.759   0.573  10.157 -0.4517 -0.4597  0.0722
  162SOPE   H4X18186   3.669   0.610  10.104 -2.2394 -0.1042  3.0886
  162SOPE   H4Y18187   3.733   0.477  10.207  0.5345  0.2965  2.1605
  162SOPE   C3518188   3.867   0.553  10.052  0.2023 -0.0125  0.5778
  162SOPE   H5X18189   3.932   0.474  10.095 -1.3597  0.1078  3.4078
  162SOPE   H5Y18190   3.939   0.636  10.033 -0.0805  0.2968  0.8464
  162SOPE   C3618191   3.815   0.487   9.920  0.1996 -1.0377  0.1136
  162SOPE   H6X18192   3.717   0.446   9.953  0.8279 -1.8524  1.0092
  162SOPE   H6Y18193   3.882   0.402   9.898  0.8650 -0.3017 -0.7508
  162SOPE   C3718194   3.805   0.589   9.805  0.3840  0.7961  0.3207
  162SOPE   H7X18195   3.898   0.650   9.803 -0.2291  1.7777 -2.5075
  162SOPE   H7Y18196   3.728   0.667   9.820  0.9222  1.2709  0.6877
  162SOPE   C3818197   3.792   0.532   9.668 -0.1316 -0.7001  0.1700
  162SOPE   H8X18198   3.689   0.490   9.663 -0.0965 -0.6363 -1.7916
  162SOPE   H8Y18199   3.859   0.445   9.648  0.4803 -0.4367  1.0102
  162SOPE   C3918200   3.795   0.634   9.546 -0.2495 -0.3523  0.6742
  162SOPE   H9X18201   3.861   0.720   9.570  2.9758 -1.8828 -2.0452
  162SOPE   H9Y18202   3.689   0.667   9.532 -0.2978 -0.6198  0.4009
  162SOPE  C31018203   3.848   0.570   9.416  0.3247 -0.0068  0.8075
  162SOPE  H10X18204   3.796   0.472   9.404 -0.1962  0.3962 -0.3582
  162SOPE  H10Y18205   3.954   0.544   9.438  0.2141 -0.4006  0.8834
  162SOPE  C31118206   3.846   0.667   9.295 -0.3679  0.1981  0.0642
  162SOPE  H11X18207   3.899   0.757   9.332 -0.3531  1.1610 -2.1892
  162SOPE  H11Y18208   3.747   0.706   9.262 -2.0097 -3.7811 -0.2954
  162SOPE  C31218209   3.893   0.600   9.170 -0.1701  0.3893 -0.1126
  162SOPE  H12X18210   3.833   0.508   9.151 -0.4309  0.8276 -1.4914
  162SOPE  H12Y18211   3.994   0.556   9.184 -0.7999 -0.3796  2.9346
  162SOPE  C31318212   3.894   0.690   9.054 -0.4389 -0.2051 -0.4396
  162SOPE  H13X18213   3.965   0.774   9.064  3.2199 -3.1397  0.2054
  162SOPE  H13Y18214   3.794   0.724   9.018  0.3818  1.7781 -0.9400
  162SOPE  C31418215   3.952   0.615   8.929  0.2683  0.0162 -0.1327
  162SOPE  H14X18216   3.901   0.658   8.840 -1.0891 -3.2941 -1.1022
  162SOPE  H14Y18217   3.925   0.508   8.940 -0.8214  0.2705 -0.2117
  162SOPE  C31518218   4.099   0.631   8.919 -0.9636  0.2024  0.0726
  162SOPE  H15X18219   4.144   0.584   9.010  2.3301  0.9661 -1.0178
  162SOPE  H15Y18220   4.133   0.737   8.916 -0.0874 -0.0918 -0.6948
  162SOPE  C31618221   4.167   0.547   8.806 -0.0360 -0.3047 -0.7192
  162SOPE  H16X18222   4.125   0.445   8.806 -2.5208  0.6559 -0.5441
  162SOPE  H16Y18223   4.277   0.538   8.815  0.2873  0.1286 -3.3666
  162SOPE  C31718224   4.148   0.608   8.673 -0.4717  0.0237  0.5328
  162SOPE  H17X18225   4.160   0.718   8.677  0.0152 -0.0410  4.1456
  162SOPE  H17Y18226   4.052   0.580   8.624  1.2273 -2.2871 -1.7538
  162SOPE  C31818227   4.258   0.559   8.580 -0.2258  0.1068 -0.3505
  162SOPE  H18X18228   4.360   0.585   8.616 -0.8593  1.3034  0.6726
  162SOPE  H18Y18229   4.246   0.589   8.474 -0.3342  0.7411 -0.1637
  162SOPE  H18Z18230   4.259   0.448   8.588 -0.7312  0.2360  3.1368
  163SOPE     N18231   0.970   0.045  11.179 -0.1132 -0.5300 -0.3729
  163SOPE   HN118232   0.926   0.012  11.091  0.3367 -0.3371 -0.6732
  163SOPE   HN218233   1.052   0.099  11.145  0.6937 -1.5917 -0.1699
  163SOPE   HN318234   0.996  -0.041  11.231  0.8071  0.2056  0.4230
  163SOPE   C1218235   0.877   0.128  11.262 -0.3097 -0.4485  0.8040
  163SOPE  H12A18236   0.934   0.160  11.352  0.4503  1.8162 -0.4286
  163SOPE  H12B18237   0.794   0.064  11.301  0.2868  0.1861  3.2939
  163SOPE   C1118238   0.830   0.248  11.173  0.6684  0.3794 -0.2723
  163SOPE  H11A18239   0.922   0.305  11.150  0.4304  2.8247  3.8561
  163SOPE  H11B18240   0.765   0.322  11.225  3.0518 -0.8450  5.1607
  163SOPE     P18241   0.618   0.184  11.029  0.0859  0.0625 -0.3509
  163SOPE   O1318242   0.571   0.327  11.024 -0.0476  0.4272  0.2589
  163SOPE   O1418243   0.557   0.094  11.130 -0.7860 -0.1787 -0.8287
  163SOPE   O1218244   0.771   0.182  11.054 -0.4957 -0.8334 -0.5394
  163SOPE   O1118245   0.602   0.123  10.881  0.0039 -0.6249 -0.2744
  163SOPE    C118246   0.697   0.145  10.767  0.4631  0.6563 -0.5325
  163SOPE    HA18247   0.802   0.129  10.799  0.4841  1.1647 -0.3359
  163SOPE    HB18248   0.697   0.247  10.725  0.8861 -0.2148 -2.7977
  163SOPE    C218249   0.671   0.045  10.656  0.1570 -0.6827  0.6699
  163SOPE    HS18250   0.677  -0.057  10.701 -0.1658 -0.0356  2.2612
  163SOPE   O2118251   0.772   0.062  10.554 -0.1939 -0.2574 -0.5136
  163SOPE   C2118252   0.778  -0.041  10.476  0.8349 -0.3231 -0.2234
  163SOPE   O2218253   0.704  -0.137  10.475 -0.3973  0.6304 -1.2788
  163SOPE   C2218254   0.896  -0.014  10.381  0.3399 -1.0486  0.1779
  163SOPE   H2R18255   0.982  -0.029  10.449 -0.2681 -2.2901  0.6970
  163SOPE   H2S18256   0.917   0.093  10.360 -0.9268 -0.7781  0.1696
  163SOPE    C318257   0.528   0.080  10.606 -0.1009  0.1649  0.4668
  163SOPE    HX18258   0.463   0.068  10.696 -0.7396  0.0913  0.0019
  163SOPE    HY18259   0.498   0.003  10.531  2.6726 -0.7196  0.1567
  163SOPE   O3118260   0.515   0.213  10.567 -0.3961 -0.1645 -0.4324
  163SOPE   C3118261   0.541   0.235  10.433  0.8036  0.3090 -0.2455
  163SOPE   O3218262   0.560   0.146  10.351 -0.4183 -0.2279 -0.0530
  163SOPE   C3218263   0.525   0.387  10.400 -0.2262 -0.5480  0.3033
  163SOPE   H2X18264   0.612   0.437  10.446  0.4007  0.9967 -2.3393
  163SOPE   H2Y18265   0.430   0.433  10.436 -0.2817  0.3155 -0.8736
  163SOPE   C2318266   0.907  -0.110  10.267  0.1623 -0.4974  0.5237
  163SOPE   H3R18267   0.921  -0.216  10.298  0.4760  0.0474  2.3765
  163SOPE   H3S18268   1.005  -0.079  10.225 -0.0967  0.8058  0.8226
  163SOPE   C2418269   0.793  -0.090  10.161  0.2096 -0.9896 -0.0164
  163SOPE   H4R18270   0.819  -0.172  10.090 -2.5842 -1.1369 -1.0306
  163SOPE   H4S18271   0.700  -0.118  10.216  0.4691  0.1762  1.0583
  163SOPE   C2518272   0.787   0.051  10.092  0.0143 -0.1336 -0.3805
  163SOPE   H5R18273   0.747   0.135  10.153 -2.5055 -0.2672 -1.7228
  163SOPE   H5S18274   0.894   0.068  10.069  1.3123 -5.1047  0.7267
  163SOPE   C2618275   0.712   0.050   9.961 -0.2423  0.0178  0.4160
  163SOPE   H6R18276   0.712  -0.057   9.929 -0.1906  0.0853  0.1898
  163SOPE   H6S18277   0.606   0.080   9.975 -0.0566 -0.1306  2.5146
  163SOPE   C2718278   0.767   0.144   9.857 -0.3982 -0.0224 -0.3267
  163SOPE   H7R18279   0.774   0.251   9.889 -0.9624  0.1517 -0.7593
  163SOPE   H7S18280   0.870   0.109   9.837 -1.6969 -3.9398 -0.9025
  163SOPE   C2818281   0.690   0.142   9.722 -0.2000  0.1986 -0.1002
  163SOPE   H8R18282   0.585   0.139   9.758 -0.5125 -1.1652 -1.0553
  163SOPE   H8S18283   0.711   0.232   9.660  0.7590  0.7415  0.9719
  163SOPE   C2918284   0.722   0.019   9.644  0.5565  0.4917 -0.3526
  163SOPE   H9118285   0.664  -0.072   9.660 -0.9686  1.7314  1.7098
  163SOPE  C21018286   0.819   0.013   9.549 -0.0851  0.0288  0.3472
  163SOPE  H10118287   0.820  -0.074   9.481 -0.1101  0.7355 -0.5704
  163SOPE  C21118288   0.910   0.126   9.504  0.3632  0.0203  0.2013
  163SOPE  H11R18289   1.016   0.109   9.531  0.1457  0.9520  1.7375
  163SOPE  H11S18290   0.889   0.222   9.555 -0.0778 -0.8484  1.7232
  163SOPE  C21218291   0.900   0.170   9.358 -0.1632 -0.0632  0.3212
  163SOPE  H12R18292   0.931   0.090   9.287  2.8012 -1.0238  2.5369
  163SOPE  H12S18293   0.988   0.238   9.352  0.7232 -1.2435 -0.5219
  163SOPE  C21318294   0.773   0.250   9.324  0.2937  0.2297  0.0292
  163SOPE  H13R18295   0.745   0.340   9.384  0.3080 -0.9583  1.8984
  163SOPE  H13S18296   0.691   0.176   9.333 -1.6285  1.9391 -2.0187
  163SOPE  C21418297   0.765   0.305   9.180 -0.8445 -0.1531 -0.3925
  163SOPE  H14R18298   0.773   0.216   9.115  1.1333 -0.0878 -0.2883
  163SOPE  H14S18299   0.844   0.381   9.160 -1.0233  0.9132  2.4282
  163SOPE  C21518300   0.628   0.372   9.147 -0.2496  0.0012 -0.0932
  163SOPE  H15R18301   0.633   0.482   9.134 -3.3484  0.1789 -0.3839
  163SOPE  H15S18302   0.547   0.363   9.223 -0.9876  2.3973 -0.5303
  163SOPE  C21618303   0.561   0.320   9.014 -0.4051 -0.3654 -0.1847
  163SOPE  H16R18304   0.464   0.368   8.990 -0.4895 -0.7280 -0.5709
  163SOPE  H16S18305   0.535   0.213   9.032  0.2707 -0.5869 -0.4944
  163SOPE  C21718306   0.658   0.339   8.894  0.6085  0.4414  0.1249
  163SOPE  H17R18307   0.758   0.304   8.927  0.9677  1.1855 -0.1542
  163SOPE  H17S18308   0.657   0.448   8.870 -2.7085  0.1977 -1.3623
  163SOPE  C21818309   0.609   0.277   8.763 -0.7611  0.0621 -0.3060
  163SOPE  H18R18310   0.572   0.177   8.794 -1.0257  0.2032 -0.1667
  163SOPE  H18S18311   0.685   0.263   8.683  0.0214 -1.2968  0.6383
  163SOPE  H18T18312   0.529   0.337   8.715  0.2984  0.7290 -1.2932
  163SOPE   C3318313   0.550   0.392  10.251  0.0877  0.7945 -0.2282
  163SOPE   H3X18314   0.477   0.330  10.196  1.5173 -2.5873  1.4280
  163SOPE   H3Y18315   0.651   0.354  10.227  0.5036  2.4156 -1.2466
  163SOPE   C3418316   0.558   0.544  10.204  0.5166  0.1366 -0.2063
  163SOPE   H4X18317   0.661   0.580  10.225  1.0141 -1.7466  0.7824
  163SOPE   H4Y18318   0.501   0.608  10.275 -0.6037  0.4383 -1.3365
  163SOPE   C3518319   0.509   0.573  10.062 -0.2041 -0.1140 -0.2967
  163SOPE   H5X18320   0.518   0.684  10.052 -5.3381  0.7053  1.5505
  163SOPE   H5Y18321   0.399   0.561  10.055 -0.0853 -2.0466  0.6512
  163SOPE   C3618322   0.596   0.500   9.956  0.2687 -0.1040 -0.4942
  163SOPE   H6X18323   0.575   0.392   9.939  1.4525 -0.7507  1.7503
  163SOPE   H6Y18324   0.703   0.506   9.982  0.5255  2.4443 -1.7769
  163SOPE   C3718325   0.574   0.580   9.831  0.2714  0.2753 -0.0064
  163SOPE   H7X18326   0.603   0.684   9.858 -0.5750  0.4457  0.2561
  163SOPE   H7Y18327   0.465   0.593   9.821  0.1287 -0.5804  0.3739
  163SOPE   C3818328   0.638   0.522   9.703 -0.4630  0.2349 -0.1332
  163SOPE   H8X18329   0.599   0.571   9.612 -0.4259  1.1185  0.3188
  163SOPE   H8Y18330   0.600   0.421   9.674 -0.1669  0.4132 -1.1640
  163SOPE   C3918331   0.797   0.533   9.712 -0.4287  0.4114  0.6498
  163SOPE   H9X18332   0.848   0.460   9.779  2.8836  0.8963 -1.1223
  163SOPE   H9Y18333   0.815   0.634   9.757 -0.9213  1.6777 -1.8227
  163SOPE  C31018334   0.877   0.519   9.585 -0.2268  0.2538  0.0689
  163SOPE  H10X18335   0.795   0.495   9.514  1.0405 -0.2519 -1.2587
  163SOPE  H10Y18336   0.939   0.428   9.584 -1.9632 -1.0299  1.5624
  163SOPE  C31118337   0.959   0.641   9.561  0.8355 -0.0651 -0.5630
  163SOPE  H11X18338   1.011   0.666   9.656  0.3360 -1.8166  0.2184
  163SOPE  H11Y18339   0.882   0.720   9.546  0.7048 -0.2670 -0.9831
  163SOPE  C31218340   1.040   0.633   9.435  0.3098  0.1217 -0.0276
  163SOPE  H12X18341   1.100   0.540   9.436 -0.2071 -0.2660 -1.8369
  163SOPE  H12Y18342   1.119   0.711   9.423  0.5997 -0.3527 -1.4770
  163SOPE  C31318343   0.955   0.640   9.308 -0.0282 -0.4899  0.0181
  163SOPE  H13X18344   0.910   0.740   9.292 -1.3760 -0.9151  0.9581
  163SOPE  H13Y18345   0.882   0.556   9.309  0.4865 -1.0041 -1.8493
  163SOPE  C31418346   1.045   0.605   9.189  0.7467  0.2581  0.5624
  163SOPE  H14X18347   0.984   0.586   9.098  2.3530 -1.7093 -0.1816
  163SOPE  H14Y18348   1.096   0.507   9.203 -0.8102 -0.6263  0.2945
  163SOPE  C31518349   1.147   0.715   9.147  0.2621 -0.0464  0.1494
  163SOPE  H15X18350   1.232   0.715   9.219  0.7446 -0.1979 -0.4139
  163SOPE  H15Y18351   1.095   0.814   9.142  0.1412 -0.0706  0.8861
  163SOPE  C31618352   1.212   0.686   9.007 -0.0597  0.6805 -0.4044
  163SOPE  H16X18353   1.266   0.775   8.968  1.8745 -0.5656 -0.6924
  163SOPE  H16Y18354   1.142   0.643   8.932  0.3383 -1.7814  0.5632
  163SOPE  C31718355   1.319   0.574   9.016  0.2633 -0.1593  0.9948
  163SOPE  H17X18356   1.273   0.486   9.067 -1.0278  1.2700  2.4062
  163SOPE  H17Y18357   1.398   0.597   9.090  1.3096 -2.8692  0.8369
  163SOPE  C31818358   1.381   0.537   8.883 -0.0376 -0.2239 -0.1048
  163SOPE  H18X18359   1.439   0.626   8.850  0.0653 -0.6302 -1.0684
  163SOPE  H18Y18360   1.294   0.515   8.816 -1.2942  0.2353  1.3140
  163SOPE  H18Z18361   1.443   0.446   8.892 -0.0223 -0.1122  1.0506
  164SOPE     N18362   2.839   4.966  10.581 -0.2868 -0.6823 -0.1758
  164SOPE   HN118363   2.755   4.910  10.606 -1.3996  0.7737 -0.4839
  164SOPE   HN218364   2.913   4.900  10.550 -0.7430 -1.6079  0.6531
  164SOPE   HN318365   2.878   4.997  10.672  1.0454 -1.6090 -0.4067
  164SOPE   C1218366   2.802   5.072  10.482  0.2849 -0.2064 -0.3738
  164SOPE  H12A18367   2.791   5.029  10.380  0.0243 -0.2395 -0.3335
  164SOPE  H12B18368   2.884   5.145  10.470  0.0280  0.0567 -0.5340
  164SOPE   C1118369   2.680   5.147  10.532  0.3266 -0.2118 -0.4885
  164SOPE  H11A18370   2.595   5.075  10.530 -0.1874  0.4002 -1.4515
  164SOPE  H11B18371   2.641   5.230  10.469  0.3701  2.3367  2.5467
  164SOPE     P18372   2.577   5.223  10.768  0.1843 -0.3203  0.7170
  164SOPE   O1318373   2.600   5.339  10.859  0.3203  0.0261  0.1555
  164SOPE   O1418374   2.535   5.103  10.836  0.4440  0.2832 -0.4659
  164SOPE   O1218375   2.694   5.207  10.662 -0.4899  0.2342 -0.7422
  164SOPE   O1118376   2.445   5.255  10.677 -0.1672  0.0132 -0.2716
  164SOPE    C118377   2.448   5.390  10.621 -0.2894  0.6692 -0.3660
  164SOPE    HA18378   2.547   5.426  10.585  0.3682  1.5530  2.0919
  164SOPE    HB18379   2.412   5.467  10.692  0.7171 -0.1702  1.1186
  164SOPE    C218380   2.369   5.396  10.486 -0.1287  0.5308  0.7883
  164SOPE    HS18381   2.266   5.356  10.495  0.2337 -0.3359  1.2546
  164SOPE   O2118382   2.445   5.317  10.385  0.2050  0.5213 -0.3930
  164SOPE   C2118383   2.376   5.263  10.285 -0.0641  0.6749  0.1288
  164SOPE   O2218384   2.255   5.268  10.268  0.2720  0.8604 -0.2465
  164SOPE   C2218385   2.473   5.183  10.191  0.2746 -0.0581  0.3920
  164SOPE   H2R18386   2.465   5.072  10.203  0.1297 -0.1406 -0.4202
  164SOPE   H2S18387   2.577   5.219  10.206  0.3360 -1.0093  2.7524
  164SOPE    C318388   2.360   5.541  10.435 -0.5130 -1.1579 -0.3179
  164SOPE    HX18389   2.463   5.578  10.416  0.2140 -2.4247  0.9136
  164SOPE    HY18390   2.309   5.603  10.512  0.8874  1.1614 -1.1549
  164SOPE   O3118391   2.302   5.548  10.303  0.1379 -0.3961 -0.0033
  164SOPE   C3118392   2.168   5.532  10.301 -0.1031 -0.0124 -0.5523
  164SOPE   O3218393   2.093   5.538  10.398  0.3354  0.3819  0.3942
  164SOPE   C3218394   2.129   5.527  10.150 -0.0002 -0.0990 -0.1074
  164SOPE   H2X18395   2.187   5.445  10.103  1.2452  0.6822  0.0276
  164SOPE   H2Y18396   2.159   5.625  10.108  2.1378 -0.2826  0.8460
  164SOPE   C2318397   2.434   5.206  10.037 -0.6236  0.2257  0.4703
  164SOPE   H3R18398   2.425   5.313  10.009 -0.8115 -0.6720 -3.4812
  164SOPE   H3S18399   2.339   5.159  10.002 -1.9799  2.6290  0.7052
  164SOPE   C2418400   2.551   5.151   9.948 -0.5113  0.4818  0.7704
  164SOPE   H4R18401   2.652   5.183   9.982 -1.6594  1.4013  3.5367
  164SOPE   H4S18402   2.548   5.040   9.952 -0.2929  0.5175  2.3914
  164SOPE   C2518403   2.552   5.211   9.803 -0.0068  0.1942  0.3581
  164SOPE   H5R18404   2.556   5.321   9.812  2.5258  0.1475  0.3698
  164SOPE   H5S18405   2.643   5.184   9.745 -1.2131 -2.1268 -0.6187
  164SOPE   C2618406   2.424   5.179   9.729  0.0260  0.4070 -0.7484
  164SOPE   H6R18407   2.397   5.072   9.740 -1.7611  0.9465  0.6326
  164SOPE   H6S18408   2.342   5.230   9.783  1.3469  1.8787 -0.0465
  164SOPE   C2718409   2.427   5.213   9.577  0.0797  0.2051 -0.6003
  164SOPE   H7R18410   2.321   5.222   9.545  0.2562 -1.4541 -1.8267
  164SOPE   H7S18411   2.475   5.309   9.551  0.2277 -0.2799 -2.2438
  164SOPE   C2818412   2.499   5.104   9.500  0.8943  0.0464  0.2124
  164SOPE   H8R18413   2.599   5.102   9.549  1.0833  1.0047 -0.1027
  164SOPE   H8S18414   2.450   5.008   9.525  3.0562 -1.0809  0.3279
  164SOPE   C2918415   2.511   5.124   9.349  0.6019  0.3808 -0.2853
  164SOPE   H9118416   2.597   5.191   9.335  2.4280 -1.5360  1.1042
  164SOPE  C21018417   2.449   5.071   9.248  0.2188 -0.6096  0.2624
  164SOPE  H10118418   2.485   5.102   9.149  0.4764 -0.7768  0.3028
  164SOPE  C21118419   2.342   4.966   9.240  0.6175 -0.3175  0.7578
  164SOPE  H11R18420   2.255   5.009   9.185 -0.0666 -1.8670  0.5707
  164SOPE  H11S18421   2.316   4.941   9.345 -0.0053 -1.6823  0.2955
  164SOPE  C21218422   2.379   4.839   9.163 -0.3305  0.0560  0.5915
  164SOPE  H12R18423   2.295   4.768   9.144 -0.5399  0.4179  0.1415
  164SOPE  H12S18424   2.455   4.787   9.225 -0.0123 -0.8184 -0.4951
  164SOPE  C21318425   2.434   4.873   9.019 -0.8207  0.5257  0.0264
  164SOPE  H13R18426   2.522   4.941   9.010 -0.3455 -0.2485 -1.5028
  164SOPE  H13S18427   2.350   4.930   8.974  0.0087  2.8241  1.2058
  164SOPE  C21418428   2.452   4.749   8.928 -0.1874  0.2976 -0.4728
  164SOPE  H14R18429   2.359   4.690   8.943  0.4594 -0.5738  0.2251
  164SOPE  H14S18430   2.539   4.693   8.970  0.4388  2.1530  0.8509
  164SOPE  C21518431   2.462   4.781   8.776 -0.0226 -0.3801  0.6707
  164SOPE  H15R18432   2.385   4.852   8.740  0.2637 -0.5820 -0.3589
  164SOPE  H15S18433   2.450   4.680   8.731  1.5059 -0.7713  1.1007
  164SOPE  C21618434   2.599   4.834   8.739 -0.0671 -0.5829  0.5721
  164SOPE  H16R18435   2.682   4.766   8.771 -0.7885 -1.9093 -0.2846
  164SOPE  H16S18436   2.606   4.936   8.781  0.4155 -0.3020 -0.1832
  164SOPE  C21718437   2.625   4.854   8.586 -0.4037 -0.3155  0.0532
  164SOPE  H17R18438   2.535   4.901   8.541  1.1821  0.5512 -2.3745
  164SOPE  H17S18439   2.642   4.750   8.550 -0.4581 -0.5830  0.7751
  164SOPE  C21818440   2.743   4.950   8.551  0.9640 -0.4218 -0.4250
  164SOPE  H18R18441   2.745   4.955   8.440  2.7693  1.6732 -0.3651
  164SOPE  H18S18442   2.841   4.920   8.593  1.2043  1.1961  0.2635
  164SOPE  H18T18443   2.735   5.050   8.600  3.5670  0.4186 -1.5255
  164SOPE   C3318444   1.980   5.498  10.122  0.1202 -0.2703 -0.3205
  164SOPE   H3X18445   1.914   5.555  10.191 -0.1216  0.4124 -1.0996
  164SOPE   H3Y18446   1.957   5.391  10.138 -0.0147 -0.3934 -1.2843
  164SOPE   C3418447   1.932   5.544   9.982  0.1033 -0.6057  0.1213
  164SOPE   H4X18448   1.935   5.655   9.978  1.5690 -0.6248  0.1899
  164SOPE   H4Y18449   1.833   5.495   9.972 -0.0626 -0.6675  1.7887
  164SOPE   C3518450   2.031   5.488   9.876  0.6119  0.0869  0.2343
  164SOPE   H5X18451   2.025   5.379   9.897 -0.8586  0.2579  0.7905
  164SOPE   H5Y18452   2.137   5.518   9.895  1.6890 -1.4521 -2.7373
  164SOPE   C3618453   1.993   5.516   9.727 -0.4604  0.4513  0.3142
  164SOPE   H6X18454   1.976   5.624   9.707 -0.7137  0.3596  0.0180
  164SOPE   H6Y18455   1.900   5.455   9.715 -0.0396  0.2248 -2.6445
  164SOPE   C3718456   2.093   5.458   9.633 -0.2729 -0.3941  0.0664
  164SOPE   H7X18457   2.077   5.348   9.640 -0.1556 -0.4548 -0.5573
  164SOPE   H7Y18458   2.190   5.495   9.671 -0.6620 -1.0411  1.7959
  164SOPE   C3818459   2.071   5.491   9.483 -0.3432  0.5124 -0.4481
  164SOPE   H8X18460   2.068   5.600   9.458  0.3356  0.5491 -0.3791
  164SOPE   H8Y18461   1.977   5.440   9.452  0.9882 -1.4589 -1.4169
  164SOPE   C3918462   2.172   5.413   9.391  0.0257 -0.2254 -0.5213
  164SOPE   H9X18463   2.180   5.307   9.423  2.1573  0.1305  0.2643
  164SOPE   H9Y18464   2.272   5.460   9.399 -0.6734  1.0093  1.9283
  164SOPE  C31018465   2.129   5.416   9.249 -0.4416  0.1283 -0.6571
  164SOPE  H10X18466   2.092   5.517   9.225 -1.2324 -0.5185 -2.3285
  164SOPE  H10Y18467   2.041   5.348   9.243  0.5783 -1.1875 -1.4505
  164SOPE  C31118468   2.227   5.373   9.136  0.9162  0.5244 -0.0160
  164SOPE  H11X18469   2.254   5.268   9.163 -1.7092 -0.2231  0.0170
  164SOPE  H11Y18470   2.320   5.433   9.126 -0.2109  2.6566  1.7146
  164SOPE  C31218471   2.173   5.344   8.995  0.9377  0.1688  0.2163
  164SOPE  H12X18472   2.190   5.433   8.930  2.2653 -0.1141  0.1568
  164SOPE  H12Y18473   2.062   5.340   9.001  0.6269  2.4035 -2.0435
  164SOPE  C31318474   2.225   5.220   8.928 -0.4178  0.0960 -0.9345
  164SOPE  H13X18475   2.219   5.135   8.999  1.6508  0.9146  0.2954
  164SOPE  H13Y18476   2.326   5.251   8.894 -1.7943  4.0906 -1.9474
  164SOPE  C31418477   2.159   5.183   8.796  0.3823  0.3621 -0.1055
  164SOPE  H14X18478   2.193   5.262   8.726 -3.3162  3.9914  1.7404
  164SOPE  H14Y18479   2.049   5.198   8.807  0.0667 -1.0805 -0.9722
  164SOPE  C31518480   2.195   5.053   8.730 -0.1467 -0.5898 -0.6615
  164SOPE  H15X18481   2.199   4.968   8.802  0.5900 -1.3265 -1.5398
  164SOPE  H15Y18482   2.303   5.060   8.707  0.9801  1.0323  3.9797
  164SOPE  C31618483   2.103   5.026   8.613 -0.0791 -0.1386  0.0326
  164SOPE  H16X18484   2.157   4.937   8.573 -1.1035 -1.2528  1.0264
  164SOPE  H16Y18485   2.128   5.107   8.541 -2.6944  1.5469  0.9000
  164SOPE  C31718486   1.964   4.981   8.644 -0.0918 -0.2776 -0.0020
  164SOPE  H17X18487   1.894   5.066   8.659  0.2933  0.4637 -2.0461
  164SOPE  H17Y18488   1.955   4.917   8.735  1.3398 -0.0665  0.3093
  164SOPE  C31818489   1.900   4.900   8.527  0.6629 -0.5416 -0.1797
  164SOPE  H18X18490   1.791   4.886   8.548  0.7229 -1.3941 -0.3980
  164SOPE  H18Y18491   1.932   4.794   8.517  0.9621 -0.4670  0.0098
  164SOPE  H18Z18492   1.904   4.962   8.435 -3.0320  1.2986  0.6868
  165SOPE     N18493   1.496   6.171  11.332  0.0637  0.4983 -0.0626
  165SOPE   HN118494   1.533   6.265  11.355  0.9898  0.0033  0.5512
  165SOPE   HN218495   1.419   6.145  11.397 -0.3024  0.5091 -0.4906
  165SOPE   HN318496   1.584   6.117  11.348  0.5704  1.0479 -0.9274
  165SOPE   C1218497   1.436   6.174  11.194 -0.1866 -0.0112 -0.0868
  165SOPE  H12A18498   1.366   6.259  11.184  1.8252  1.8823  1.0179
  165SOPE  H12B18499   1.380   6.078  11.199 -0.4611  0.2044  2.7390
  165SOPE   C1118500   1.555   6.172  11.090 -0.2493  0.6203 -0.4617
  165SOPE  H11A18501   1.614   6.258  11.129 -0.6387 -0.7339  3.5964
  165SOPE  H11B18502   1.510   6.186  10.990 -0.2555 -0.6904 -0.6642
  165SOPE     P18503   1.753   6.015  11.024 -0.4191 -0.0689  0.1929
  165SOPE   O1318504   1.817   5.900  11.087 -0.0648  0.2375  0.5794
  165SOPE   O1418505   1.837   6.139  11.021  0.2980 -0.9175  0.4119
  165SOPE   O1218506   1.617   6.044  11.104 -0.0244 -0.4069 -0.3470
  165SOPE   O1118507   1.713   5.984  10.873 -0.8328 -0.2028 -0.4804
  165SOPE    C118508   1.793   5.942  10.760 -0.2198  0.4092 -0.2175
  165SOPE    HA18509   1.853   5.849  10.770 -0.2157  0.0678 -2.7631
  165SOPE    HB18510   1.871   6.018  10.740 -0.3245  0.4633 -0.4260
  165SOPE    C218511   1.719   5.935  10.623 -1.0138  0.5859 -0.4711
  165SOPE    HS18512   1.795   5.925  10.542  0.5651 -0.6737  1.0919
  165SOPE   O2118513   1.622   6.034  10.603  0.1906 -0.3022  0.1696
  165SOPE   C2118514   1.676   6.149  10.568 -0.4280 -0.5172  0.6572
  165SOPE   O2218515   1.795   6.174  10.541  0.3229  0.5735 -0.1959
  165SOPE   C2218516   1.571   6.261  10.601 -0.1839 -0.4970 -0.6125
  165SOPE   H2R18517   1.595   6.309  10.698 -2.9915  0.4543 -0.3158
  165SOPE   H2S18518   1.472   6.212  10.613 -0.5687  0.3535 -0.1985
  165SOPE    C318519   1.642   5.790  10.627  0.2490  0.1511 -0.4621
  165SOPE    HX18520   1.573   5.791  10.713 -0.5072  2.3001 -1.0256
  165SOPE    HY18521   1.722   5.717  10.651  1.1545  0.6854 -1.7283
  165SOPE   O3118522   1.564   5.762  10.512 -0.0377  0.2317 -0.2046
  165SOPE   C3118523   1.635   5.714  10.406  0.2021 -0.7279 -0.3717
  165SOPE   O3218524   1.752   5.691  10.407  0.1975  0.0043  0.2561
  165SOPE   C3218525   1.548   5.687  10.281  1.5889 -1.3040 -0.7281
  165SOPE   H2X18526   1.461   5.628  10.316 -0.2337  1.0734 -1.0205
  165SOPE   H2Y18527   1.606   5.613  10.221  0.3092 -1.2204 -2.1192
  165SOPE   C2318528   1.561   6.372  10.497  1.2029  0.5340 -0.4682
  165SOPE   H3R18529   1.467   6.431  10.507 -0.7230 -2.4278 -0.0679
  165SOPE   H3S18530   1.564   6.322  10.398  0.3645  1.2364 -0.8642
  165SOPE   C2418531   1.674   6.474  10.503 -0.6708 -0.7056 -0.3150
  165SOPE   H4R18532   1.692   6.503  10.609  0.6738 -0.6580 -0.5381
  165SOPE   H4S18533   1.771   6.430  10.471  1.5619  3.3927  0.0554
  165SOPE   C2518534   1.669   6.584  10.395 -0.6087 -0.4761  0.4883
  165SOPE   H5R18535   1.584   6.651  10.421  1.7317  1.5510  3.6632
  165SOPE   H5S18536   1.761   6.645  10.396  0.1069 -1.5312  0.6122
  165SOPE   C2618537   1.656   6.532  10.247  0.9267 -0.1356 -0.0052
  165SOPE   H6R18538   1.557   6.483  10.231  0.5929  1.1174 -2.2418
  165SOPE   H6S18539   1.653   6.616  10.175 -0.1506 -0.2312 -0.0908
  165SOPE   C2718540   1.765   6.432  10.203 -0.6498 -0.1153 -0.8385
  165SOPE   H7R18541   1.852   6.499  10.220 -1.9867  1.6932 -0.8938
  165SOPE   H7S18542   1.773   6.334  10.255 -0.9105 -1.5803 -3.3857
  165SOPE   C2818543   1.784   6.407  10.050  0.7275  0.4636  1.1264
  165SOPE   H8R18544   1.792   6.498   9.987 -1.1368  0.4796  0.8549
  165SOPE   H8S18545   1.877   6.352  10.022  0.8525  0.8631  0.7492
  165SOPE   C2918546   1.667   6.319  10.005  0.3600  0.2953 -0.4938
  165SOPE   H9118547   1.584   6.314  10.077  1.7478  0.4370  1.1972
  165SOPE  C21018548   1.660   6.243   9.896 -0.3090 -1.1504  0.4384
  165SOPE  H10118549   1.570   6.181   9.884 -1.7083  0.8292  0.2621
  165SOPE  C21118550   1.761   6.232   9.784 -0.2251  0.0040  0.3778
  165SOPE  H11R18551   1.784   6.124   9.767 -0.0764  0.2694 -1.3780
  165SOPE  H11S18552   1.863   6.272   9.801 -0.3499  1.2295 -1.4092
  165SOPE  C21218553   1.721   6.304   9.658 -0.4624 -0.7883 -0.1885
  165SOPE  H12R18554   1.704   6.412   9.678 -4.0267 -1.3141  0.4234
  165SOPE  H12S18555   1.621   6.270   9.620 -0.8178  0.5269 -0.4882
  165SOPE  C21318556   1.824   6.267   9.541 -0.2778  0.4212 -0.0429
  165SOPE  H13R18557   1.826   6.157   9.533  2.1046  0.2242  2.0920
  165SOPE  H13S18558   1.921   6.309   9.575  0.4941 -0.9176 -0.5238
  165SOPE  C21418559   1.789   6.340   9.410 -0.1598 -0.4053  0.4632
  165SOPE  H14R18560   1.774   6.448   9.431 -0.9955 -0.4423  0.1043
  165SOPE  H14S18561   1.686   6.304   9.388  0.0800  0.5547 -2.6036
  165SOPE  C21518562   1.888   6.308   9.302 -0.7361  0.5286  1.0101
  165SOPE  H15R18563   1.866   6.218   9.241  0.6075  0.2034  0.9785
  165SOPE  H15S18564   1.985   6.283   9.351 -0.0016 -0.0620 -0.6553
  165SOPE  C21618565   1.925   6.426   9.211 -0.1805 -0.0118  0.4538
  165SOPE  H16R18566   2.029   6.411   9.178  0.1750 -0.6575  1.7860
  165SOPE  H16S18567   1.930   6.518   9.273 -1.4390 -0.3509  1.1039
  165SOPE  C21718568   1.841   6.446   9.084 -0.0769 -0.0905 -0.1844
  165SOPE  H17R18569   1.734   6.446   9.116 -0.1173 -0.8429 -0.2984
  165SOPE  H17S18570   1.850   6.348   9.033  1.2591  0.5973 -1.3203
  165SOPE  C21818571   1.873   6.562   8.990  0.7660 -0.0012 -0.2458
  165SOPE  H18R18572   1.964   6.548   8.927  2.0787 -1.1518  1.8172
  165SOPE  H18S18573   1.894   6.658   9.042 -0.8101  0.0278  0.3877
  165SOPE  H18T18574   1.793   6.589   8.917  1.6177  0.6101 -0.9808
  165SOPE   C3318575   1.499   5.817  10.210 -0.3180 -0.5117  0.3424
  165SOPE   H3X18576   1.442   5.869  10.290 -0.5347  2.5437 -1.6470
  165SOPE   H3Y18577   1.429   5.788  10.129 -0.4028  2.7278 -0.8788
  165SOPE   C3418578   1.609   5.902  10.143 -0.5575 -0.1876  0.4408
  165SOPE   H4X18579   1.682   5.926  10.224 -0.5681 -0.3677  0.5068
  165SOPE   H4Y18580   1.576   6.004  10.116 -0.9654 -0.1017  1.2123
  165SOPE   C3518581   1.679   5.838  10.027  0.3133  0.1140 -0.4666
  165SOPE   H5X18582   1.693   5.731  10.052 -0.3059  0.0552 -0.3577
  165SOPE   H5Y18583   1.776   5.888  10.007 -0.7853  1.9823 -1.4896
  165SOPE   C3618584   1.618   5.851   9.891  0.0437 -0.6287 -0.0948
  165SOPE   H6X18585   1.609   5.960   9.870  1.0726 -0.2926  1.1356
  165SOPE   H6Y18586   1.527   5.791   9.867  2.0722 -3.8780 -0.2734
  165SOPE   C3718587   1.713   5.787   9.781  0.0439  0.6445  0.0644
  165SOPE   H7X18588   1.747   5.690   9.822  0.2383  0.8047  0.2931
  165SOPE   H7Y18589   1.798   5.854   9.754  0.5129  1.1812  2.5570
  165SOPE   C3818590   1.626   5.762   9.651  0.8387  1.2666  0.0228
  165SOPE   H8X18591   1.578   5.857   9.620 -1.2166  0.3785  0.2843
  165SOPE   H8Y18592   1.546   5.693   9.687  1.0892  1.5785  1.2473
  165SOPE   C3918593   1.698   5.683   9.534  0.5881 -0.6565  0.0563
  165SOPE   H9X18594   1.729   5.592   9.589  1.0141 -0.2690  0.4660
  165SOPE   H9Y18595   1.785   5.747   9.509 -0.1963  1.5814  2.5829
  165SOPE  C31018596   1.608   5.642   9.418 -0.3023  0.0138  0.0248
  165SOPE  H10X18597   1.558   5.729   9.370  0.7615  0.3516 -0.5127
  165SOPE  H10Y18598   1.536   5.562   9.446 -0.5940  0.2116 -0.1572
  165SOPE  C31118599   1.676   5.573   9.293  0.7571 -0.0739 -0.3600
  165SOPE  H11X18600   1.605   5.569   9.208  0.3733 -0.3796 -0.0258
  165SOPE  H11Y18601   1.689   5.467   9.323  2.1188  0.2556  0.3206
  165SOPE  C31218602   1.797   5.659   9.249 -0.3562  0.6335 -0.0131
  165SOPE  H12X18603   1.848   5.603   9.168 -0.5017  0.6615 -0.1233
  165SOPE  H12Y18604   1.875   5.681   9.325 -0.4148  0.2239  0.1647
  165SOPE  C31318605   1.765   5.807   9.203 -0.1472 -0.4453  0.7878
  165SOPE  H13X18606   1.744   5.879   9.286  2.6982 -0.6725  1.7978
  165SOPE  H13Y18607   1.670   5.816   9.147  0.4018 -2.3153 -0.5508
  165SOPE  C31418608   1.874   5.862   9.114 -0.6024  1.0552 -0.1543
  165SOPE  H14X18609   1.966   5.813   9.153 -0.6616  0.3642 -0.8525
  165SOPE  H14Y18610   1.882   5.972   9.114 -2.1164  1.2775  2.8176
  165SOPE  C31518611   1.862   5.805   8.970 -0.5917 -0.2852 -0.1385
  165SOPE  H15X18612   1.776   5.853   8.920 -0.6524  0.6534  0.8106
  165SOPE  H15Y18613   1.845   5.695   8.966  0.0992 -0.3535 -2.4273
  165SOPE  C31618614   1.979   5.834   8.878  0.4718 -0.0145 -0.6488
  165SOPE  H16X18615   2.045   5.746   8.886  2.4452  1.3132 -1.6091
  165SOPE  H16Y18616   2.036   5.910   8.936 -0.9785 -2.4013  4.5034
  165SOPE  C31718617   1.947   5.865   8.733  0.2277 -0.1255  0.4015
  165SOPE  H17X18618   2.045   5.878   8.682 -0.5629 -0.3244 -1.2432
  165SOPE  H17Y18619   1.911   5.970   8.727  1.5353  0.3105 -0.4591
  165SOPE  C31818620   1.852   5.770   8.673  0.7052 -0.1861  0.1477
  165SOPE  H18X18621   1.894   5.667   8.681  1.5141  0.1629  0.5127
  165SOPE  H18Y18622   1.846   5.785   8.563 -0.0206  0.8911  0.3216
  165SOPE  H18Z18623   1.759   5.769   8.735  1.3943  1.1697  1.2484
  166SOPE     N18624   3.428   4.270  10.971  0.1634 -0.1633  0.4345
  166SOPE   HN118625   3.357   4.340  10.942  0.1077 -0.5342 -0.3689
  166SOPE   HN218626   3.376   4.181  10.983 -0.2938  0.0194 -0.1109
  166SOPE   HN318627   3.466   4.310  11.059 -0.8275  1.1701  0.2919
  166SOPE   C1218628   3.535   4.269  10.872 -0.8439 -0.0771 -0.2590
  166SOPE  H12A18629   3.566   4.370  10.840 -0.5187 -0.1386 -0.1497
  166SOPE  H12B18630   3.499   4.207  10.788  3.0608 -2.7285 -0.2564
  166SOPE   C1118631   3.664   4.199  10.917 -0.2604 -0.7780 -0.0980
  166SOPE  H11A18632   3.692   4.235  11.018 -1.2120  0.0362 -0.1078
  166SOPE  H11B18633   3.745   4.234  10.850 -1.3215 -0.4961 -1.2772
  166SOPE     P18634   3.728   3.957  10.831 -0.0178  0.3118  0.1727
  166SOPE   O1318635   3.625   3.864  10.780 -0.0668  0.1174 -0.0520
  166SOPE   O1418636   3.840   3.904  10.909 -0.3030  0.3055  0.1058
  166SOPE   O1218637   3.645   4.062  10.924 -0.4159 -0.4108 -0.0778
  166SOPE   O1118638   3.791   4.043  10.707 -0.2038 -0.5259 -0.1961
  166SOPE    C118639   3.723   4.076  10.584 -0.1180 -0.5397  0.8937
  166SOPE    HA18640   3.766   4.169  10.541  1.1736 -1.3099  0.4609
  166SOPE    HB18641   3.614   4.089  10.601 -0.1325  0.0203  0.3746
  166SOPE    C218642   3.738   3.971  10.476  0.3265  0.4896  0.6074
  166SOPE    HS18643   3.708   3.872  10.516  0.9811  0.0461  0.0459
  166SOPE   O2118644   3.869   3.963  10.424  0.1480 -0.2510 -0.0944
  166SOPE   C2118645   3.948   3.863  10.472  0.2268 -0.1637  0.3920
  166SOPE   O2218646   3.908   3.768  10.536 -0.5710 -0.2365  0.8529
  166SOPE   C2218647   4.094   3.877  10.418  0.7674 -0.2853 -0.0632
  166SOPE   H2R18648   4.160   3.850  10.503 -1.3185 -0.0959  1.7080
  166SOPE   H2S18649   4.124   3.977  10.381  0.1365 -0.5327 -1.2875
  166SOPE    C318650   3.630   4.000  10.362 -0.1427 -0.2812 -0.6688
  166SOPE    HX18651   3.534   4.018  10.415 -0.6772 -0.9727 -1.3818
  166SOPE    HY18652   3.611   3.914  10.294 -1.6488 -0.1112 -0.4815
  166SOPE   O3118653   3.662   4.119  10.275  0.6494 -1.0001 -0.1478
  166SOPE   C3118654   3.578   4.224  10.299  0.2285  0.9598  0.2538
  166SOPE   O3218655   3.484   4.224  10.378  0.4860 -0.1479 -0.2087
  166SOPE   C3218656   3.598   4.339  10.205 -0.5881 -0.7409  0.0701
  166SOPE   H2X18657   3.699   4.336  10.158 -0.5934  1.6225 -0.2157
  166SOPE   H2Y18658   3.587   4.434  10.262 -4.0280  0.0092 -1.6108
  166SOPE   C2318659   4.116   3.771  10.310 -0.0745  0.6286  0.3913
  166SOPE   H3R18660   4.115   3.676  10.366 -0.8992  0.0596 -0.5531
  166SOPE   H3S18661   4.211   3.785  10.254 -0.9313 -0.8907 -1.5908
  166SOPE   C2418662   4.013   3.760  10.198  0.1568  0.5366 -0.6592
  166SOPE   H4R18663   4.045   3.682  10.126  0.6971  1.9557 -2.0098
  166SOPE   H4S18664   3.921   3.730  10.253  0.6667  0.2145  0.0267
  166SOPE   C2518665   3.993   3.893  10.130  0.6869  0.4539  0.1403
  166SOPE   H5R18666   3.922   3.951  10.193 -1.9544 -0.7632 -1.5346
  166SOPE   H5S18667   4.080   3.960  10.113 -1.6368  3.1260 -2.4412
  166SOPE   C2618668   3.919   3.878   9.992 -0.2549 -0.0375  0.8943
  166SOPE   H6R18669   3.995   3.842   9.919  2.2356  3.9779  1.1583
  166SOPE   H6S18670   3.830   3.813  10.003 -1.6562  1.7124  0.4661
  166SOPE   C2718671   3.863   4.012   9.940  0.1686 -0.0195  0.6865
  166SOPE   H7R18672   3.779   4.035  10.009  1.1178  2.6369  1.0582
  166SOPE   H7S18673   3.945   4.087   9.944 -0.8647  1.3285 -1.4934
  166SOPE   C2818674   3.840   4.026   9.788  0.0724  0.1614  0.0546
  166SOPE   H8R18675   3.937   4.032   9.735  0.0299 -1.4859 -0.2729
  166SOPE   H8S18676   3.796   3.938   9.736 -0.3211 -0.2596  1.0757
  166SOPE   C2918677   3.743   4.137   9.768 -0.0048  0.0387 -0.9725
  166SOPE   H9118678   3.686   4.163   9.857  0.9876  1.5352 -0.7326
  166SOPE  C21018679   3.739   4.225   9.665 -0.0714  0.5382 -0.3988
  166SOPE  H10118680   3.677   4.315   9.676  0.4277  0.9481 -0.8497
  166SOPE  C21118681   3.831   4.225   9.540  0.1751  0.0366 -0.3822
  166SOPE  H11R18682   3.859   4.122   9.512 -0.0401  1.0770 -5.2914
  166SOPE  H11S18683   3.921   4.280   9.574  0.9657 -0.9405 -0.8484
  166SOPE  C21218684   3.784   4.295   9.421 -0.3689  0.3552  0.0671
  166SOPE  H12R18685   3.783   4.402   9.449  1.8663  0.4184  0.0352
  166SOPE  H12S18686   3.679   4.279   9.388  0.3497 -1.4022 -1.5900
  166SOPE  C21318687   3.881   4.266   9.311 -0.2315  0.3656  0.1675
  166SOPE  H13R18688   3.887   4.157   9.290 -1.4609  0.1169  1.0255
  166SOPE  H13S18689   3.985   4.292   9.340 -0.4133 -0.5267  1.7207
  166SOPE  C21418690   3.838   4.337   9.185 -0.1343 -0.0517 -0.9932
  166SOPE  H14R18691   3.807   4.440   9.214 -1.5761 -1.2461  2.1488
  166SOPE  H14S18692   3.750   4.288   9.140  1.4464 -1.9867 -2.1528
  166SOPE  C21518693   3.932   4.341   9.065 -0.1594 -0.0269 -0.4804
  166SOPE  H15R18694   3.961   4.242   9.025  0.5100  0.6650 -1.7481
  166SOPE  H15S18695   4.025   4.393   9.096 -0.1367 -0.1562 -0.3270
  166SOPE  C21618696   3.882   4.418   8.944  0.7337 -0.7226 -0.0624
  166SOPE  H16R18697   3.873   4.526   8.970  1.0867 -0.5873 -0.4987
  166SOPE  H16S18698   3.775   4.391   8.927  0.4487  0.3498 -0.0379
  166SOPE  C21718699   3.965   4.380   8.825  0.6171 -0.2302 -0.4944
  166SOPE  H17R18700   3.918   4.286   8.788  0.3715 -0.3765  0.1901
  166SOPE  H17S18701   4.059   4.341   8.869  0.1410  0.0472  0.8022
  166SOPE  C21818702   4.004   4.475   8.715 -0.3722 -1.0871 -0.0564
  166SOPE  H18R18703   4.053   4.570   8.746  0.7503 -0.8356 -2.3636
  166SOPE  H18S18704   3.921   4.493   8.643  0.3648  1.0777 -0.4315
  166SOPE  H18T18705   4.083   4.423   8.656  0.2541 -1.5186  1.1443
  166SOPE   C3318706   3.486   4.357  10.097 -0.2159  0.0842  0.9664
  166SOPE   H3X18707   3.398   4.391  10.156 -1.0409 -0.4728  0.0858
  166SOPE   H3Y18708   3.459   4.256  10.059 -0.9936  0.5747  0.1850
  166SOPE   C3418709   3.505   4.449   9.980  0.2064  0.5189 -0.4880
  166SOPE   H4X18710   3.610   4.442   9.945  0.1076  1.5889 -1.0456
  166SOPE   H4Y18711   3.501   4.551  10.023  1.0115 -0.0028  0.8903
  166SOPE   C3518712   3.389   4.450   9.876 -0.0414  0.0642  0.1959
  166SOPE   H5X18713   3.288   4.471   9.917 -1.0036  0.5959 -2.2607
  166SOPE   H5Y18714   3.383   4.350   9.829 -0.6094  0.2049 -0.0431
  166SOPE   C3618715   3.408   4.533   9.749 -0.5063 -0.4991  0.3761
  166SOPE   H6X18716   3.482   4.489   9.679 -0.2010 -0.7480  0.8490
  166SOPE   H6Y18717   3.446   4.634   9.779  0.0026 -0.4625 -0.3590
  166SOPE   C3718718   3.276   4.562   9.680 -0.0528 -0.3714 -0.0887
  166SOPE   H7X18719   3.218   4.628   9.749  1.3763  2.0979 -1.1282
  166SOPE   H7Y18720   3.219   4.468   9.670 -2.0810  0.9587 -2.0516
  166SOPE   C3818721   3.291   4.642   9.549  0.6775 -0.1012  0.2854
  166SOPE   H8X18722   3.378   4.708   9.565  1.9646 -1.0227 -2.4078
  166SOPE   H8Y18723   3.206   4.713   9.533  0.1158 -0.8910 -0.3505
  166SOPE   C3918724   3.306   4.562   9.420 -0.5792 -0.7106  0.7847
  166SOPE   H9X18725   3.220   4.493   9.405 -0.8353 -0.6195  1.7891
  166SOPE   H9Y18726   3.402   4.507   9.427  0.4249  0.6101 -1.3570
  166SOPE  C31018727   3.300   4.657   9.298  0.0981 -0.1437 -0.7523
  166SOPE  H10X18728   3.399   4.701   9.277  1.5699 -2.4552  0.8266
  166SOPE  H10Y18729   3.224   4.736   9.313  0.0399 -0.5525  1.3986
  166SOPE  C31118730   3.263   4.578   9.172  0.0209 -0.6466  1.1236
  166SOPE  H11X18731   3.267   4.646   9.085  2.3220 -2.3034 -0.1526
  166SOPE  H11Y18732   3.158   4.541   9.167  0.4331 -1.7877  0.5444
  166SOPE  C31218733   3.346   4.454   9.146 -0.0402 -0.2460  0.3011
  166SOPE  H12X18734   3.305   4.372   9.209  1.9751 -0.8154  0.9461
  166SOPE  H12Y18735   3.449   4.476   9.181 -0.7590  3.0455  0.6858
  166SOPE  C31318736   3.355   4.399   9.004  0.2898 -0.6376 -0.0571
  166SOPE  H13X18737   3.410   4.466   8.934 -1.6822 -1.3405 -2.4306
  166SOPE  H13Y18738   3.250   4.390   8.969  0.3400 -0.1473 -0.3487
  166SOPE  C31418739   3.411   4.260   8.995 -0.7053 -0.1754  0.2070
  166SOPE  H14X18740   3.351   4.198   9.065 -3.5509  1.5285 -0.5640
  166SOPE  H14Y18741   3.517   4.244   9.026 -0.9795 -0.3934  1.0788
  166SOPE  C31518742   3.415   4.218   8.842 -0.3712 -0.2619 -0.8065
  166SOPE  H15X18743   3.449   4.304   8.781  0.0150  0.8460  0.8902
  166SOPE  H15Y18744   3.313   4.202   8.802 -1.3911 -0.1079  1.5638
  166SOPE  C31618745   3.499   4.091   8.827 -0.1214 -0.1104  0.2259
  166SOPE  H16X18746   3.473   4.020   8.907  0.1015 -1.4737 -0.8680
  166SOPE  H16Y18747   3.608   4.114   8.834  0.0908 -0.1360 -2.0119
  166SOPE  C31718748   3.485   4.030   8.685  0.5223  0.2380 -0.3385
  166SOPE  H17X18749   3.534   4.102   8.616  0.8686  1.2299  0.9034
  166SOPE  H17Y18750   3.378   4.009   8.660 -0.1551 -2.0391  3.5686
  166SOPE  C31818751   3.558   3.903   8.667 -0.6256  0.4468  0.6238
  166SOPE  H18X18752   3.665   3.928   8.684 -0.6555  2.7109 -1.8512
  166SOPE  H18Y18753   3.541   3.867   8.563 -0.2302  1.5840  0.1566
  166SOPE  H18Z18754   3.526   3.819   8.733  1.6873 -1.5187 -0.5633
  167SOPE     N18755   3.634   2.629   6.286 -0.5006  0.1274  0.0715
  167SOPE   HN118756   3.672   2.662   6.195  0.2943  2.9784  1.3240
  167SOPE   HN218757   3.534   2.655   6.285 -1.0789 -1.8807 -0.9218
  167SOPE   HN318758   3.695   2.677   6.356 -0.4481  1.4100 -0.8181
  167SOPE   C1218759   3.632   2.475   6.296 -1.0479  0.6403 -0.2551
  167SOPE  H12A18760   3.543   2.449   6.234 -0.8050  2.7324 -1.6220
  167SOPE  H12B18761   3.620   2.444   6.402 -1.7164  1.1975 -0.1573
  167SOPE   C1118762   3.765   2.415   6.243  0.7301  0.4819 -0.6218
  167SOPE  H11A18763   3.738   2.313   6.209 -0.0906  1.3078 -2.6166
  167SOPE  H11B18764   3.839   2.408   6.326  1.3938 -3.4167 -1.3423
  167SOPE     P18765   3.960   2.429   6.092  0.0523 -0.2247  0.4336
  167SOPE   O1318766   4.008   2.496   5.968 -0.0578 -0.2725  0.1431
  167SOPE   O1418767   3.953   2.280   6.070 -0.6287  0.2069  0.1913
  167SOPE   O1218768   3.816   2.484   6.127 -0.1076  0.0979 -0.1230
  167SOPE   O1118769   4.059   2.461   6.203  0.4050 -0.5212 -0.4178
  167SOPE    C118770   4.053   2.593   6.256 -0.5737 -0.3253 -0.4428
  167SOPE    HA18771   3.969   2.605   6.327  0.1491  0.7789  0.2654
  167SOPE    HB18772   4.050   2.675   6.181  1.1541  1.6303  1.4813
  167SOPE    C218773   4.179   2.623   6.348  0.3391 -0.2962  0.1996
  167SOPE    HS18774   4.270   2.619   6.284 -0.6713  0.1691 -1.3012
  167SOPE   O2118775   4.194   2.527   6.458  0.1974  0.5621 -0.0986
  167SOPE   C2118776   4.323   2.511   6.502 -0.8771  0.5326 -0.7541
  167SOPE   O2218777   4.416   2.567   6.461 -0.2540  0.0219  0.2860
  167SOPE   C2218778   4.329   2.418   6.624 -0.5617  0.0198 -0.1319
  167SOPE   H2R18779   4.364   2.320   6.586  0.3562 -0.7895  2.5721
  167SOPE   H2S18780   4.222   2.404   6.653 -1.1935  2.0462 -1.2719
  167SOPE    C318781   4.168   2.771   6.411  0.0128 -0.0428 -0.0828
  167SOPE    HX18782   4.140   2.847   6.336 -1.6388 -1.3267 -0.8452
  167SOPE    HY18783   4.272   2.794   6.442  0.4645 -0.8952 -0.8999
  167SOPE   O3118784   4.069   2.775   6.519 -0.3010 -0.2468  0.3431
  167SOPE   C3118785   4.119   2.812   6.634 -0.1517 -0.2301  0.2991
  167SOPE   O3218786   4.238   2.838   6.660 -0.5208 -0.2664  0.2921
  167SOPE   C3218787   4.013   2.813   6.743 -0.1702 -0.0317  0.5365
  167SOPE   H2X18788   3.927   2.746   6.724 -0.7970  0.4695  1.5197
  167SOPE   H2Y18789   3.970   2.915   6.747 -0.8640 -0.3344  0.7856
  167SOPE   C2318790   4.397   2.482   6.751 -0.2294  0.3578  0.0812
  167SOPE   H3R18791   4.389   2.593   6.745 -0.5414  0.2972 -0.6961
  167SOPE   H3S18792   4.506   2.460   6.759  0.1150  2.5267  2.8704
  167SOPE   C2418793   4.326   2.449   6.884  0.1336  0.3232 -0.0330
  167SOPE   H4R18794   4.218   2.463   6.863  0.6905  0.3333 -3.6719
  167SOPE   H4S18795   4.348   2.343   6.909 -0.5026 -0.7212 -3.3340
  167SOPE   C2518796   4.379   2.557   6.980  0.0623  0.1853 -0.0491
  167SOPE   H5R18797   4.488   2.533   6.979 -0.2342 -1.2815  0.5607
  167SOPE   H5S18798   4.364   2.658   6.935 -0.1528  0.3538  0.3981
  167SOPE   C2618799   4.315   2.569   7.122  0.0346  0.3363  0.1654
  167SOPE   H6R18800   4.206   2.588   7.113  0.0408 -0.1675 -1.2940
  167SOPE   H6S18801   4.322   2.473   7.179  0.4666  1.2485  1.7170
  167SOPE   C2718802   4.386   2.673   7.211 -0.4664 -0.7953  0.6107
  167SOPE   H7R18803   4.491   2.640   7.200 -0.4845 -0.3009 -1.4223
  167SOPE   H7S18804   4.378   2.779   7.179 -0.3517 -0.6873  0.9291
  167SOPE   C2818805   4.338   2.683   7.356 -0.4319  0.5427 -0.5388
  167SOPE   H8R18806   4.235   2.725   7.355 -0.7312 -0.0586 -3.3517
  167SOPE   H8S18807   4.315   2.580   7.390 -0.6501  1.0994  1.0579
  167SOPE   C2918808   4.436   2.747   7.452  0.2630 -0.4287 -0.5933
  167SOPE   H9118809   4.481   2.841   7.418 -1.5264  0.5016 -0.4566
  167SOPE  C21018810   4.460   2.697   7.576  0.3643 -0.5208  0.0340
  167SOPE  H10118811   4.545   2.747   7.626 -1.0708 -0.1340  2.2802
  167SOPE  C21118812   4.401   2.575   7.644  0.1164 -0.2994 -0.3281
  167SOPE  H11R18813   4.476   2.549   7.722 -1.6664 -0.7899  1.2950
  167SOPE  H11S18814   4.410   2.488   7.576 -0.2169  0.7962 -1.8391
  167SOPE  C21218815   4.259   2.600   7.713 -0.0939 -0.5502  0.3989
  167SOPE  H12R18816   4.212   2.503   7.741  0.1648 -0.7903  0.0121
  167SOPE  H12S18817   4.194   2.648   7.638 -0.4799  0.5362  1.4066
  167SOPE  C21318818   4.275   2.697   7.832 -0.7126 -0.4005  0.0355
  167SOPE  H13R18819   4.229   2.796   7.812  0.2207  0.5762  2.3380
  167SOPE  H13S18820   4.384   2.712   7.848 -1.0674  0.9733  1.4464
  167SOPE  C21418821   4.224   2.636   7.959 -0.0128  0.1380  0.3593
  167SOPE  H14R18822   4.240   2.527   7.952  1.9519  0.3757  0.4043
  167SOPE  H14S18823   4.114   2.648   7.972 -0.0234 -0.5582  0.9705
  167SOPE  C21518824   4.295   2.687   8.084 -0.0194  0.0502  0.1028
  167SOPE  H15R18825   4.242   2.636   8.167 -1.6690  1.0501 -0.2922
  167SOPE  H15S18826   4.266   2.793   8.102 -0.4536 -0.4071  2.3433
  167SOPE  C21618827   4.450   2.672   8.101  0.7317 -0.6191  0.3695
  167SOPE  H16R18828   4.510   2.722   8.023  1.4419  1.5767  2.2065
  167SOPE  H16S18829   4.470   2.564   8.084 -2.2388 -1.2813  0.5659
  167SOPE  C21718830   4.499   2.720   8.235 -0.3047  0.2598 -0.5492
  167SOPE  H17R18831   4.421   2.699   8.311 -2.6939  3.4323 -1.9150
  167SOPE  H17S18832   4.514   2.829   8.225 -1.8443  0.5283 -0.1523
  167SOPE  C21818833   4.629   2.644   8.280  0.1404 -0.7548 -0.1618
  167SOPE  H18R18834   4.605   2.537   8.296 -2.4972 -0.2567 -0.2602
  167SOPE  H18S18835   4.660   2.683   8.379  0.5738 -1.0310 -0.1874
  167SOPE  H18T18836   4.712   2.662   8.207  0.6004 -2.3304 -0.0579
  167SOPE   C3318837   4.076   2.771   6.883  0.2896  0.0101 -0.3724
  167SOPE   H3X18838   4.166   2.834   6.901 -1.1234  1.7451  0.8893
  167SOPE   H3Y18839   4.101   2.664   6.902  3.2068  0.8726  1.3385
  167SOPE   C3418840   3.974   2.812   6.994  0.5046  0.5084  0.5259
  167SOPE   H4X18841   3.884   2.747   6.992  1.4916 -0.8986 -1.9868
  167SOPE   H4Y18842   3.945   2.920   6.994 -0.9512  0.1618  1.5957
  167SOPE   C3518843   4.027   2.813   7.137 -0.1488 -0.1523 -0.3711
  167SOPE   H5X18844   4.103   2.894   7.141  0.6869 -0.9734  1.9823
  167SOPE   H5Y18845   4.057   2.709   7.161 -0.8594  0.0112  1.3839
  167SOPE   C3618846   3.909   2.852   7.232  0.0834 -0.0624  0.4029
  167SOPE   H6X18847   3.839   2.766   7.233 -0.3898  0.3234  1.2808
  167SOPE   H6Y18848   3.855   2.946   7.208  1.8927  0.6402 -1.1520
  167SOPE   C3718849   3.962   2.857   7.374  0.0058 -0.6106  0.1353
  167SOPE   H7X18850   4.031   2.943   7.364  1.3112 -1.7798 -1.3667
  167SOPE   H7Y18851   4.019   2.764   7.393 -0.8010 -1.6815 -2.3790
  167SOPE   C3818852   3.857   2.872   7.485 -0.2453 -0.0164  0.0913
  167SOPE   H8X18853   3.801   2.778   7.470  0.9026 -0.4300 -1.9530
  167SOPE   H8Y18854   3.784   2.956   7.488  0.6117  0.7193  1.3334
  167SOPE   C3918855   3.928   2.864   7.624 -0.2126 -0.1471  0.4742
  167SOPE   H9X18856   3.990   2.956   7.624 -0.1688 -0.1758  0.9507
  167SOPE   H9Y18857   3.996   2.777   7.617 -1.2972 -0.9128 -1.2542
  167SOPE  C31018858   3.831   2.861   7.737 -0.0509 -0.2829  0.5965
  167SOPE  H10X18859   3.815   2.753   7.759 -0.1710 -0.1296  1.2856
  167SOPE  H10Y18860   3.739   2.904   7.692  1.3820  0.3181 -1.9809
  167SOPE  C31118861   3.871   2.941   7.863  0.3940 -0.0634  0.6274
  167SOPE  H11X18862   3.864   3.049   7.840 -1.1750 -0.7900 -3.0248
  167SOPE  H11Y18863   3.969   2.906   7.900  0.6302 -1.9867 -1.5507
  167SOPE  C31218864   3.769   2.915   7.977 -0.2916 -0.3127  0.2682
  167SOPE  H12X18865   3.766   2.805   7.993 -2.0222 -0.3620 -0.1563
  167SOPE  H12Y18866   3.672   2.948   7.934  0.4142  0.1869 -1.0078
  167SOPE  C31318867   3.805   2.968   8.126  0.4124  0.3612  1.6554
  167SOPE  H13X18868   3.762   3.070   8.123 -0.4456  0.0406 -2.1477
  167SOPE  H13Y18869   3.915   2.972   8.144  0.8060  0.5364 -0.5143
  167SOPE  C31418870   3.741   2.882   8.239 -0.1089 -0.4087 -0.7364
  167SOPE  H14X18871   3.782   2.779   8.234 -1.0634 -0.7980 -0.7403
  167SOPE  H14Y18872   3.632   2.891   8.219 -0.4444 -2.4994 -0.0888
  167SOPE  C31518873   3.777   2.916   8.390  0.8457 -0.2378 -0.8135
  167SOPE  H15X18874   3.704   2.860   8.452  2.2737 -2.1224 -0.7517
  167SOPE  H15Y18875   3.760   3.025   8.406 -2.7151 -0.3049 -3.1837
  167SOPE  C31618876   3.926   2.896   8.428 -0.6415  0.3322 -1.1697
  167SOPE  H16X18877   3.985   2.972   8.372 -0.7047  0.0594 -1.6166
  167SOPE  H16Y18878   3.959   2.792   8.407 -0.8168  0.5280 -2.4995
  167SOPE  C31718879   3.954   2.901   8.584  0.2877  0.4653  0.1790
  167SOPE  H17X18880   3.916   2.998   8.623  1.7436  1.5853 -1.0262
  167SOPE  H17Y18881   4.065   2.904   8.592  0.5638 -0.6399 -2.1875
  167SOPE  C31818882   3.890   2.783   8.658  0.2311 -0.1426  0.0887
  167SOPE  H18X18883   3.931   2.689   8.616 -1.3536 -0.5011 -0.7619
  167SOPE  H18Y18884   3.781   2.775   8.637  0.1536  0.4611  0.2466
  167SOPE  H18Z18885   3.899   2.796   8.768 -2.5499 -2.2156  0.6771
  168SOPE     N18886   5.115   3.052   6.031  0.0927  0.2199 -0.6930
  168SOPE   HN118887   5.031   3.006   5.992 -1.1586  0.8518  1.1169
  168SOPE   HN218888   5.153   3.116   5.958  3.4260  2.1300  2.3968
  168SOPE   HN318889   5.189   2.979   6.043  1.0523  1.1593 -0.7238
  168SOPE   C1218890   5.091   3.131   6.159 -0.3939 -0.8418 -0.2428
  168SOPE  H12A18891   5.038   3.062   6.229  0.2047  1.5697  2.8242
  168SOPE  H12B18892   5.026   3.217   6.135 -0.3095  0.3456  3.1946
  168SOPE   C1118893   5.223   3.181   6.227 -0.8193 -0.4924  0.3271
  168SOPE  H11A18894   5.268   3.087   6.265  1.6266  0.8148  0.8826
  168SOPE  H11B18895   5.202   3.242   6.318  1.0601 -0.2371  0.6154
  168SOPE     P18896   5.310   3.405   6.107 -0.0674  0.0397 -0.4972
  168SOPE   O1318897   5.177   3.443   6.148 -0.2874 -0.1180 -0.4734
  168SOPE   O1418898   5.350   3.433   5.968 -0.0544  0.3153  0.0180
  168SOPE   O1218899   5.313   3.251   6.133  0.0187 -0.9560 -0.5769
  168SOPE   O1118900   5.414   3.478   6.207 -0.1998  0.7719 -0.2717
  168SOPE    C118901   5.374   3.578   6.304  0.8506 -0.5373  0.1906
  168SOPE    HA18902   5.304   3.538   6.380 -1.0122  2.0759 -0.0204
  168SOPE    HB18903   5.327   3.667   6.258 -0.5904 -0.2550  2.0909
  168SOPE    C218904   5.492   3.636   6.379  0.0466  0.3319 -0.9899
  168SOPE    HS18905   5.541   3.706   6.307 -0.6370 -2.3519 -4.2996
  168SOPE   O2118906   5.570   3.526   6.425 -0.0491 -0.7448 -0.3698
  168SOPE   C2118907   5.694   3.561   6.460  0.0985  0.0516  0.1631
  168SOPE   O2218908   5.747   3.665   6.441  0.0222  0.1341 -0.6337
  168SOPE   C2218909   5.773   3.445   6.524 -0.2213  0.5785 -0.0270
  168SOPE   H2R18910   5.871   3.454   6.471 -1.1183  0.0566 -1.8297
  168SOPE   H2S18911   5.741   3.344   6.490  1.0674 -0.2108  0.9775
  168SOPE    C318912   5.442   3.723   6.504  0.1234  0.8447  0.0457
  168SOPE    HX18913   5.363   3.787   6.459 -0.3665 -0.7797 -1.5284
  168SOPE    HY18914   5.525   3.790   6.532  0.2866  1.0725 -0.9617
  168SOPE   O3118915   5.397   3.631   6.610 -0.5004 -0.7311  0.1026
  168SOPE   C3118916   5.355   3.709   6.709 -0.3819  0.0735  0.1516
  168SOPE   O3218917   5.346   3.831   6.708 -0.2270  0.0116 -0.2796
  168SOPE   C3218918   5.290   3.617   6.813  0.1357  0.9108 -0.0609
  168SOPE   H2X18919   5.299   3.510   6.783  0.9895  0.6816  0.9600
  168SOPE   H2Y18920   5.182   3.642   6.816 -0.0055  0.2846  0.2072
  168SOPE   C2318921   5.795   3.461   6.677  0.3475  0.5983  0.4303
  168SOPE   H3R18922   5.821   3.566   6.704  1.5993  0.0916  1.2422
  168SOPE   H3S18923   5.883   3.403   6.710 -0.6207 -1.2106 -0.0719
  168SOPE   C2418924   5.663   3.417   6.744 -0.3474  1.0869 -0.1107
  168SOPE   H4R18925   5.571   3.464   6.704  0.1849  1.6080 -0.7677
  168SOPE   H4S18926   5.656   3.307   6.736 -0.1161  1.1292 -1.1279
  168SOPE   C2518927   5.684   3.435   6.892  0.0711  0.3695 -0.0136
  168SOPE   H5R18928   5.792   3.432   6.915  0.6824 -0.3988 -2.6128
  168SOPE   H5S18929   5.654   3.539   6.917  1.7051  0.4684  1.7188
  168SOPE   C2618930   5.593   3.345   6.971  1.3569  1.1842 -0.2622
  168SOPE   H6R18931   5.493   3.341   6.922  2.5164 -1.9730 -2.6521
  168SOPE   H6S18932   5.618   3.237   6.976  0.1397  0.8582 -0.8606
  168SOPE   C2718933   5.582   3.393   7.117  0.0131  0.8536 -0.2883
  168SOPE   H7R18934   5.556   3.500   7.100 -1.6549  0.3191 -1.4193
  168SOPE   H7S18935   5.483   3.356   7.152 -0.6340  0.1109 -2.6761
  168SOPE   C2818936   5.699   3.367   7.206  0.4012 -0.3652 -0.2860
  168SOPE   H8R18937   5.785   3.431   7.177 -1.2277  1.8200 -0.5195
  168SOPE   H8S18938   5.661   3.402   7.304  1.2278  0.2440 -0.1732
  168SOPE   C2918939   5.721   3.223   7.212  0.5267  0.8511  0.1901
  168SOPE   H9118940   5.772   3.175   7.128 -0.1714  0.7956 -0.2100
  168SOPE  C21018941   5.668   3.144   7.313  0.0762 -0.0742 -0.6839
  168SOPE  H10118942   5.680   3.035   7.304  0.8112 -0.2092  1.4275
  168SOPE  C21118943   5.583   3.191   7.431  0.6855  0.2747 -0.0907
  168SOPE  H11R18944   5.487   3.134   7.431  1.8078 -1.7316  1.0474
  168SOPE  H11S18945   5.551   3.297   7.424  1.2491  0.4052 -0.8407
  168SOPE  C21218946   5.658   3.184   7.569  0.2825 -0.4251  0.1069
  168SOPE  H12R18947   5.718   3.278   7.573  0.3073 -0.3772 -0.9045
  168SOPE  H12S18948   5.731   3.101   7.573 -0.0197 -0.7534 -0.8437
  168SOPE  C21318949   5.547   3.176   7.682  0.3265  0.0754  0.0200
  168SOPE  H13R18950   5.487   3.084   7.668  0.2774  0.5066 -3.9466
  168SOPE  H13S18951   5.476   3.261   7.667 -2.7868 -2.5712 -1.5518
  168SOPE  C21418952   5.616   3.180   7.817 -0.5486  0.2878 -0.1131
  168SOPE  H14R18953   5.666   3.275   7.844  0.7708 -0.4338  0.0806
  168SOPE  H14S18954   5.698   3.105   7.813 -0.6773  0.1771 -3.0938
  168SOPE  C21518955   5.517   3.127   7.925  0.1393  0.3235  0.4560
  168SOPE  H15R18956   5.466   3.032   7.898 -2.8159  1.3313  1.9428
  168SOPE  H15S18957   5.430   3.196   7.919  1.0924  1.4998 -0.1111
  168SOPE  C21618958   5.566   3.136   8.064  0.1585  0.2954  0.6401
  168SOPE  H16R18959   5.630   3.227   8.075  0.8422 -0.4258  3.1865
  168SOPE  H16S18960   5.628   3.049   8.094  0.2107 -0.1532 -0.7016
  168SOPE  C21718961   5.460   3.142   8.176 -0.2136  0.0679  0.0553
  168SOPE  H17R18962   5.414   3.242   8.164 -1.6817 -0.3531  1.8935
  168SOPE  H17S18963   5.507   3.143   8.276 -0.9777  1.4326  0.4255
  168SOPE  C21818964   5.346   3.043   8.150  0.5540 -0.2243 -0.0806
  168SOPE  H18R18965   5.392   2.942   8.144 -1.2380 -1.0078 -1.7722
  168SOPE  H18S18966   5.292   3.064   8.055  1.5409 -0.9783 -0.8223
  168SOPE  H18T18967   5.280   3.044   8.240  1.5612 -1.0488  0.6909
  168SOPE   C3318968   5.349   3.635   6.953 -0.3644  0.3503  0.1122
  168SOPE   H3X18969   5.348   3.744   6.975  1.6308  0.8829 -2.0220
  168SOPE   H3Y18970   5.458   3.619   6.950 -0.7187 -2.6989 -2.3309
  168SOPE   C3418971   5.271   3.560   7.055  0.4297  0.7131 -0.5386
  168SOPE   H4X18972   5.302   3.454   7.043  0.5826  0.6156  0.5357
  168SOPE   H4Y18973   5.164   3.572   7.027  0.2851  0.2590 -0.1921
  168SOPE   C3518974   5.289   3.612   7.200 -0.2787  0.8539  0.0713
  168SOPE   H5X18975   5.251   3.716   7.207 -0.7471  0.8068 -1.4091
  168SOPE   H5Y18976   5.396   3.612   7.227 -0.1991  0.3261 -0.2267
  168SOPE   C3618977   5.209   3.518   7.291 -0.7628  0.0545  1.3400
  168SOPE   H6X18978   5.234   3.413   7.267 -2.0324 -0.1491  0.8128
  168SOPE   H6Y18979   5.102   3.514   7.260 -0.2963  1.2899 -0.6144
  168SOPE   C3718980   5.217   3.548   7.441 -0.4388  0.4955  0.1649
  168SOPE   H7X18981   5.323   3.562   7.472 -1.0023  0.8257  2.0391
  168SOPE   H7Y18982   5.178   3.463   7.501 -0.1248 -1.1604 -1.8493
  168SOPE   C3818983   5.136   3.671   7.486 -0.3008  0.1082 -0.0634
  168SOPE   H8X18984   5.037   3.660   7.436 -1.7000 -2.7146  2.9536
  168SOPE   H8Y18985   5.184   3.758   7.437 -0.7873  1.0587  1.0992
  168SOPE   C3918986   5.129   3.680   7.638  0.3315  0.1026 -0.2711
  168SOPE   H9X18987   5.228   3.664   7.684 -0.5529  1.4046  2.2528
  168SOPE   H9Y18988   5.073   3.592   7.675 -0.0643  1.1099  1.6292
  168SOPE  C31018989   5.049   3.802   7.687  0.3928 -0.1255 -0.5010
  168SOPE  H10X18990   4.970   3.830   7.614  1.1578 -0.1340 -1.3429
  168SOPE  H10Y18991   5.105   3.897   7.688 -0.6057  0.4871 -0.6313
  168SOPE  C31118992   4.992   3.780   7.834 -0.1208 -0.1797  0.0536
  168SOPE  H11X18993   4.942   3.681   7.835  0.2654 -0.4042 -1.0305
  168SOPE  H11Y18994   4.915   3.858   7.853 -1.2935 -0.5981 -2.5451
  168SOPE  C31218995   5.103   3.788   7.935  0.3795  0.2202 -0.4497
  168SOPE  H12X18996   5.192   3.843   7.897  3.2242 -2.5716  1.6270
  168SOPE  H12Y18997   5.143   3.689   7.965  2.3634  0.2235 -2.7658
  168SOPE  C31318998   5.060   3.847   8.071  0.2932  0.3590  0.6906
  168SOPE  H13X18999   5.007   3.942   8.048 -0.4349 -0.2287 -0.1242
  168SOPE  H13Y19000   5.141   3.875   8.141 -0.8990  0.3310  2.1422
  168SOPE  C31419001   4.946   3.761   8.129  0.1878  0.1296 -0.2333
  168SOPE  H14X19002   4.982   3.656   8.138  0.7630  0.2252 -1.1734
  168SOPE  H14Y19003   4.855   3.760   8.065  0.3366 -0.7914 -0.4418
  168SOPE  C31519004   4.890   3.815   8.259 -0.7556 -0.5099 -1.0815
  168SOPE  H15X19005   4.806   3.759   8.307 -0.7265  0.6088  0.3374
  168SOPE  H15Y19006   4.834   3.909   8.239 -0.4354 -0.1853 -0.4721
  168SOPE  C31619007   4.996   3.829   8.375 -0.2898 -0.4961  0.7032
  168SOPE  H16X19008   4.944   3.897   8.446 -2.2131  0.4466 -1.4814
  168SOPE  H16Y19009   5.097   3.862   8.342  1.5775 -4.1571  2.0904
  168SOPE  C31719010   5.023   3.695   8.447  0.3336 -0.1350  0.3740
  168SOPE  H17X19011   4.928   3.647   8.479 -1.0920  2.1463 -0.2024
  168SOPE  H17Y19012   5.085   3.725   8.534 -1.6233  1.3311  1.3532
  168SOPE  C31819013   5.102   3.591   8.363  0.7729  0.0483 -0.4442
  168SOPE  H18X19014   5.137   3.518   8.438 -0.4064 -0.9340 -0.8175
  168SOPE  H18Y19015   5.189   3.630   8.306  0.9171  0.7050  0.2168
  168SOPE  H18Z19016   5.040   3.535   8.289 -0.7778  1.1476 -0.0325
  169SOPE     N19017   0.219   2.147   6.024  0.4431  0.1511  0.1145
  169SOPE   HN119018   0.215   2.209   5.940 -1.9599  0.5002  0.4240
  169SOPE   HN219019   0.261   2.053   6.010 -2.0098 -1.1319  0.9063
  169SOPE   HN319020   0.120   2.131   6.053  0.2195  0.8349 -0.2449
  169SOPE   C1219021   0.302   2.207   6.133  0.8618 -0.7294  0.0818
  169SOPE  H12A19022   0.333   2.127   6.203  0.7317 -1.3302 -0.5423
  169SOPE  H12B19023   0.226   2.268   6.187  1.1247 -0.4927  0.1869
  169SOPE   C1119024   0.422   2.293   6.083 -0.1394 -0.0014 -0.4054
  169SOPE  H11A19025   0.401   2.361   5.997 -0.9053  0.1247 -0.1275
  169SOPE  H11B19026   0.495   2.217   6.049  0.3485  0.8056 -1.2403
  169SOPE     P19027   0.447   2.495   6.236  0.0104  0.2718 -0.0834
  169SOPE   O1319028   0.420   2.582   6.123 -0.0712  0.3006 -0.2502
  169SOPE   O1419029   0.548   2.536   6.333 -0.5222 -0.1796  0.0641
  169SOPE   O1219030   0.476   2.351   6.195  0.2350 -0.4760 -0.1880
  169SOPE   O1119031   0.310   2.494   6.317 -0.0800  0.3094  0.0686
  169SOPE    C119032   0.300   2.411   6.433 -0.0729 -0.0242 -0.3232
  169SOPE    HA19033   0.396   2.413   6.489 -0.6281 -0.5185  0.6508
  169SOPE    HB19034   0.300   2.301   6.416  0.0383  0.0975 -1.1701
  169SOPE    C219035   0.199   2.457   6.538  0.0473  0.5927  0.3254
  169SOPE    HS19036   0.098   2.452   6.493  0.9446  1.4120 -1.8969
  169SOPE   O2119037   0.228   2.588   6.588 -0.2948 -0.3509  0.4559
  169SOPE   C2119038   0.130   2.651   6.643  0.7565 -0.4455  0.7226
  169SOPE   O2219039   0.013   2.604   6.640  0.2253  0.7749  0.1071
  169SOPE   C2219040   0.174   2.784   6.706  0.1216  0.0900  0.3237
  169SOPE   H2R19041   0.083   2.848   6.717  1.1204  1.2948  2.1844
  169SOPE   H2S19042   0.234   2.826   6.622 -1.0592 -0.9094 -1.0687
  169SOPE    C319043   0.188   2.352   6.651  0.0141 -0.1490 -0.4171
  169SOPE    HX19044   0.187   2.246   6.617  0.5820 -0.6176  0.9296
  169SOPE    HY19045   0.092   2.385   6.695  0.8674  0.8189  0.8195
  169SOPE   O3119046   0.293   2.375   6.754  0.1909  0.3964  0.2289
  169SOPE   C3119047   0.402   2.302   6.742 -0.4915  0.0397 -0.5440
  169SOPE   O3219048   0.416   2.207   6.663  0.4036 -0.2652  0.4058
  169SOPE   C3219049   0.504   2.366   6.833 -0.8975  0.4842 -0.3899
  169SOPE   H2X19050   0.471   2.467   6.867  2.0076  1.6554 -0.7315
  169SOPE   H2Y19051   0.601   2.365   6.779 -0.2938 -2.8819  0.5297
  169SOPE   C2319052   0.256   2.769   6.834  0.0739 -0.1384 -0.2062
  169SOPE   H3R19053   0.300   2.865   6.867 -1.6222  0.5915  0.0612
  169SOPE   H3S19054   0.331   2.688   6.824 -0.5168 -0.8566  0.8989
  169SOPE   C2419055   0.161   2.722   6.944 -0.2664 -0.2096 -0.0612
  169SOPE   H4R19056   0.083   2.794   6.975 -0.4534 -1.0662  1.5626
  169SOPE   H4S19057   0.113   2.633   6.897  1.1325  0.0037 -2.0560
  169SOPE   C2519058   0.231   2.681   7.073 -0.4123 -0.6650 -0.6583
  169SOPE   H5R19059   0.278   2.582   7.056 -0.5732 -0.7399 -0.6661
  169SOPE   H5S19060   0.306   2.752   7.112 -1.3137 -0.5336  0.9337
  169SOPE   C2619061   0.124   2.660   7.175 -0.1954  0.4560  0.0662
  169SOPE   H6R19062   0.104   2.751   7.236  2.1694  1.4457 -0.5252
  169SOPE   H6S19063   0.030   2.632   7.123  0.4529  0.4736 -1.1762
  169SOPE   C2719064   0.166   2.552   7.276  0.1382  0.5974  0.2962
  169SOPE   H7R19065   0.213   2.479   7.207  1.2408  1.8497 -0.3097
  169SOPE   H7S19066   0.243   2.598   7.341 -0.0050  4.2732 -1.8882
  169SOPE   C2819067   0.052   2.489   7.359 -0.4256  0.0245  0.5116
  169SOPE   H8R19068  -0.028   2.459   7.287 -2.7081 -0.5068  3.0799
  169SOPE   H8S19069   0.093   2.399   7.409  0.1710  0.5454  0.9617
  169SOPE   C2919070  -0.001   2.580   7.470  0.2026 -0.0617  0.3859
  169SOPE   H9119071  -0.040   2.673   7.426  2.2928  1.1591  0.9929
  169SOPE  C21019072  -0.015   2.564   7.604 -0.3848  0.2024 -0.4052
  169SOPE  H10119073  -0.044   2.646   7.671  1.2145  0.1945  0.3636
  169SOPE  C21119074   0.029   2.449   7.687  0.0299  0.1168 -0.2969
  169SOPE  H11R19075   0.045   2.478   7.793 -0.6500 -0.6968  0.0361
  169SOPE  H11S19076   0.131   2.419   7.654  0.7784  2.0477  0.0621
  169SOPE  C21219077  -0.052   2.322   7.672  0.4727  0.3554  0.2125
  169SOPE  H12R19078  -0.037   2.289   7.567 -2.4400 -1.3015  0.2022
  169SOPE  H12S19079  -0.159   2.350   7.684  0.6184  0.0716  2.5964
  169SOPE  C21319080  -0.029   2.202   7.771  0.6079 -0.2607  0.5444
  169SOPE  H13R19081   0.070   2.157   7.749  0.7368  0.4826 -0.4637
  169SOPE  H13S19082  -0.103   2.121   7.756 -0.4741  0.8114 -0.1168
  169SOPE  C21419083  -0.032   2.229   7.926 -0.4975 -0.4642  0.3832
  169SOPE  H14R19084  -0.110   2.308   7.939  0.7070  0.8301 -0.0023
  169SOPE  H14S19085   0.064   2.271   7.961  0.5690 -2.0878 -0.4452
  169SOPE  C21519086  -0.069   2.110   8.019 -0.1241  0.1552 -0.5602
  169SOPE  H15R19087  -0.036   2.018   7.967  0.0679  0.1692 -0.4652
  169SOPE  H15S19088  -0.180   2.105   8.022 -0.1778  1.3669  0.2251
  169SOPE  C21619089  -0.005   2.129   8.154  0.8130 -0.1697 -0.3161
  169SOPE  H16R19090  -0.040   2.222   8.203 -1.2610 -1.2424  0.3809
  169SOPE  H16S19091   0.106   2.127   8.147  0.7459 -1.7068 -1.4372
  169SOPE  C21719092  -0.046   2.009   8.242  0.7542  0.8308  0.1143
  169SOPE  H17R19093   0.011   2.026   8.336  1.6877 -2.9509  0.3697
  169SOPE  H17S19094  -0.005   1.915   8.200 -0.2773  0.9527 -1.1963
  169SOPE  C21819095  -0.194   1.998   8.269 -0.4647 -0.1920  0.4859
  169SOPE  H18R19096  -0.233   2.097   8.301  0.0827 -0.5590  2.4644
  169SOPE  H18S19097  -0.215   1.916   8.341 -1.5530 -0.6522 -0.3327
  169SOPE  H18T19098  -0.263   1.971   8.187 -1.4429 -3.7552  2.2705
  169SOPE   C3319099   0.544   2.273   6.956  0.6328 -0.7568  0.0319
  169SOPE   H3X19100   0.647   2.300   6.987  0.9948 -0.9011 -1.0253
  169SOPE   H3Y19101   0.547   2.166   6.930  1.4660 -0.5573 -0.7183
  169SOPE   C3419102   0.438   2.302   7.070  0.0411 -0.2534  0.7191
  169SOPE   H4X19103   0.337   2.273   7.034 -0.1099  1.0919 -0.0063
  169SOPE   H4Y19104   0.452   2.411   7.084  0.0136 -0.2200  0.4798
  169SOPE   C3519105   0.474   2.233   7.199  0.3593 -0.5383 -0.5320
  169SOPE   H5X19106   0.582   2.241   7.225  0.1158  0.3932  0.2338
  169SOPE   H5Y19107   0.452   2.126   7.181  2.1898 -0.4853 -3.8892
  169SOPE   C3619108   0.384   2.275   7.320  0.2108  0.3337 -0.0043
  169SOPE   H6X19109   0.279   2.262   7.283 -0.1637 -0.3126  1.2182
  169SOPE   H6Y19110   0.402   2.383   7.340  0.8351  0.3919 -0.8330
  169SOPE   C3719111   0.433   2.192   7.443 -0.1173  0.0420  0.2322
  169SOPE   H7X19112   0.543   2.186   7.445 -0.1273 -0.1835  0.1635
  169SOPE   H7Y19113   0.401   2.086   7.429  1.2585 -0.5307  1.2628
  169SOPE   C3819114   0.401   2.246   7.584  0.0321  0.3774 -0.4368
  169SOPE   H8X19115   0.451   2.345   7.587 -1.6796  1.2776 -0.1106
  169SOPE   H8Y19116   0.291   2.263   7.587  0.1127  0.9338 -0.5356
  169SOPE   C3919117   0.450   2.161   7.697  0.1840  0.0164 -0.1093
  169SOPE   H9X19118   0.561   2.163   7.697  0.2080 -0.7592  0.2481
  169SOPE   H9Y19119   0.424   2.054   7.682 -3.7403  0.9227 -0.7770
  169SOPE  C31019120   0.406   2.211   7.837 -0.4692  0.4761  0.6608
  169SOPE  H10X19121   0.419   2.119   7.897 -2.4728  0.3246  0.9459
  169SOPE  H10Y19122   0.295   2.216   7.828 -0.7864 -2.5378  1.7747
  169SOPE  C31119123   0.450   2.343   7.898 -0.6789 -0.4081 -0.3751
  169SOPE  H11X19124   0.397   2.417   7.834 -0.4789  0.0246 -0.0462
  169SOPE  H11Y19125   0.558   2.361   7.885 -1.1915  2.7566 -0.9141
  169SOPE  C31219126   0.394   2.368   8.044 -0.3541 -0.2642  0.3402
  169SOPE  H12X19127   0.458   2.308   8.111  1.5882  0.7906 -0.4836
  169SOPE  H12Y19128   0.288   2.336   8.052 -0.1222 -1.6870 -1.6130
  169SOPE  C31319129   0.408   2.516   8.089 -0.3325  0.5185 -0.4827
  169SOPE  H13X19130   0.511   2.551   8.067  0.1085 -0.9285 -0.8857
  169SOPE  H13Y19131   0.403   2.518   8.200 -1.1173  0.9133 -0.5230
  169SOPE  C31419132   0.297   2.607   8.023  0.4418 -0.2660 -0.2141
  169SOPE  H14X19133   0.300   2.601   7.912 -1.0542  1.8884 -0.4224
  169SOPE  H14Y19134   0.316   2.706   8.068 -0.6758 -0.8250  1.5951
  169SOPE  C31519135   0.157   2.557   8.059  0.5125 -0.1473 -0.4296
  169SOPE  H15X19136   0.163   2.536   8.168 -0.9070 -0.7616 -0.4508
  169SOPE  H15Y19137   0.154   2.469   7.991  0.7136  1.6318 -2.8740
  169SOPE  C31619138   0.035   2.648   8.024 -0.1756  0.7511  0.2381
  169SOPE  H16X19139   0.046   2.667   7.915  3.8647  0.7333  0.4842
  169SOPE  H16Y19140   0.049   2.746   8.075  0.6337 -0.2188  1.9481
  169SOPE  C31719141  -0.101   2.596   8.067  0.5998 -0.0509 -0.3091
  169SOPE  H17X19142  -0.123   2.537   7.976  0.3446 -2.9264  1.4917
  169SOPE  H17Y19143  -0.185   2.669   8.069 -0.4608 -1.0443 -3.3376
  169SOPE  C31819144  -0.107   2.510   8.201 -0.2520  0.4308  0.0017
  169SOPE  H18X19145  -0.204   2.459   8.221 -0.0256 -0.6893 -1.5438
  169SOPE  H18Y19146  -0.105   2.587   8.281 -3.1462  1.4715 -0.7904
  169SOPE  H18Z19147  -0.015   2.450   8.220  0.6096  0.7860 -2.5942
  170SOPE     N19148   6.474   5.915   6.424  0.5379 -0.1627 -0.9549
  170SOPE   HN119149   6.493   5.821   6.465 -0.1481 -0.8245 -2.0963
  170SOPE   HN219150   6.545   5.967   6.479 -0.7629  1.0742 -0.3826
  170SOPE   HN319151   6.378   5.949   6.447  1.5927  2.3648  0.0409
  170SOPE   C1219152   6.474   5.937   6.274  0.3360 -0.4590 -0.5593
  170SOPE  H12A19153   6.422   5.860   6.212 -0.1690 -1.1148  0.6471
  170SOPE  H12B19154   6.579   5.941   6.239  0.4730  1.4402  0.0087
  170SOPE   C1119155   6.411   6.078   6.250 -0.2278 -0.0026 -0.1850
  170SOPE  H11A19156   6.303   6.068   6.274 -0.1835 -2.2050 -0.7737
  170SOPE  H11B19157   6.420   6.111   6.144 -0.0632 -2.3763 -0.9530
  170SOPE     P19158   6.580   6.280   6.293 -0.3413  0.0642  0.0618
  170SOPE   O1319159   6.528   6.406   6.240  0.9223 -0.4398  0.4801
  170SOPE   O1419160   6.680   6.208   6.208 -0.1016 -0.1054  1.0729
  170SOPE   O1219161   6.462   6.178   6.333 -0.1897 -0.0286 -0.2957
  170SOPE   O1119162   6.653   6.319   6.428 -0.4503  0.2539  0.1266
  170SOPE    C119163   6.775   6.394   6.431  0.9702  0.0180 -0.4044
  170SOPE    HA19164   6.779   6.463   6.343 -2.5218  0.4346 -0.3951
  170SOPE    HB19165   6.855   6.319   6.445 -0.0487 -0.9022  0.7959
  170SOPE    C219166   6.775   6.487   6.554  0.8641 -0.6474 -0.1495
  170SOPE    HS19167   6.863   6.555   6.553 -0.1424  0.7416  0.7961
  170SOPE   O2119168   6.771   6.412   6.673  0.5549 -0.2707  0.4683
  170SOPE   C2119169   6.884   6.366   6.726  0.0453 -0.0999  0.1258
  170SOPE   O2219170   6.996   6.374   6.676 -0.0619  0.2827  0.0263
  170SOPE   C2219171   6.855   6.285   6.852  0.6642 -0.2922 -0.2070
  170SOPE   H2R19172   6.770   6.219   6.826  0.1635  0.6145 -0.9264
  170SOPE   H2S19173   6.814   6.345   6.936 -0.0650 -3.5792  1.9528
  170SOPE    C319174   6.656   6.585   6.550 -0.4867  0.2265  0.2841
  170SOPE    HX19175   6.571   6.518   6.574 -1.1959  0.7815 -0.6217
  170SOPE    HY19176   6.658   6.617   6.444 -1.5777 -0.5579  0.0199
  170SOPE   O3119177   6.659   6.702   6.634  0.1194  0.4068  0.3396
  170SOPE   C3119178   6.569   6.800   6.613 -0.3723 -0.4070  0.0749
  170SOPE   O3219179   6.474   6.795   6.533 -0.3345 -0.4304  0.2353
  170SOPE   C3219180   6.602   6.906   6.720  0.2511 -0.2444  0.8420
  170SOPE   H2X19181   6.679   6.970   6.670 -0.3482  0.0729  0.3003
  170SOPE   H2Y19182   6.635   6.852   6.811 -0.7776 -0.1459  1.2904
  170SOPE   C2319183   6.981   6.211   6.905  0.1807  0.4362 -0.5344
  170SOPE   H3R19184   6.959   6.178   7.009 -1.3359  2.8065 -0.0315
  170SOPE   H3S19185   7.067   6.280   6.908 -0.1362  0.8786 -1.4623
  170SOPE   C2419186   7.005   6.082   6.828 -0.1144 -0.4302 -0.5439
  170SOPE   H4R19187   6.999   6.099   6.718  0.3750  0.3864 -0.4509
  170SOPE   H4S19188   7.113   6.061   6.844  0.2277  0.9276 -0.9951
  170SOPE   C2519189   6.922   5.962   6.882 -0.1871 -0.0417 -0.7381
  170SOPE   H5R19190   6.904   5.980   6.990  0.0495  1.5710 -0.9491
  170SOPE   H5S19191   6.818   5.967   6.843  0.6705  0.8103 -3.1414
  170SOPE   C2619192   6.985   5.831   6.851  0.0718  0.4958 -0.3672
  170SOPE   H6R19193   7.013   5.836   6.743  2.1106  0.1425  0.0908
  170SOPE   H6S19194   7.088   5.827   6.893  0.1185  0.6779 -0.4612
  170SOPE   C2719195   6.903   5.710   6.874 -0.4830  0.6775  0.4326
  170SOPE   H7R19196   6.801   5.738   6.839  0.1428  0.7303 -1.4955
  170SOPE   H7S19197   6.936   5.622   6.815 -1.7460  0.7997 -0.5049
  170SOPE   C2819198   6.908   5.668   7.016 -0.2221  0.1994 -0.2769
  170SOPE   H8R19199   7.006   5.631   7.053 -0.3164 -1.4763 -1.5538
  170SOPE   H8S19200   6.895   5.762   7.074 -1.7889  0.3538 -0.8261
  170SOPE   C2919201   6.796   5.580   7.050  0.4136  0.3023  0.2397
  170SOPE   H9119202   6.780   5.517   6.961 -0.6950 -1.5207  1.6474
  170SOPE  C21019203   6.716   5.580   7.161 -0.0799 -0.2138  0.0341
  170SOPE  H10119204   6.636   5.505   7.169 -1.0973  1.0157  2.3762
  170SOPE  C21119205   6.731   5.671   7.275  0.0165 -0.0715 -0.4975
  170SOPE  H11R19206   6.645   5.740   7.285 -0.3811 -0.8796  2.5238
  170SOPE  H11S19207   6.824   5.732   7.278  0.7143 -1.1336  0.1000
  170SOPE  C21219208   6.733   5.593   7.408 -0.4828  0.2773  0.1884
  170SOPE  H12R19209   6.837   5.560   7.425 -0.8284 -1.5638 -1.0095
  170SOPE  H12S19210   6.664   5.506   7.408 -0.9703  0.6335  1.5934
  170SOPE  C21319211   6.695   5.677   7.531  0.3187 -0.5733  0.2843
  170SOPE  H13R19212   6.588   5.707   7.527 -0.0166 -1.8250 -0.6385
  170SOPE  H13S19213   6.748   5.773   7.548 -0.3886 -0.4481  1.9422
  170SOPE  C21419214   6.703   5.594   7.656 -0.2707  0.2082  0.1228
  170SOPE  H14R19215   6.810   5.581   7.683  0.2380  1.2376 -1.2941
  170SOPE  H14S19216   6.665   5.492   7.632  2.0555 -0.7557  0.3192
  170SOPE  C21519217   6.626   5.634   7.790 -0.7591  0.1624  1.1039
  170SOPE  H15R19218   6.632   5.549   7.861 -0.4228  2.0458  3.4474
  170SOPE  H15S19219   6.523   5.666   7.766 -0.1293  1.5387  0.1520
  170SOPE  C21619220   6.696   5.741   7.864  0.0152  0.1414 -1.0711
  170SOPE  H16R19221   6.725   5.828   7.800  1.3901 -0.3465 -1.1455
  170SOPE  H16S19222   6.801   5.722   7.895 -0.2779  1.4948  1.0034
  170SOPE  C21719223   6.608   5.789   7.981  0.0713  0.3197  0.8198
  170SOPE  H17R19224   6.573   5.699   8.037 -1.1950  0.9136  1.0178
  170SOPE  H17S19225   6.522   5.848   7.941 -0.3807 -2.7023 -3.3353
  170SOPE  C21819226   6.682   5.890   8.066 -0.5953 -0.1003 -0.1207
  170SOPE  H18R19227   6.636   5.902   8.166  1.4453  1.1159  0.7223
  170SOPE  H18S19228   6.669   5.997   8.038  2.4473  0.7975  1.4484
  170SOPE  H18T19229   6.792   5.883   8.079 -0.3347  0.4557 -1.7641
  170SOPE   C3319230   6.485   6.993   6.762 -0.2292  0.0441 -0.5213
  170SOPE   H3X19231   6.399   6.922   6.760  1.3501 -1.9704 -0.8538
  170SOPE   H3Y19232   6.462   7.072   6.688 -1.3845  0.9174  0.7408
  170SOPE   C3419233   6.506   7.056   6.898 -0.5972 -1.5332  0.0196
  170SOPE   H4X19234   6.513   6.975   6.974 -0.4506 -1.4188  0.1274
  170SOPE   H4Y19235   6.427   7.131   6.921 -0.4677 -1.0677 -0.9785
  170SOPE   C3519236   6.640   7.133   6.910 -0.1430 -0.1803 -0.3743
  170SOPE   H5X19237   6.647   7.203   6.824 -4.3695 -1.2964 -1.8699
  170SOPE   H5Y19238   6.725   7.062   6.915  0.9866  1.0297 -1.4899
  170SOPE   C3619239   6.642   7.233   7.031 -0.5580  1.1330  0.1242
  170SOPE   H6X19240   6.564   7.312   7.027 -0.1536  1.5735  0.6590
  170SOPE   H6Y19241   6.737   7.290   7.039  0.4267  0.0278 -2.6195
  170SOPE   C3719242   6.632   7.154   7.166 -0.3742  0.6038 -0.6950
  170SOPE   H7X19243   6.716   7.081   7.167 -0.8487  0.0043 -1.8985
  170SOPE   H7Y19244   6.533   7.104   7.162 -1.4110  2.4077  1.0225
  170SOPE   C3819245   6.639   7.250   7.290 -0.3360  0.0465 -0.3967
  170SOPE   H8X19246   6.567   7.334   7.285  0.7347  1.1566  1.4582
  170SOPE   H8Y19247   6.745   7.283   7.280  0.2960 -1.4524  0.9812
  170SOPE   C3919248   6.632   7.176   7.425 -1.3057 -0.8943  0.4781
  170SOPE   H9X19249   6.710   7.098   7.436 -1.5065 -1.1998 -0.2000
  170SOPE   H9Y19250   6.532   7.128   7.422 -2.5541  1.4996  0.8372
  170SOPE  C31019251   6.653   7.266   7.546 -0.5472 -0.2260 -0.8991
  170SOPE  H10X19252   6.570   7.340   7.551 -0.9412 -0.7370  1.3432
  170SOPE  H10Y19253   6.751   7.319   7.535 -1.0918  0.8623 -0.6930
  170SOPE  C31119254   6.667   7.199   7.683  0.0006 -0.7917  0.4248
  170SOPE  H11X19255   6.704   7.283   7.745 -0.7160 -0.6302  0.6447
  170SOPE  H11Y19256   6.742   7.118   7.674  1.4826  0.6800 -1.2277
  170SOPE  C31219257   6.536   7.142   7.739  0.4514 -0.2013  0.2826
  170SOPE  H12X19258   6.512   7.050   7.681 -1.2304 -0.4363  1.3133
  170SOPE  H12Y19259   6.457   7.216   7.717  0.6523  0.3182  1.2757
  170SOPE  C31319260   6.544   7.117   7.884 -0.1552  0.0899  0.0918
  170SOPE  H13X19261   6.542   7.210   7.944  2.6969  3.1029 -3.9486
  170SOPE  H13Y19262   6.633   7.056   7.912 -1.3673 -0.8742  2.0821
  170SOPE  C31419263   6.416   7.029   7.922 -0.4894  0.3608  0.1314
  170SOPE  H14X19264   6.417   6.949   7.844  3.3533  0.4450 -0.0828
  170SOPE  H14Y19265   6.324   7.091   7.914 -0.4345  0.5068  0.6300
  170SOPE  C31519266   6.439   6.977   8.062 -0.5338 -0.4670 -0.6743
  170SOPE  H15X19267   6.446   7.058   8.138  0.5458  2.0058 -3.2320
  170SOPE  H15Y19268   6.529   6.912   8.063  0.2214  0.5573  0.3165
  170SOPE  C31619269   6.332   6.879   8.120  0.0588 -0.0417 -0.1348
  170SOPE  H16X19270   6.235   6.932   8.108 -0.4698 -1.3074 -1.8381
  170SOPE  H16Y19271   6.340   6.843   8.225  0.7007 -0.5546 -0.3486
  170SOPE  C31719272   6.324   6.747   8.038 -0.2349  0.0301 -0.4838
  170SOPE  H17X19273   6.418   6.692   8.060  0.0512  1.1999  1.5549
  170SOPE  H17Y19274   6.320   6.772   7.930 -2.8683 -1.1605 -0.7511
  170SOPE  C31819275   6.211   6.651   8.089 -0.4529 -0.3714 -0.4135
  170SOPE  H18X19276   6.226   6.556   8.033 -1.7172 -0.5172 -0.5296
  170SOPE  H18Y19277   6.117   6.707   8.070  1.1214  2.3724 -0.8288
  170SOPE  H18Z19278   6.229   6.638   8.198 -0.1650 -1.1838 -0.5513
  171SOPE     N19279   2.412   3.008   6.449 -0.0318 -0.1290  0.0891
  171SOPE   HN119280   2.391   3.030   6.349  1.5868  0.8293 -0.0832
  171SOPE   HN219281   2.487   3.073   6.479  3.6861 -4.4691  1.3448
  171SOPE   HN319282   2.463   2.917   6.446  0.9310  0.3956 -0.0475
  171SOPE   C1219283   2.283   3.009   6.535 -0.3944  0.2081 -0.2910
  171SOPE  H12A19284   2.237   3.108   6.518 -1.3775 -0.0435  0.7980
  171SOPE  H12B19285   2.311   2.997   6.642  0.8760  1.3250 -0.4724
  171SOPE   C1119286   2.198   2.893   6.487  0.4276  0.6446  0.3044
  171SOPE  H11A19287   2.095   2.888   6.527 -0.5884 -2.4166 -2.2582
  171SOPE  H11B19288   2.245   2.799   6.524 -0.3774  0.4486  0.8427
  171SOPE     P19289   2.124   2.783   6.260 -0.3620  0.2783 -0.3578
  171SOPE   O1319290   2.226   2.684   6.223  0.0232 -0.0301 -0.1292
  171SOPE   O1419291   2.063   2.843   6.139  0.2619  0.1251 -0.1560
  171SOPE   O1219292   2.178   2.903   6.345  0.0388  0.4483 -0.1958
  171SOPE   O1119293   2.009   2.726   6.352  0.1352  0.5329 -0.2503
  171SOPE    C119294   1.887   2.803   6.377  0.0273  0.2428  0.2137
  171SOPE    HA19295   1.819   2.813   6.290 -0.4569  2.4475  0.7649
  171SOPE    HB19296   1.915   2.907   6.404  1.3133  0.0969 -0.4842
  171SOPE    C219297   1.807   2.751   6.503 -0.4057  0.4212 -0.5366
  171SOPE    HS19298   1.729   2.827   6.527  0.1405  0.2259  2.2293
  171SOPE   O2119299   1.905   2.746   6.604 -0.2289 -0.0677  0.2601
  171SOPE   C2119300   1.878   2.793   6.727  0.1694 -0.4405 -0.2885
  171SOPE   O2219301   1.771   2.836   6.770 -0.2412 -0.4546 -0.1021
  171SOPE   C2219302   1.999   2.784   6.817  0.5870 -0.6400 -0.0803
  171SOPE   H2R19303   1.988   2.867   6.890  0.5594  0.3819 -1.2090
  171SOPE   H2S19304   2.088   2.811   6.756 -0.9283  2.0094 -1.3131
  171SOPE    C319305   1.745   2.609   6.477 -0.3698 -0.7938 -0.2314
  171SOPE    HX19306   1.832   2.553   6.434  0.0125  0.0531 -0.5873
  171SOPE    HY19307   1.668   2.611   6.396  0.6142  1.2338 -1.1974
  171SOPE   O3119308   1.706   2.546   6.601  0.5354 -0.8298  0.3951
  171SOPE   C3119309   1.584   2.582   6.647  0.1419 -0.2411  0.3101
  171SOPE   O3219310   1.498   2.642   6.582 -0.4750 -0.1163 -0.4511
  171SOPE   C3219311   1.578   2.546   6.794 -0.5202  0.1457  0.5551
  171SOPE   H2X19312   1.632   2.633   6.836 -0.6091  1.0315 -1.0937
  171SOPE   H2Y19313   1.635   2.454   6.819  0.6104  0.5929 -0.2937
  171SOPE   C2319314   2.013   2.650   6.896  0.4193 -0.3210 -0.2487
  171SOPE   H3R19315   2.122   2.632   6.909  0.6271  0.9456 -0.1342
  171SOPE   H3S19316   1.968   2.567   6.836  0.1882 -0.8631  0.6502
  171SOPE   C2419317   1.940   2.679   7.023 -0.3484  0.3561 -0.7308
  171SOPE   H4R19318   1.865   2.761   7.021 -1.1867 -0.1661  2.8189
  171SOPE   H4S19319   1.903   2.579   7.055  0.6713  0.1570 -0.1246
  171SOPE   C2519320   2.025   2.724   7.141 -0.6856  0.4592 -0.2078
  171SOPE   H5R19321   2.108   2.650   7.153 -1.2373 -0.0514  0.5192
  171SOPE   H5S19322   2.074   2.820   7.115 -1.1112  1.0025  0.9644
  171SOPE   C2619323   1.939   2.750   7.265  0.2006  0.0728 -0.0984
  171SOPE   H6R19324   1.863   2.830   7.250 -0.1424 -0.1908  0.1971
  171SOPE   H6S19325   1.880   2.657   7.279 -1.2786  0.9598 -0.2008
  171SOPE   C2719326   2.027   2.780   7.385 -0.3229  0.7272  0.1517
  171SOPE   H7R19327   2.091   2.690   7.395  0.4673  1.3268  0.5651
  171SOPE   H7S19328   2.088   2.871   7.367 -2.1501  2.1153  0.6580
  171SOPE   C2819329   1.955   2.794   7.523  0.8142  0.3251 -0.6196
  171SOPE   H8R19330   1.895   2.887   7.519 -0.3343 -0.4226 -1.3773
  171SOPE   H8S19331   1.880   2.712   7.531  2.1600 -1.0433 -1.2538
  171SOPE   C2919332   2.054   2.809   7.637  0.3829  0.1185  0.0980
  171SOPE   H9119333   2.095   2.910   7.645  0.5143 -0.0154  1.3089
  171SOPE  C21019334   2.078   2.726   7.739 -0.8241  0.0187  0.3622
  171SOPE  H10119335   2.146   2.747   7.823 -2.8198  0.2577  2.0014
  171SOPE  C21119336   2.013   2.591   7.753 -0.4959  0.0049 -0.0831
  171SOPE  H11R19337   2.090   2.513   7.771 -0.9831 -0.3618  0.4413
  171SOPE  H11S19338   1.970   2.560   7.655  0.8788  0.4616 -0.8594
  171SOPE  C21219339   1.898   2.570   7.860 -0.2258 -0.2619 -0.2674
  171SOPE  H12R19340   1.886   2.461   7.879 -0.8819  0.1527  1.9725
  171SOPE  H12S19341   1.807   2.627   7.831  0.3848  1.0800  0.3974
  171SOPE  C21319342   1.925   2.632   8.002 -0.3256  0.4530 -0.0112
  171SOPE  H13R19343   1.842   2.597   8.068  1.3116 -0.6633  1.5952
  171SOPE  H13S19344   1.927   2.742   7.992 -0.1020  0.6804  2.0142
  171SOPE  C21419345   2.045   2.580   8.084  0.2566 -0.0654 -0.0714
  171SOPE  H14R19346   2.057   2.635   8.180 -2.8487 -0.3392  0.5777
  171SOPE  H14S19347   2.138   2.605   8.027  0.5564  0.6593  0.7234
  171SOPE  C21519348   2.048   2.433   8.116  1.1505 -0.0659  0.3437
  171SOPE  H15R19349   2.017   2.378   8.024  1.5581 -1.1004  0.8080
  171SOPE  H15S19350   1.959   2.408   8.178  0.5627  1.2986  0.0835
  171SOPE  C21619351   2.169   2.376   8.178 -0.3932  0.2288 -0.7039
  171SOPE  H16R19352   2.258   2.406   8.118 -1.2137  2.7017 -0.7910
  171SOPE  H16S19353   2.162   2.266   8.188  0.9052  0.0693 -1.2335
  171SOPE  C21719354   2.199   2.432   8.315  0.3585  0.4899 -0.6495
  171SOPE  H17R19355   2.107   2.417   8.376 -0.0688 -0.2720 -1.4533
  171SOPE  H17S19356   2.206   2.542   8.309  0.5997  0.5341  0.3325
  171SOPE  C21819357   2.331   2.384   8.381  0.0429 -0.1088 -0.6547
  171SOPE  H18R19358   2.353   2.436   8.477  1.9397  1.7477 -1.9836
  171SOPE  H18S19359   2.416   2.397   8.311  1.3819 -0.7905  0.7976
  171SOPE  H18T19360   2.323   2.274   8.394 -0.5272 -0.2942 -2.3291
  171SOPE   C3319361   1.436   2.555   6.866  0.3578 -0.1403  0.0129
  171SOPE   H3X19362   1.383   2.460   6.847 -1.7420  1.0664 -0.4726
  171SOPE   H3Y19363   1.373   2.629   6.812 -1.5206 -1.8169 -0.1901
  171SOPE   C3419364   1.449   2.577   7.019  0.1441  0.5712 -0.2557
  171SOPE   H4X19365   1.349   2.562   7.066  0.0629  0.8577 -0.3382
  171SOPE   H4Y19366   1.471   2.684   7.036  1.1381  0.2260  0.7122
  171SOPE   C3519367   1.551   2.481   7.093  0.0883  0.5156 -0.0715
  171SOPE   H5X19368   1.643   2.500   7.034 -0.1870 -1.0405 -1.0733
  171SOPE   H5Y19369   1.528   2.374   7.075 -1.4016  0.7325  0.3686
  171SOPE   C3619370   1.565   2.506   7.242  0.0485  0.2032 -0.4815
  171SOPE   H6X19371   1.468   2.472   7.285  1.8671 -2.2004  2.1075
  171SOPE   H6Y19372   1.571   2.612   7.277 -0.2799 -0.9389  3.6076
  171SOPE   C3719373   1.676   2.432   7.305  0.0816 -0.4513  0.1627
  171SOPE   H7X19374   1.779   2.453   7.268  0.4029 -3.0558 -0.6121
  171SOPE   H7Y19375   1.645   2.327   7.288  1.3431 -0.8682  0.3294
  171SOPE   C3819376   1.687   2.443   7.461  0.5545  0.5104  0.8203
  171SOPE   H8X19377   1.641   2.541   7.483  1.3575  1.4555 -1.4244
  171SOPE   H8Y19378   1.794   2.443   7.491  0.6988 -2.8330  0.6616
  171SOPE   C3919379   1.622   2.329   7.547  0.4207  0.1495  0.1676
  171SOPE   H9X19380   1.641   2.230   7.500 -4.5382 -0.0306 -2.0791
  171SOPE   H9Y19381   1.512   2.346   7.547  0.0550 -1.9428 -0.0189
  171SOPE  C31019382   1.676   2.329   7.695  0.4684  0.3871 -0.1776
  171SOPE  H10X19383   1.671   2.433   7.735 -2.8703 -0.1992  1.2618
  171SOPE  H10Y19384   1.780   2.291   7.704  0.8414  1.3032 -0.4692
  171SOPE  C31119385   1.576   2.252   7.785 -0.6625 -0.3686  0.4708
  171SOPE  H11X19386   1.584   2.147   7.751  0.8053  0.4651 -2.1380
  171SOPE  H11Y19387   1.480   2.296   7.749  0.3130  1.9271  0.4912
  171SOPE  C31219388   1.588   2.282   7.938 -0.7983  0.2882 -0.5347
  171SOPE  H12X19389   1.496   2.257   7.996  0.0098 -0.5108  0.4421
  171SOPE  H12Y19390   1.613   2.389   7.953 -0.5808  0.0394  1.1113
  171SOPE  C31319391   1.702   2.193   8.000 -0.2968 -0.1465  0.2413
  171SOPE  H13X19392   1.797   2.211   7.945 -0.8780 -0.3565 -0.8602
  171SOPE  H13Y19393   1.673   2.087   7.990 -1.3646  0.1797 -0.3501
  171SOPE  C31419394   1.705   2.226   8.155  0.1109 -0.0661  0.3799
  171SOPE  H14X19395   1.621   2.294   8.181 -0.1633  0.0208 -0.7023
  171SOPE  H14Y19396   1.794   2.288   8.178  0.3141 -0.3346  0.3252
  171SOPE  C31519397   1.713   2.107   8.251  0.3920  0.3234 -0.5618
  171SOPE  H15X19398   1.816   2.067   8.249  1.3194  2.5782 -1.0913
  171SOPE  H15Y19399   1.637   2.030   8.226  1.8104 -1.9299  1.5868
  171SOPE  C31619400   1.685   2.137   8.400  0.8078 -0.0232 -0.1641
  171SOPE  H16X19401   1.584   2.183   8.406  0.2305 -1.1053 -1.0730
  171SOPE  H16Y19402   1.761   2.205   8.442  0.1992  0.3377  0.3669
  171SOPE  C31719403   1.691   2.012   8.489  0.0527  0.2791 -0.1455
  171SOPE  H17X19404   1.614   1.938   8.457  0.6271  0.6208 -2.4398
  171SOPE  H17Y19405   1.674   2.033   8.597 -4.7795  1.1710 -0.8566
  171SOPE  C31819406   1.833   1.945   8.493  0.5969  0.6873  0.4126
  171SOPE  H18X19407   1.917   2.001   8.539  0.5206  0.6202  0.6330
  171SOPE  H18Y19408   1.876   1.928   8.392  0.9254 -0.3320  0.7132
  171SOPE  H18Z19409   1.840   1.846   8.544  2.4644  0.4676 -0.1975
  172SOPE     N19410   3.149   4.283   6.383  0.4941 -0.0254 -0.5620
  172SOPE   HN119411   3.091   4.366   6.360 -0.3830 -0.0975  1.2086
  172SOPE   HN219412   3.243   4.327   6.395 -0.7388  2.5864  0.4025
  172SOPE   HN319413   3.138   4.213   6.308 -1.3089 -0.7184  0.2929
  172SOPE   C1219414   3.113   4.221   6.515  0.3207 -0.1761 -0.1478
  172SOPE  H12A19415   3.153   4.290   6.593  0.1264 -0.7406  0.4558
  172SOPE  H12B19416   3.163   4.124   6.533  1.1813  0.4081  0.7440
  172SOPE   C1119417   2.963   4.206   6.530 -0.5021 -0.0392 -0.2932
  172SOPE  H11A19418   2.928   4.190   6.634 -2.4332 -0.9354 -1.0348
  172SOPE  H11B19419   2.928   4.122   6.466 -1.1113 -0.9062  1.1315
  172SOPE     P19420   2.748   4.355   6.485 -0.1555 -0.5639 -0.1752
  172SOPE   O1319421   2.682   4.281   6.374 -0.6305  0.2069 -0.3862
  172SOPE   O1419422   2.721   4.501   6.491  0.0284  0.2094 -0.8610
  172SOPE   O1219423   2.902   4.327   6.483 -0.1200 -0.2794 -0.0027
  172SOPE   O1119424   2.703   4.294   6.622  0.2635 -0.1972 -0.1994
  172SOPE    C119425   2.714   4.351   6.755 -0.4371  0.2001  0.2221
  172SOPE    HA19426   2.776   4.443   6.761 -2.6017  1.7864 -0.2122
  172SOPE    HB19427   2.759   4.268   6.813  0.0417  0.2030 -0.1318
  172SOPE    C219428   2.571   4.382   6.816 -0.1751  0.3610 -0.5475
  172SOPE    HS19429   2.525   4.466   6.758  0.8829  1.0022 -0.4955
  172SOPE   O2119430   2.593   4.415   6.950  0.5803 -0.3564  0.2920
  172SOPE   C2119431   2.519   4.517   6.999  0.4446  0.0494  0.5476
  172SOPE   O2219432   2.427   4.565   6.942  0.7820 -0.0065 -0.4229
  172SOPE   C2219433   2.573   4.558   7.131  0.0556 -0.1254 -0.9147
  172SOPE   H2R19434   2.635   4.651   7.128 -1.7498  1.2138  0.7678
  172SOPE   H2S19435   2.644   4.481   7.169 -1.8613 -0.9561  1.2081
  172SOPE    C319436   2.468   4.268   6.799  0.7367  0.3228 -0.5125
  172SOPE    HX19437   2.523   4.174   6.821  1.5682  0.1204 -3.2122
  172SOPE    HY19438   2.435   4.265   6.693 -1.9405  0.0465  0.2621
  172SOPE   O3119439   2.360   4.273   6.894 -0.6499  0.1673 -0.2862
  172SOPE   C3119440   2.246   4.326   6.847  0.2071 -0.1335  0.1674
  172SOPE   O3219441   2.232   4.344   6.729  0.1254 -0.1756 -0.4267
  172SOPE   C3219442   2.141   4.322   6.957  0.2613  0.2204 -0.1830
  172SOPE   H2X19443   2.187   4.297   7.055  0.2752 -1.9800 -0.7032
  172SOPE   H2Y19444   2.086   4.230   6.930  1.2096 -0.7067  0.9060
  172SOPE   C2319445   2.463   4.574   7.245  0.1619 -0.2394  0.0400
  172SOPE   H3R19446   2.513   4.575   7.344 -0.5193 -1.0719  0.4098
  172SOPE   H3S19447   2.393   4.488   7.238 -1.4524  1.1461 -3.0206
  172SOPE   C2419448   2.376   4.694   7.236  0.1494 -0.7925 -0.0693
  172SOPE   H4R19449   2.452   4.773   7.216  1.0339 -1.6550 -0.1876
  172SOPE   H4S19450   2.322   4.707   7.140 -0.7580  0.1950  0.5467
  172SOPE   C2519451   2.266   4.732   7.344 -0.4414 -0.3862  0.2010
  172SOPE   H5R19452   2.229   4.836   7.332 -1.0921 -0.4412  1.5488
  172SOPE   H5S19453   2.175   4.670   7.336 -0.6322 -0.4351  2.2555
  172SOPE   C2619454   2.307   4.718   7.492  0.2820  0.1601  0.9701
  172SOPE   H6R19455   2.317   4.610   7.513 -1.0108 -0.0763  0.4367
  172SOPE   H6S19456   2.411   4.757   7.499  0.4275 -0.0960  0.2144
  172SOPE   C2719457   2.200   4.777   7.583 -0.2463  0.1530  0.0594
  172SOPE   H7R19458   2.172   4.879   7.549  1.4582  0.1383 -1.5524
  172SOPE   H7S19459   2.106   4.718   7.582 -0.3190  0.2663 -1.1868
  172SOPE   C2819460   2.253   4.785   7.725 -0.1213  0.2872 -0.8787
  172SOPE   H8R19461   2.161   4.772   7.786 -1.0116  0.1544 -2.2134
  172SOPE   H8S19462   2.308   4.689   7.734 -0.4165 -0.0592 -2.4697
  172SOPE   C2919463   2.345   4.904   7.750 -0.3110  0.8954 -0.4799
  172SOPE   H9119464   2.453   4.882   7.755 -0.6875 -0.7888  2.7856
  172SOPE  C21019465   2.304   5.021   7.790 -0.4596  0.3864 -0.6323
  172SOPE  H10119466   2.373   5.103   7.814 -1.8693  1.6004 -0.5791
  172SOPE  C21119467   2.156   5.048   7.812  0.3871 -0.2239  0.6979
  172SOPE  H11R19468   2.093   4.988   7.743  1.3260 -0.0622 -0.3163
  172SOPE  H11S19469   2.130   5.150   7.775  0.4851 -0.6655 -0.6533
  172SOPE  C21219470   2.095   5.021   7.952  0.5102 -0.0583  0.1674
  172SOPE  H12R19471   2.159   4.945   8.003 -0.3025  0.9848  2.8926
  172SOPE  H12S19472   1.990   4.984   7.948 -0.2347  2.0482 -2.2768
  172SOPE  C21319473   2.092   5.154   8.030  0.4659 -0.3269  0.1160
  172SOPE  H13R19474   2.032   5.225   7.969  1.9388 -1.1421 -2.4309
  172SOPE  H13S19475   2.197   5.189   8.041  0.4264  0.8688 -2.5478
  172SOPE  C21419476   2.027   5.137   8.167 -0.2751 -0.2835 -0.9995
  172SOPE  H14R19477   2.101   5.090   8.234  2.1795  0.6870 -2.8606
  172SOPE  H14S19478   1.954   5.055   8.149  1.1515 -2.8220  3.2920
  172SOPE  C21519479   1.966   5.260   8.235 -0.0734  0.9435  0.8429
  172SOPE  H15R19480   1.968   5.344   8.162  3.1308  1.4512  1.3834
  172SOPE  H15S19481   2.037   5.309   8.305  1.7147  0.4727 -0.5558
  172SOPE  C21619482   1.817   5.256   8.268  0.1711  0.1206 -0.6288
  172SOPE  H16R19483   1.779   5.170   8.327  0.8769  0.8426  0.9400
  172SOPE  H16S19484   1.766   5.239   8.171 -0.2375 -1.8093 -0.1269
  172SOPE  C21719485   1.773   5.380   8.347 -0.6521  0.2272  0.6791
  172SOPE  H17R19486   1.665   5.367   8.370 -0.5369  0.0506  1.1328
  172SOPE  H17S19487   1.798   5.467   8.282 -0.0299 -0.1576  0.3908
  172SOPE  C21819488   1.830   5.399   8.489  0.3598  0.4614  0.4141
  172SOPE  H18R19489   1.792   5.313   8.547 -2.0096  0.7060 -0.6563
  172SOPE  H18S19490   1.786   5.493   8.531 -0.2243  1.0686 -1.4856
  172SOPE  H18T19491   1.939   5.416   8.503  0.2750  0.3924  1.2660
  172SOPE   C3319492   2.053   4.447   6.948  1.1655 -0.3122  0.1168
  172SOPE   H3X19493   2.010   4.453   6.846  1.4524  0.5837  0.0369
  172SOPE   H3Y19494   2.117   4.534   6.973  0.4655  0.1412  0.3642
  172SOPE   C3419495   1.931   4.436   7.042 -0.6365 -0.3328 -0.7554
  172SOPE   H4X19496   1.889   4.336   7.016  3.4268 -1.7798 -2.6829
  172SOPE   H4Y19497   1.851   4.507   7.013 -1.4959 -1.7259 -1.9551
  172SOPE   C3519498   1.967   4.462   7.193 -0.2044  0.6245 -0.3700
  172SOPE   H5X19499   2.017   4.559   7.212  1.6463 -0.0934 -1.2804
  172SOPE   H5Y19500   2.041   4.387   7.227 -1.3009 -0.5443 -0.5017
  172SOPE   C3619501   1.850   4.458   7.296  0.3790  0.3925 -0.2657
  172SOPE   H6X19502   1.787   4.367   7.284 -0.8012  0.9612  1.3408
  172SOPE   H6Y19503   1.782   4.543   7.276  0.4340  0.0946 -1.7907
  172SOPE   C3719504   1.904   4.476   7.438  0.0979  0.6656 -0.2737
  172SOPE   H7X19505   1.820   4.518   7.497  1.1406  1.0041  1.0185
  172SOPE   H7Y19506   1.985   4.553   7.439  0.8239  0.0065 -2.4852
  172SOPE   C3819507   1.956   4.364   7.528  0.5397  0.1060 -0.0012
  172SOPE   H8X19508   2.061   4.356   7.493  1.6630  1.5264  2.7709
  172SOPE   H8Y19509   1.896   4.272   7.509 -1.3072  0.7483  2.1931
  172SOPE   C3919510   1.971   4.385   7.679  0.9765 -0.7042 -0.3344
  172SOPE   H9X19511   1.873   4.418   7.720  0.7709 -2.8847  1.1301
  172SOPE   H9Y19512   2.049   4.464   7.691  0.0590  0.2261 -0.3669
  172SOPE  C31019513   2.007   4.252   7.747 -0.1221 -0.9747 -0.5498
  172SOPE  H10X19514   2.104   4.206   7.719  0.4601 -0.8444  1.1864
  172SOPE  H10Y19515   1.922   4.191   7.710 -0.4899  0.7044 -2.7376
  172SOPE  C31119516   2.013   4.273   7.902  0.3367  0.7267  0.0224
  172SOPE  H11X19517   1.915   4.315   7.934 -0.8910  0.1639 -2.7381
  172SOPE  H11Y19518   2.100   4.334   7.934  0.3015  0.8708 -0.1549
  172SOPE  C31219519   2.022   4.136   7.977  0.5401 -0.2876 -0.3918
  172SOPE  H12X19520   2.098   4.064   7.939 -1.2259 -0.7740 -3.3054
  172SOPE  H12Y19521   1.925   4.083   7.967 -0.9104  1.8752  1.3951
  172SOPE  C31319522   2.036   4.150   8.127 -0.0059  0.0707  0.3471
  172SOPE  H13X19523   2.009   4.050   8.165  3.0647 -1.2100 -0.5345
  172SOPE  H13Y19524   1.955   4.220   8.157 -0.3770 -0.0504 -0.3540
  172SOPE  C31419525   2.177   4.196   8.188  0.4497 -0.1730 -0.5581
  172SOPE  H14X19526   2.155   4.235   8.290  3.6898  0.5953 -0.0549
  172SOPE  H14Y19527   2.195   4.285   8.123  1.5166  0.9890  1.2289
  172SOPE  C31519528   2.283   4.092   8.191  0.7909  0.1524  0.1486
  172SOPE  H15X19529   2.322   4.081   8.087 -0.1976 -1.2559 -0.0996
  172SOPE  H15Y19530   2.241   3.994   8.223  0.5325  0.2985  0.2526
  172SOPE  C31619531   2.392   4.136   8.285 -0.5498  0.2248 -0.5374
  172SOPE  H16X19532   2.348   4.176   8.378 -0.4206 -1.9980  0.5492
  172SOPE  H16Y19533   2.447   4.215   8.229 -0.6658 -1.5195 -3.3726
  172SOPE  C31719534   2.485   4.023   8.322  0.4367 -0.1268 -0.5112
  172SOPE  H17X19535   2.426   3.947   8.378  0.8016 -2.4451 -3.0510
  172SOPE  H17Y19536   2.576   4.067   8.369 -0.2089  1.0456 -0.3298
  172SOPE  C31819537   2.550   3.944   8.209  0.1300 -0.2205 -0.5803
  172SOPE  H18X19538   2.595   4.017   8.139  1.0521  1.1807  1.3676
  172SOPE  H18Y19539   2.480   3.882   8.150 -2.1695  0.6669  1.0599
  172SOPE  H18Z19540   2.630   3.876   8.247 -1.7337 -2.6595 -0.7660
  173SAPI   C1219541   2.434   3.866  10.999  0.3056 -0.1693 -0.8577
  173SAPI    H219542   2.463   3.769  11.044  0.6645  0.4944  0.3732
  173SAPI    O219543   2.298   3.894  11.029 -0.0290  0.1806 -0.2389
  173SAPI   HO219544   2.239   3.818  11.030 -4.4063  3.1759  0.0088
  173SAPI   C1319545   2.520   3.978  11.060  0.3738  0.3264  0.0332
  173SAPI    H319546   2.628   3.956  11.045  0.0767 -0.9462 -0.3249
  173SAPI    O319547   2.515   3.968  11.201 -0.1024  0.2806  0.2215
  173SAPI   HO319548   2.451   4.029  11.238  0.1150  0.5652  0.1344
  173SAPI   C1419549   2.486   4.112  11.000 -0.3616 -0.2237  0.3670
  173SAPI    H419550   2.384   4.140  11.032  0.5903  1.6127  1.9933
  173SAPI    O419551   2.579   4.208  11.056  0.2601  0.1194  0.0637
  173SAPI   HO419552   2.543   4.295  11.039 -2.5078 -0.9365 -0.1858
  173SAPI   C1519553   2.500   4.100  10.847 -0.0140 -0.4114  0.5848
  173SAPI    H519554   2.607   4.074  10.834  0.1969  0.3709  0.6687
  173SAPI    O519555   2.491   4.225  10.777  1.1856  0.8339  0.4716
  173SAPI   HO519556   2.402   4.261  10.779  1.4792  1.8562 -1.8360
  173SAPI   C1619557   2.410   3.987  10.775 -0.5831 -0.1277 -0.2813
  173SAPI    H619558   2.302   4.010  10.789 -0.9682 -0.7572 -1.9324
  173SAPI    O619559   2.441   3.971  10.637 -0.8165 -0.0660 -0.3410
  173SAPI   HO619560   2.432   3.877  10.618 -3.6255 -0.5446  2.5130
  173SAPI   C1119561   2.448   3.848  10.849 -0.3066  0.5405 -0.1615
  173SAPI    H119562   2.552   3.819  10.823 -1.2206 -2.1302 -1.1505
  173SAPI     P19563   2.405   3.612  10.727  0.0117 -0.0715  0.4619
  173SAPI   O1319564   2.282   3.537  10.703  0.0962 -0.8538  0.0511
  173SAPI   O1419565   2.520   3.551  10.793  0.0685 -0.0576 -0.3028
  173SAPI   O1219566   2.356   3.750  10.802 -0.2230 -0.5540 -0.4821
  173SAPI   O1119567   2.455   3.679  10.587 -0.0388  0.5018 -0.5045
  173SAPI    C119568   2.361   3.675  10.482 -0.2809  0.3912  0.0746
  173SAPI    HA19569   2.256   3.698  10.511  0.1119  0.4910  1.4843
  173SAPI    HB19570   2.395   3.749  10.407  1.1671  1.2781  1.5529
  173SAPI    C219571   2.373   3.545  10.402  0.2669  0.4106  0.7132
  173SAPI    HS19572   2.354   3.464  10.475 -1.0214  0.3991  0.3860
  173SAPI   O2119573   2.511   3.546  10.350  0.4584 -0.1303 -0.2513
  173SAPI   C2119574   2.570   3.432  10.325 -0.1219  0.0319  0.4499
  173SAPI   O2219575   2.535   3.322  10.365  0.3037 -0.2828  0.4384
  173SAPI   C2219576   2.686   3.446  10.228 -0.5123  0.1435  0.6880
  173SAPI   H2R19577   2.646   3.502  10.141 -0.1600 -2.6316 -1.3766
  173SAPI   H2S19578   2.769   3.507  10.271 -1.6988  1.8803  0.6483
  173SAPI    C319579   2.269   3.544  10.285  0.0732 -0.1687  0.0292
  173SAPI    HX19580   2.276   3.648  10.247  0.8721  0.3712  1.5767
  173SAPI    HY19581   2.171   3.519  10.331  0.5854 -2.0789  0.1683
  173SAPI   O3119582   2.311   3.453  10.183  0.0096 -0.1189  0.0465
  173SAPI   C3119583   2.241   3.343  10.172  0.7747 -0.8473  0.2275
  173SAPI   O3219584   2.131   3.322  10.228 -0.5745 -0.2167  0.2886
  173SAPI   C3219585   2.307   3.246  10.074 -0.3101 -0.2686  0.4148
  173SAPI   H2X19586   2.315   3.146  10.120  2.4079 -0.2135  0.2277
  173SAPI   H2Y19587   2.412   3.279  10.059 -1.1742  1.6585 -2.1847
  173SAPI   C2319588   2.762   3.314  10.184 -0.3521 -0.1224 -0.6459
  173SAPI   H3R19589   2.776   3.246  10.271  0.8614 -0.0407 -0.7536
  173SAPI   H3S19590   2.865   3.333  10.146  0.5273  0.7153  1.9177
  173SAPI   C2419591   2.675   3.240  10.076  0.0682 -0.6145 -0.1808
  173SAPI   H4R19592   2.627   3.318  10.013  0.0348  0.1189  0.7226
  173SAPI   H4S19593   2.588   3.187  10.121  0.0616  0.8423  1.6504
  173SAPI   C2519594   2.764   3.146  10.010 -0.5250 -0.5920  0.8639
  173SAPI   H5R19595   2.767   3.049  10.062 -0.0425 -0.5394  0.9422
  173SAPI   C2619596   2.824   3.164   9.886  0.0744  0.2751 -0.1766
  173SAPI   H6R19597   2.890   3.089   9.839 -0.4535  1.2444 -2.6373
  173SAPI   C2719598   2.809   3.290   9.803  0.6408 -0.8151  0.1760
  173SAPI   H7R19599   2.818   3.368   9.882 -2.3561  0.9537 -1.0362
  173SAPI   H7S19600   2.704   3.292   9.765  0.8094 -3.4763 -0.6132
  173SAPI   C2819601   2.918   3.309   9.702 -0.5443  0.2102 -0.0570
  173SAPI   H8R19602   3.011   3.349   9.745 -0.8097  1.2639 -0.4091
  173SAPI   C2919603   2.904   3.305   9.567 -0.0028  0.1953  0.0563
  173SAPI   H9R19604   2.984   3.314   9.492 -1.1242 -1.7009 -1.4667
  173SAPI  C21019605   2.770   3.290   9.491 -0.1970 -0.2002 -0.0230
  173SAPI  H10R19606   2.731   3.388   9.457 -1.3545 -0.4249  0.5944
  173SAPI  H10S19607   2.692   3.259   9.564  0.2560  2.4448  1.7280
  173SAPI  C21119608   2.781   3.195   9.375 -0.2825 -0.1508 -0.2599
  173SAPI  H11R19609   2.812   3.095   9.411 -0.9529 -0.7443 -1.2881
  173SAPI  C21219610   2.760   3.221   9.240 -0.2449  0.1578  0.1901
  173SAPI  H12R19611   2.770   3.134   9.173 -0.1817  0.6071 -0.3890
  173SAPI  C21319612   2.721   3.341   9.165 -0.3645 -0.1923 -0.4326
  173SAPI  H13R19613   2.654   3.411   9.220  1.2744  3.9932 -3.2471
  173SAPI  H13S19614   2.667   3.310   9.072  1.7512 -1.6482 -1.2416
  173SAPI  C21419615   2.848   3.420   9.128  0.5880 -0.0174  0.0037
  173SAPI  H14R19616   2.926   3.427   9.206  0.9443 -1.0822 -0.2422
  173SAPI  C21519617   2.869   3.488   9.012  0.0590 -0.4998 -0.6494
  173SAPI  H15R19618   2.965   3.542   9.012 -1.3867  2.2218  0.7034
  173SAPI  C21619619   2.771   3.503   8.901 -0.3057  0.0617  0.5685
  173SAPI  H16R19620   2.672   3.454   8.919 -1.2000  1.3428 -0.6672
  173SAPI  H16S19621   2.820   3.461   8.811  2.1957  3.3568  0.2143
  173SAPI  C21719622   2.747   3.655   8.875  0.5612 -0.3309 -0.4955
  173SAPI  H17R19623   2.831   3.709   8.826  0.3104 -0.2248 -0.8115
  173SAPI  H17S19624   2.739   3.703   8.975  2.5093  0.9049 -0.8758
  173SAPI  C21819625   2.621   3.657   8.788 -0.8810 -0.1770  0.1456
  173SAPI  H18R19626   2.557   3.747   8.796  2.1121  2.0515  0.8103
  173SAPI  H18S19627   2.550   3.578   8.821  1.5403 -2.8496 -0.5325
  173SAPI  C21919628   2.671   3.643   8.639 -0.1018 -0.2854 -0.4859
  173SAPI  H19R19629   2.753   3.569   8.624 -0.1952 -1.0134  2.0087
  173SAPI  H19S19630   2.695   3.742   8.598  1.3384 -0.5177 -0.2499
  173SAPI  C22019631   2.549   3.597   8.553  0.3584 -0.2576  0.1188
  173SAPI  H20R19632   2.467   3.672   8.558  0.7929  0.1502  2.9432
  173SAPI  H20S19633   2.517   3.497   8.590  2.7642 -0.7864  0.9736
  173SAPI  H20T19634   2.583   3.605   8.448  0.1507  1.7151  0.1529
  173SAPI   C3319635   2.232   3.231   9.941  0.1203  0.2695 -0.5058
  173SAPI   H3X19636   2.122   3.236   9.954 -0.1287 -0.5313 -2.0034
  173SAPI   H3Y19637   2.242   3.136   9.883  0.1561  0.4071 -0.7267
  173SAPI   C3419638   2.263   3.350   9.843 -1.4162  0.1530  0.0871
  173SAPI   H4X19639   2.309   3.434   9.898  0.8116 -0.5363 -0.6323
  173SAPI   H4Y19640   2.176   3.389   9.785 -1.0923  0.0098 -0.5070
  173SAPI   C3519641   2.371   3.305   9.735 -0.3748  0.1368  0.1766
  173SAPI   H5X19642   2.441   3.232   9.781  0.6664 -0.8147 -2.6550
  173SAPI   H5Y19643   2.421   3.401   9.707 -2.3182  1.8866  2.3474
  173SAPI   C3619644   2.314   3.233   9.611 -0.2675  0.3326 -0.5815
  173SAPI   H6X19645   2.224   3.292   9.585  0.8676  2.4666  0.1472
  173SAPI   H6Y19646   2.277   3.132   9.642  0.2329  0.0300 -0.9568
  173SAPI   C3719647   2.399   3.205   9.489  0.0035  0.4780 -0.3119
  173SAPI   H7X19648   2.460   3.112   9.499  0.7910  0.9992 -0.1576
  173SAPI   H7Y19649   2.472   3.285   9.464 -0.0977  0.2852 -1.2738
  173SAPI   C3819650   2.308   3.183   9.361 -0.8157 -0.2554  0.0922
  173SAPI   H8X19651   2.225   3.256   9.368 -1.9603 -1.5362  0.3771
  173SAPI   H8Y19652   2.254   3.088   9.382 -0.6073 -0.1345  1.2399
  173SAPI   C3919653   2.393   3.174   9.237  0.4707 -0.4112  0.6581
  173SAPI   H9X19654   2.488   3.122   9.258  2.7721  3.0269 -0.4551
  173SAPI   H9Y19655   2.418   3.278   9.210  0.0003 -0.6564 -0.8366
  173SAPI  C31019656   2.306   3.134   9.121  0.2223 -0.3430  0.3261
  173SAPI  H10X19657   2.212   3.192   9.114 -0.1288 -0.9097  0.2855
  173SAPI  H10Y19658   2.269   3.030   9.131 -3.3406  0.6390 -1.1777
  173SAPI  C31119659   2.369   3.159   8.981  0.0603 -0.3518  0.0557
  173SAPI  H11X19660   2.389   3.268   8.974 -0.0480 -0.4022 -1.1802
  173SAPI  H11Y19661   2.291   3.148   8.903 -0.6207  1.1490  0.4788
  173SAPI  C31219662   2.490   3.079   8.957 -0.2458  0.3699  0.3626
  173SAPI  H12X19663   2.469   2.970   8.963  0.1619  0.2013 -0.9542
  173SAPI  H12Y19664   2.566   3.094   9.036 -0.0454 -1.0841  0.4698
  173SAPI  C31319665   2.562   3.116   8.824  0.0914  0.3630 -0.3404
  173SAPI  H13X19666   2.593   3.223   8.822  0.4684  0.2923  0.8088
  173SAPI  H13Y19667   2.486   3.111   8.743  0.9301 -2.2267 -1.0697
  173SAPI  C31419668   2.681   3.034   8.781 -0.0143 -0.2766 -0.5843
  173SAPI  H14X19669   2.775   3.055   8.837  1.0909 -2.9393 -1.3106
  173SAPI  H14Y19670   2.696   3.044   8.672  0.4262 -2.0404 -0.7158
  173SAPI  C31519671   2.655   2.882   8.806 -0.5128 -0.0338 -0.5040
  173SAPI  H15X19672   2.552   2.862   8.772 -0.9078  0.7532  0.1889
  173SAPI  H15Y19673   2.669   2.863   8.915 -0.2902  3.1878  0.1123
  173SAPI  C31619674   2.757   2.793   8.729 -0.2798 -0.3870 -0.0316
  173SAPI  H16X19675   2.854   2.844   8.745 -1.1157  0.7279  1.8164
  173SAPI  H16Y19676   2.740   2.794   8.619 -1.2688  0.4140  0.1180
  173SAPI  C31719677   2.766   2.653   8.791  0.1901  0.0177  0.5429
  173SAPI  H17X19678   2.669   2.601   8.780  1.1029 -2.1513  2.0268
  173SAPI  H17Y19679   2.768   2.675   8.900  2.1958  2.4726  0.1062
  173SAPI  C31819680   2.880   2.556   8.757  0.4098  0.0900 -0.3315
  173SAPI  H18X19681   2.858   2.530   8.651 -2.3081 -0.7238  0.3565
  173SAPI  H18Y19682   2.882   2.476   8.834 -1.2658  2.0092  1.8547
  173SAPI  H18Z19683   2.977   2.608   8.771 -0.7718  1.9747  1.3555
  174SAPI   C1219684   2.337   0.351  11.213  0.1494  0.1807  0.5365
  174SAPI    H219685   2.296   0.260  11.164  1.3659 -1.1834  1.9560
  174SAPI    O219686   2.232   0.410  11.283 -0.5183 -0.0212 -0.1360
  174SAPI   HO219687   2.180   0.467  11.225 -0.3565 -0.3768 -0.6327
  174SAPI   C1319688   2.445   0.293  11.302  0.1308 -0.8941 -0.2149
  174SAPI    H319689   2.518   0.235  11.240  1.9606 -0.9512  1.8731
  174SAPI    O319690   2.392   0.193  11.388  0.4433  0.2093 -0.1915
  174SAPI   HO319691   2.302   0.214  11.414  0.1350  0.7714 -1.6102
  174SAPI   C1419692   2.531   0.403  11.361 -0.4708  0.3330 -0.2039
  174SAPI    H419693   2.463   0.455  11.432 -1.5429  0.2908 -1.1589
  174SAPI    O419694   2.649   0.348  11.419  0.0060  0.5953  0.0187
  174SAPI   HO419695   2.712   0.418  11.437  1.4173 -0.6228  0.0172
  174SAPI   C1519696   2.574   0.506  11.257 -0.1267  1.0340  0.4197
  174SAPI    H519697   2.649   0.456  11.192 -0.8582  1.3065 -0.6586
  174SAPI    O519698   2.633   0.622  11.322  0.7997 -0.7435 -0.4964
  174SAPI   HO519699   2.676   0.686  11.264  0.2274 -0.1957 -0.3140
  174SAPI   C1619700   2.468   0.562  11.161 -0.0520 -0.6183 -0.0064
  174SAPI    H619701   2.402   0.617  11.231  0.5746  1.4115 -0.9344
  174SAPI    O619702   2.518   0.653  11.061  0.0638  0.1355 -0.1253
  174SAPI   HO619703   2.479   0.738  11.082  0.5154 -0.1461  2.1602
  174SAPI   C1119704   2.388   0.443  11.104  0.2298  0.5078  0.7678
  174SAPI    H119705   2.465   0.394  11.041  1.4344  1.8052  1.1783
  174SAPI     P19706   2.217   0.414  10.900 -0.0561 -0.0637  0.3693
  174SAPI   O1319707   2.087   0.481  10.863 -0.1689  0.4187 -0.0102
  174SAPI   O1419708   2.207   0.271  10.933  0.0635  0.8644 -0.0092
  174SAPI   O1219709   2.277   0.494  11.027  0.0339  0.5866 -0.1730
  174SAPI   O1119710   2.331   0.452  10.786 -0.3894  0.3585 -0.1354
  174SAPI    C119711   2.327   0.579  10.709 -0.1070  0.7686 -0.0916
  174SAPI    HA19712   2.271   0.660  10.761 -0.4724  0.5562 -0.1552
  174SAPI    HB19713   2.433   0.605  10.690  0.6357 -1.9576 -0.1303
  174SAPI    C219714   2.262   0.544  10.567 -0.8502  1.0829  0.1705
  174SAPI    HS19715   2.250   0.434  10.561  0.8632  0.9324 -1.8642
  174SAPI   O2119716   2.361   0.583  10.474 -0.7678  0.1252  0.0348
  174SAPI   C2119717   2.350   0.519  10.352 -0.1438  0.8964 -1.0641
  174SAPI   O2219718   2.266   0.432  10.330  0.3716  0.7824 -0.1171
  174SAPI   C2219719   2.438   0.582  10.252  0.2651 -0.2302  0.0886
  174SAPI   H2R19720   2.370   0.649  10.195  0.9304 -3.5663 -5.3018
  174SAPI   H2S19721   2.517   0.645  10.298  0.3069 -0.3336  0.1595
  174SAPI    C319722   2.130   0.618  10.529 -0.2748  0.9967  0.2167
  174SAPI    HX19723   2.048   0.567  10.583  1.7997 -3.1377 -0.1111
  174SAPI    HY19724   2.106   0.604  10.421  0.3379 -0.5161  0.2528
  174SAPI   O3119725   2.141   0.757  10.575  0.5820  0.5607  0.2841
  174SAPI   C3119726   2.045   0.837  10.545 -0.3479 -0.3454 -0.2415
  174SAPI   O3219727   1.940   0.800  10.494 -0.1074 -0.4932 -0.2394
  174SAPI   C3219728   2.090   0.979  10.579  0.2873  0.2743  0.8082
  174SAPI   H2X19729   2.167   0.974  10.659  1.0656 -2.0003  0.0153
  174SAPI   H2Y19730   2.001   1.025  10.627 -1.3912  0.5964 -2.3522
  174SAPI   C2319731   2.488   0.484  10.149 -0.6806 -0.2963  0.8907
  174SAPI   H3R19732   2.400   0.442  10.095 -0.1978  1.5244 -1.4698
  174SAPI   H3S19733   2.546   0.400  10.194 -1.2880 -0.3866  1.5228
  174SAPI   C2419734   2.573   0.558  10.038  0.2842  0.1269  0.5059
  174SAPI   H4R19735   2.648   0.625  10.084  0.8806  0.6122 -1.1341
  174SAPI   H4S19736   2.500   0.626   9.990  0.3131  1.7857  2.6415
  174SAPI   C2519737   2.630   0.473   9.929  0.2113 -0.2454  1.0323
  174SAPI   H5R19738   2.731   0.436   9.953  0.4074 -1.1197 -0.9039
  174SAPI   C2619739   2.590   0.457   9.800  0.0125 -0.1467 -0.5933
  174SAPI   H6R19740   2.642   0.378   9.745 -0.0548 -1.6006  1.3223
  174SAPI   C2719741   2.459   0.506   9.734  0.4007 -0.5715  0.1084
  174SAPI   H7R19742   2.405   0.582   9.796  0.1075  0.3134 -1.1786
  174SAPI   H7S19743   2.393   0.418   9.716  0.1574 -0.1279 -1.3321
  174SAPI   C2819744   2.506   0.568   9.605 -0.0109  0.2547  0.0349
  174SAPI   H8R19745   2.552   0.667   9.620  0.1760 -0.0329  1.6327
  174SAPI   C2919746   2.489   0.527   9.476  0.0105  0.6934 -0.8759
  174SAPI   H9R19747   2.529   0.580   9.388  0.4964  1.8290  0.0064
  174SAPI  C21019748   2.413   0.393   9.433 -0.1441 -0.0752  0.4177
  174SAPI  H10R19749   2.335   0.427   9.361  0.2671  0.1979  0.0995
  174SAPI  H10S19750   2.340   0.360   9.511  1.2164  0.1667  1.8433
  174SAPI  C21119751   2.493   0.281   9.373 -0.5390  0.1504 -0.1722
  174SAPI  H11R19752   2.538   0.206   9.439 -0.2895 -0.2324 -0.7725
  174SAPI  C21219753   2.511   0.265   9.242  0.0910  0.5178  0.4681
  174SAPI  H12R19754   2.577   0.182   9.214 -0.8646  0.2116 -0.9612
  174SAPI  C21319755   2.463   0.345   9.128  0.1530 -0.2990  0.3697
  174SAPI  H13R19756   2.541   0.417   9.097 -0.2143 -0.1375 -0.1924
  174SAPI  H13S19757   2.373   0.407   9.148  0.4129  0.1254  0.2279
  174SAPI  C21419758   2.442   0.264   8.998 -0.3360  0.7336 -0.3955
  174SAPI  H14R19759   2.351   0.204   8.995  0.1165 -0.1460  1.8505
  174SAPI  C21519760   2.519   0.249   8.886 -0.5957  0.2427 -0.4532
  174SAPI  H15R19761   2.483   0.195   8.797 -0.5285  1.7131 -1.4176
  174SAPI  C21619762   2.654   0.311   8.857 -0.2419 -0.1525 -0.0417
  174SAPI  H16R19763   2.719   0.225   8.830  0.2164 -0.1110  0.8755
  174SAPI  H16S19764   2.701   0.359   8.946  2.0134 -0.8376 -0.7915
  174SAPI  C21719765   2.668   0.412   8.743  0.5284 -0.3238  0.3065
  174SAPI  H17R19766   2.772   0.449   8.742  0.1971  0.6545 -1.2033
  174SAPI  H17S19767   2.605   0.504   8.748  1.0144  0.0302 -0.0370
  174SAPI  C21819768   2.647   0.361   8.603  0.4792 -0.3598  0.8402
  174SAPI  H18R19769   2.548   0.312   8.602 -0.5102  1.5381 -0.3051
  174SAPI  H18S19770   2.712   0.275   8.577 -1.7563 -1.7817 -0.3179
  174SAPI  C21919771   2.665   0.466   8.490  0.5329 -0.4522  0.2530
  174SAPI  H19R19772   2.696   0.416   8.395 -0.4257  2.5747 -1.8168
  174SAPI  H19S19773   2.751   0.526   8.527  0.6473 -0.9014  0.7293
  174SAPI  C22019774   2.541   0.545   8.461 -0.4167  0.5969  0.0659
  174SAPI  H20R19775   2.504   0.583   8.559 -1.0752  1.3969 -0.4775
  174SAPI  H20S19776   2.469   0.477   8.412  0.2578 -0.9018  1.0951
  174SAPI  H20T19777   2.562   0.642   8.410 -0.6542  1.4615  1.5425
  174SAPI   C3319778   2.142   1.053  10.448  0.4081 -0.1265 -0.5558
  174SAPI   H3X19779   2.148   1.158  10.484 -2.5913  0.1893 -0.7649
  174SAPI   H3Y19780   2.060   1.051  10.373  0.0162  0.7016 -0.1599
  174SAPI   C3419781   2.283   1.009  10.408  0.3558  1.1797 -0.1928
  174SAPI   H4X19782   2.312   0.907  10.441  1.1666  0.6426 -2.3399
  174SAPI   H4Y19783   2.352   1.072  10.467  0.4175  0.3186  0.6725
  174SAPI   C3519784   2.305   1.019  10.261 -0.4713  0.9688  0.6455
  174SAPI   H5X19785   2.267   1.114  10.217  1.4278  0.7852 -1.5764
  174SAPI   H5Y19786   2.250   0.936  10.212  1.0189  0.3336 -0.0074
  174SAPI   C3619787   2.452   1.009  10.205  0.2578 -0.0346 -0.0268
  174SAPI   H6X19788   2.487   0.912  10.246  0.3567 -0.1590 -0.4075
  174SAPI   H6Y19789   2.514   1.094  10.242 -0.5635  0.8665 -0.6798
  174SAPI   C3719790   2.458   0.993  10.050 -0.4363  0.0335  0.8077
  174SAPI   H7X19791   2.436   1.091  10.004 -0.6949  0.3657  1.6198
  174SAPI   H7Y19792   2.385   0.919  10.011 -1.8355  1.3841  0.7634
  174SAPI   C3819793   2.603   0.946  10.005 -0.3908 -0.2686 -0.6522
  174SAPI   H8X19794   2.618   0.844  10.046  0.9953  0.8226  1.7691
  174SAPI   H8Y19795   2.675   1.018  10.050 -1.1709  0.5587 -0.6829
  174SAPI   C3919796   2.622   0.949   9.860  0.1341  0.2344  0.3774
  174SAPI   H9X19797   2.630   1.054   9.824 -1.6051  0.0103 -0.8338
  174SAPI   H9Y19798   2.524   0.916   9.817  0.1841 -0.8172  1.0406
  174SAPI  C31019799   2.740   0.859   9.810  0.3215 -0.3144  0.2272
  174SAPI  H10X19800   2.709   0.753   9.799  0.9336 -0.3261 -1.7664
  174SAPI  H10Y19801   2.830   0.861   9.874  0.8472 -0.7889 -0.4759
  174SAPI  C31119802   2.771   0.897   9.667  0.3428  0.0345  0.2393
  174SAPI  H11X19803   2.826   0.994   9.667 -2.4012  1.6854 -0.3501
  174SAPI  H11Y19804   2.674   0.898   9.613 -0.4085  1.7923  1.5260
  174SAPI  C31219805   2.871   0.802   9.596  0.0156 -0.9368  0.5040
  174SAPI  H12X19806   2.864   0.691   9.607 -1.2324 -0.7895  1.2501
  174SAPI  H12Y19807   2.971   0.842   9.625  0.8505 -0.3971 -2.6905
  174SAPI  C31319808   2.848   0.828   9.442  0.1995  0.9467 -0.2759
  174SAPI  H13X19809   2.849   0.936   9.415 -0.4926  1.5301  1.7923
  174SAPI  H13Y19810   2.752   0.790   9.401  0.9946 -1.2499 -0.2342
  174SAPI  C31419811   2.961   0.757   9.359 -0.4904  0.5137  0.2437
  174SAPI  H14X19812   2.970   0.653   9.396 -2.0676 -1.1643 -3.4949
  174SAPI  H14Y19813   3.054   0.816   9.372 -0.2692  0.2172  0.0247
  174SAPI  C31519814   2.922   0.752   9.210  0.1256  0.0549  0.2357
  174SAPI  H15X19815   2.936   0.846   9.153  2.1941 -0.5909 -0.3960
  174SAPI  H15Y19816   2.818   0.714   9.200 -0.6766  2.4789 -1.3342
  174SAPI  C31619817   3.007   0.645   9.134  0.1282 -0.3296 -0.4054
  174SAPI  H16X19818   3.023   0.565   9.210 -0.0149 -0.1040 -0.1350
  174SAPI  H16Y19819   3.105   0.686   9.103  1.5002 -2.2179  1.1220
  174SAPI  C31719820   2.945   0.583   9.007 -0.5975  0.1681 -0.1218
  174SAPI  H17X19821   2.953   0.660   8.928  0.9421 -1.6232 -1.8420
  174SAPI  H17Y19822   2.838   0.553   9.014 -0.5309 -0.4721 -1.5147
  174SAPI  C31819823   3.019   0.454   8.960 -0.2223  0.5633 -0.4652
  174SAPI  H18X19824   3.125   0.484   8.949 -0.3362  1.1364 -0.0307
  174SAPI  H18Y19825   2.978   0.420   8.862  0.9058  0.7645 -1.0173
  174SAPI  H18Z19826   2.997   0.376   9.035  2.1769 -0.2541 -0.5484
  175SAPI   C1219827   2.003   6.763   6.523 -0.3922  0.7189  0.7181
  175SAPI    H219828   1.922   6.759   6.598 -0.7885 -1.3797  0.2335
  175SAPI    O219829   2.039   6.893   6.472 -0.5238  0.4321 -0.7879
  175SAPI   HO219830   1.957   6.934   6.443  0.2403  1.9961 -0.8877
  175SAPI   C1319831   2.122   6.695   6.589  0.2276  0.6256  0.6272
  175SAPI    H319832   2.086   6.594   6.619  0.3993  0.4426  0.2196
  175SAPI    O319833   2.166   6.758   6.704 -0.2322  0.2423 -0.5810
  175SAPI   HO319834   2.216   6.697   6.758 -0.0423  1.0149  0.1182
  175SAPI   C1419835   2.227   6.667   6.483 -0.2511  0.3495  0.0331
  175SAPI    H419836   2.248   6.763   6.431 -0.1728 -1.1101 -2.8061
  175SAPI    O419837   2.346   6.618   6.541 -0.0834 -0.2396 -0.3721
  175SAPI   HO419838   2.408   6.689   6.527 -1.4185  0.8832 -0.7831
  175SAPI   C1519839   2.177   6.574   6.373 -0.0672  0.3021 -0.0145
  175SAPI    H519840   2.142   6.481   6.423 -2.2953 -0.7347 -3.1791
  175SAPI    O519841   2.279   6.532   6.284 -0.1695 -0.2526 -0.2473
  175SAPI   HO519842   2.353   6.593   6.274 -0.0068 -0.1231  1.3631
  175SAPI   C1619843   2.066   6.651   6.305  0.1420 -0.6171 -0.0335
  175SAPI    H619844   2.103   6.747   6.263  1.0535 -0.1258  1.7767
  175SAPI    O619845   2.007   6.570   6.206 -0.5319  0.4035 -0.1335
  175SAPI   HO619846   1.918   6.552   6.237 -1.3729  0.6621 -2.2294
  175SAPI   C1119847   1.959   6.673   6.410  0.3053 -0.5196  0.2581
  175SAPI    H119848   1.924   6.577   6.454 -2.7518 -0.8511 -2.5139
  175SAPI     P19849   1.704   6.666   6.316  0.1067  0.0776  0.3198
  175SAPI   O1319850   1.735   6.527   6.273 -0.4191 -0.3635  0.0442
  175SAPI   O1419851   1.620   6.753   6.225 -0.3282 -0.1203 -0.0246
  175SAPI   O1219852   1.844   6.742   6.345  0.3094  0.3938  0.2483
  175SAPI   O1119853   1.634   6.662   6.454 -0.3669 -0.3789 -0.1339
  175SAPI    C119854   1.624   6.790   6.522 -0.0683 -0.1504 -0.6635
  175SAPI    HA19855   1.703   6.791   6.601  1.4279 -1.4849 -2.0732
  175SAPI    HB19856   1.639   6.878   6.457 -0.7930  0.9702  0.6187
  175SAPI    C219857   1.479   6.798   6.580  0.5536  0.1062  0.1927
  175SAPI    HS19858   1.459   6.897   6.626 -1.2252 -0.5148  0.8087
  175SAPI   O2119859   1.460   6.688   6.669  0.2171  0.0396  0.1977
  175SAPI   C2119860   1.472   6.707   6.797  0.1238 -0.2420  0.4525
  175SAPI   O2219861   1.529   6.805   6.850 -0.0234  0.2617 -0.1717
  175SAPI   C2219862   1.413   6.587   6.868 -0.1876  0.0785  1.0708
  175SAPI   H2R19863   1.302   6.595   6.868 -0.1368  1.0789  2.5663
  175SAPI   H2S19864   1.448   6.501   6.806  1.1006  1.9948 -1.0083
  175SAPI    C319865   1.371   6.773   6.471  0.2930 -0.4333 -0.3049
  175SAPI    HX19866   1.374   6.669   6.431 -2.3315 -1.4991  1.9367
  175SAPI    HY19867   1.407   6.839   6.389  1.0425 -0.1133  0.2712
  175SAPI   O3119868   1.237   6.814   6.507 -0.1086 -0.2482  0.0713
  175SAPI   C3119869   1.156   6.719   6.541 -0.3450  0.8013  0.3913
  175SAPI   O3219870   1.177   6.593   6.542  0.6754 -0.4271  0.7829
  175SAPI   C3219871   1.026   6.784   6.568 -0.4983 -0.0113  0.0117
  175SAPI   H2X19872   0.951   6.715   6.523  0.0271 -1.3047  1.0645
  175SAPI   H2Y19873   1.034   6.881   6.515  0.4225  0.2159  0.5442
  175SAPI   C2319874   1.468   6.565   7.006  0.2241 -1.1107 -0.5831
  175SAPI   H3R19875   1.396   6.497   7.056 -0.5685 -0.2105 -0.4741
  175SAPI   H3S19876   1.470   6.660   7.064 -2.7365 -1.6913  0.6285
  175SAPI   C2419877   1.606   6.505   7.020 -0.5690 -0.2291  0.5112
  175SAPI   H4R19878   1.670   6.578   6.965  0.1356 -0.6869  0.7074
  175SAPI   H4S19879   1.614   6.408   6.967 -1.9911 -1.0529  1.7318
  175SAPI   C2519880   1.656   6.487   7.161  0.3368  0.0363 -0.3981
  175SAPI   H5R19881   1.597   6.412   7.216  1.7687 -0.9512 -0.1566
  175SAPI   C2619882   1.742   6.562   7.233  0.4079  0.1540 -0.1588
  175SAPI   H6R19883   1.777   6.535   7.334  3.2292  2.4392 -0.3916
  175SAPI   C2719884   1.809   6.680   7.172  0.0886  0.3171 -0.3061
  175SAPI   H7R19885   1.825   6.645   7.068 -1.3417 -1.0618 -0.1021
  175SAPI   H7S19886   1.911   6.699   7.214  0.4476  1.0125 -1.4553
  175SAPI   C2819887   1.723   6.807   7.189 -0.0363 -0.5132 -0.5297
  175SAPI   H8R19888   1.686   6.844   7.092  4.6311  0.0249 -2.3678
  175SAPI   C2919889   1.711   6.883   7.298 -0.3305 -0.2130 -0.0376
  175SAPI   H9R19890   1.656   6.978   7.293  1.9485  1.1369 -1.0627
  175SAPI  C21019891   1.772   6.851   7.436 -0.1532 -0.2484  0.8260
  175SAPI  H10R19892   1.822   6.753   7.448  0.9377  0.2922  0.8100
  175SAPI  H10S19893   1.685   6.863   7.504  0.0294 -0.1543  1.0437
  175SAPI  C21119894   1.876   6.959   7.465 -0.1707  0.1712 -0.9194
  175SAPI  H11R19895   1.978   6.946   7.427  0.4508  3.9492 -0.8912
  175SAPI  C21219896   1.866   7.068   7.544  0.3575 -0.1370  0.1019
  175SAPI  H12R19897   1.952   7.136   7.541  1.4216 -1.4162 -3.1964
  175SAPI  C21319898   1.738   7.111   7.619 -0.4681  0.3796 -1.0720
  175SAPI  H13R19899   1.657   7.078   7.550 -0.9025  1.2187 -0.9789
  175SAPI  H13S19900   1.723   7.221   7.610  2.3846  0.7131 -3.1048
  175SAPI  C21419901   1.729   7.063   7.758 -0.2987  0.0168 -1.1310
  175SAPI  H14R19902   1.662   6.976   7.768  0.2217 -0.6717 -3.1953
  175SAPI  C21519903   1.776   7.115   7.874 -0.1677  0.1687 -0.1997
  175SAPI  H15R19904   1.754   7.058   7.965 -3.9977  3.0605  0.9839
  175SAPI  C21619905   1.866   7.239   7.885  0.4554  0.6663 -0.4882
  175SAPI  H16R19906   1.823   7.307   7.961 -1.8412 -1.4111  0.2054
  175SAPI  H16S19907   1.877   7.293   7.788  1.1023 -0.7123 -1.2155
  175SAPI  C21719908   2.003   7.196   7.927 -0.4200  0.3645  0.1177
  175SAPI  H17R19909   2.070   7.283   7.946 -1.1249  1.5191 -2.3176
  175SAPI  H17S19910   2.042   7.148   7.835 -1.4549 -2.1117  0.8861
  175SAPI  C21819911   2.027   7.118   8.061 -0.0733 -0.6250  0.4734
  175SAPI  H18R19912   1.971   7.022   8.067 -0.1348 -0.5204  2.2358
  175SAPI  H18S19913   2.000   7.185   8.146 -1.1560 -0.9781  0.4220
  175SAPI  C21919914   2.178   7.082   8.079  0.1170  0.8281 -0.9768
  175SAPI  H19R19915   2.249   7.167   8.081  0.7674  0.3121  2.1846
  175SAPI  H19S19916   2.196   7.024   7.986 -0.1165 -1.3020  0.2397
  175SAPI  C22019917   2.215   6.998   8.203  0.9221 -0.0359  0.5503
  175SAPI  H20R19918   2.144   6.914   8.219 -1.6422  2.1105  1.1063
  175SAPI  H20S19919   2.210   7.061   8.294  0.7350  0.5469  0.1338
  175SAPI  H20T19920   2.316   6.952   8.198  1.0207  0.2501 -0.1382
  175SAPI   C3319921   1.007   6.821   6.720  0.4530  0.2045  0.4612
  175SAPI   H3X19922   0.912   6.877   6.730  0.6243  0.4518  0.7163
  175SAPI   H3Y19923   1.086   6.891   6.753 -0.7941  0.2391  3.7276
  175SAPI   C3419924   1.009   6.694   6.802  0.7972  0.0967 -0.3298
  175SAPI   H4X19925   1.109   6.647   6.806 -0.0219 -1.7925 -0.7404
  175SAPI   H4Y19926   0.933   6.623   6.760 -0.3768  0.7300  0.6474
  175SAPI   C3519927   0.956   6.727   6.942 -0.1347 -0.0515 -0.3951
  175SAPI   H5X19928   0.870   6.797   6.942  0.1496  0.4450  2.5178
  175SAPI   H5Y19929   1.040   6.786   6.985  0.4880 -0.0837 -1.5193
  175SAPI   C3619930   0.939   6.601   7.024  0.1248 -0.2541 -0.1567
  175SAPI   H6X19931   1.030   6.540   7.038  0.3675  0.4814  1.8199
  175SAPI   H6Y19932   0.855   6.546   6.975 -1.0164  2.4418 -1.4660
  175SAPI   C3719933   0.887   6.631   7.170  0.7291  0.1064  0.3422
  175SAPI   H7X19934   0.787   6.679   7.165  1.7054  2.1544 -1.0583
  175SAPI   H7Y19935   0.958   6.705   7.215  0.0152  0.8064  0.3234
  175SAPI   C3819936   0.881   6.515   7.263  0.6524  0.0622  0.5172
  175SAPI   H8X19937   0.945   6.427   7.238 -1.3215 -0.9547 -1.3812
  175SAPI   H8Y19938   0.780   6.472   7.243  1.1201 -1.9797  2.2222
  175SAPI   C3919939   0.892   6.553   7.417  0.7552  0.3964  0.8620
  175SAPI   H9X19940   0.797   6.604   7.442 -0.8512 -2.6324  1.4316
  175SAPI   H9Y19941   0.979   6.621   7.412  1.3415 -0.2786  1.5940
  175SAPI  C31019942   0.911   6.429   7.501 -0.3443 -0.1093 -0.2502
  175SAPI  H10X19943   0.985   6.355   7.465 -1.2435 -1.6966  1.0338
  175SAPI  H10Y19944   0.820   6.367   7.512 -0.9948  0.4731 -1.9539
  175SAPI  C31119945   0.961   6.464   7.644 -0.1931 -0.1710 -0.6252
  175SAPI  H11X19946   0.906   6.550   7.687 -0.8580  0.0255 -1.8378
  175SAPI  H11Y19947   1.069   6.492   7.644  0.0984 -0.9330  2.1003
  175SAPI  C31219948   0.954   6.352   7.747  0.0182  0.0711 -0.0456
  175SAPI  H12X19949   1.034   6.278   7.723  1.6655  1.6990  0.1779
  175SAPI  H12Y19950   0.852   6.309   7.738  0.2864 -0.3027 -1.9203
  175SAPI  C31319951   0.971   6.396   7.901  0.4837 -0.8249 -0.3793
  175SAPI  H13X19952   0.964   6.304   7.964  0.9360 -0.6787 -0.1080
  175SAPI  H13Y19953   0.894   6.472   7.925  1.1588 -0.6177  1.2680
  175SAPI  C31419954   1.107   6.452   7.939  0.0387 -0.5583 -0.1413
  175SAPI  H14X19955   1.132   6.549   7.891 -1.0828 -1.3340 -2.4432
  175SAPI  H14Y19956   1.173   6.375   7.894 -0.2652 -1.7474  1.3619
  175SAPI  C31519957   1.124   6.464   8.098  0.5854 -0.1384  0.5293
  175SAPI  H15X19958   1.111   6.363   8.141  0.9402 -1.0859 -1.4834
  175SAPI  H15Y19959   1.050   6.537   8.139 -0.9239 -1.5451  0.4262
  175SAPI  C31619960   1.263   6.504   8.141  0.1520  0.5980 -0.0593
  175SAPI  H16X19961   1.275   6.611   8.118 -1.8245  0.2627 -3.3286
  175SAPI  H16Y19962   1.327   6.444   8.073 -4.4432 -2.5283 -2.1837
  175SAPI  C31719963   1.288   6.475   8.286  0.6126 -0.2308 -0.4925
  175SAPI  H17X19964   1.194   6.460   8.343  0.7437  0.2945 -0.1325
  175SAPI  H17Y19965   1.344   6.560   8.330  1.3637 -0.4764 -0.9566
  175SAPI  C31819966   1.354   6.341   8.299  0.1617 -0.5505  0.4151
  175SAPI  H18X19967   1.443   6.343   8.232 -1.7042  2.4683 -2.2503
  175SAPI  H18Y19968   1.280   6.265   8.265 -1.9811  2.0754 -1.1362
  175SAPI  H18Z19969   1.373   6.334   8.408 -1.3801 -5.0428  0.5998
  176SAPI   C1219970   6.843   5.280   6.374 -0.3445  0.1090  0.0522
  176SAPI    H219971   6.874   5.218   6.460 -1.2153 -1.2292 -0.5673
  176SAPI    O219972   6.769   5.387   6.439  0.3388 -0.5328  0.1746
  176SAPI   HO219973   6.680   5.356   6.459 -0.6870  2.7847  1.4595
  176SAPI   C1319974   6.960   5.331   6.297 -0.1851  0.9371 -0.8222
  176SAPI    H319975   7.005   5.238   6.256 -1.4676 -1.2199  2.2347
  176SAPI    O319976   7.063   5.380   6.389  0.2014 -0.2381 -0.0943
  176SAPI   HO319977   7.024   5.436   6.456  1.1920 -0.3353  0.5716
  176SAPI   C1419978   6.910   5.421   6.187 -0.3278 -0.3180 -0.2172
  176SAPI    H419979   6.856   5.507   6.230 -1.1596 -0.7159 -0.4524
  176SAPI    O419980   7.021   5.485   6.117 -0.2226 -0.4480  0.5767
  176SAPI   HO419981   7.001   5.571   6.080 -0.5090 -0.0878  1.5278
  176SAPI   C1519982   6.816   5.348   6.085  0.0430 -0.6009 -0.3047
  176SAPI    H519983   6.875   5.268   6.036  0.0509 -0.3531 -0.6997
  176SAPI    O519984   6.773   5.439   5.987  0.6915 -0.6364  0.0364
  176SAPI   HO519985   6.698   5.485   6.025  0.8516 -1.0712  0.9006
  176SAPI   C1619986   6.696   5.283   6.167  0.1156 -0.9705 -0.0255
  176SAPI    H619987   6.637   5.365   6.214  1.5425 -0.4832  1.0095
  176SAPI    O619988   6.614   5.201   6.083 -0.1480 -0.6207 -0.1490
  176SAPI   HO619989   6.526   5.189   6.117 -0.3870 -0.4035 -0.6812
  176SAPI   C1119990   6.753   5.200   6.281 -0.5308  0.8545  0.6430
  176SAPI    H119991   6.820   5.126   6.230 -0.2898  1.5423 -0.0512
  176SAPI     P19992   6.664   4.967   6.372 -0.3682 -0.1015 -0.2241
  176SAPI   O1319993   6.692   4.902   6.239 -0.2444  0.6421  0.0290
  176SAPI   O1419994   6.543   4.923   6.443  0.4121 -0.2690 -0.3431
  176SAPI   O1219995   6.650   5.133   6.354  0.7587  0.2919 -0.0067
  176SAPI   O1119996   6.788   4.952   6.474 -0.4066 -0.5683  0.7541
  176SAPI    C119997   6.926   4.931   6.444 -0.1973 -0.4350  0.7653
  176SAPI    HA19998   6.934   4.833   6.392 -2.9965 -1.1827  1.6074
  176SAPI    HB19999   6.957   5.005   6.366  0.3072 -1.1029  0.3171
  176SAPI    C220000   7.020   4.924   6.572 -0.0050 -0.6740 -0.6028
  176SAPI    HS20001   7.115   4.874   6.547 -0.5136 -0.6896 -2.6801
  176SAPI   O2120002   6.956   4.865   6.677 -0.0817 -0.3745 -0.2372
  176SAPI   C2120003   6.915   4.739   6.661  0.6977  0.3259  0.1772
  176SAPI   O2220004   6.958   4.659   6.578  0.3494 -0.2181  0.5448
  176SAPI   C2220005   6.818   4.713   6.775  0.5106 -0.0990 -0.6199
  176SAPI   H2R20006   6.878   4.717   6.868 -0.4463  1.3565 -0.0224
  176SAPI   H2S20007   6.752   4.803   6.775 -1.0006 -1.1387  0.7800
  176SAPI    C320008   7.064   5.063   6.610  0.1217 -0.3785  0.3149
  176SAPI    HX20009   6.973   5.126   6.622  0.1846 -0.4009  0.9447
  176SAPI    HY20010   7.124   5.116   6.533  0.2919 -1.5142 -0.3510
  176SAPI   O3120011   7.139   5.063   6.736  0.2879  0.0620 -0.1195
  176SAPI   C3120012   7.200   5.185   6.764  1.2530 -0.4580 -0.4805
  176SAPI   O3220013   7.207   5.275   6.681 -0.4510  0.4004 -0.4695
  176SAPI   C3220014   7.236   5.186   6.912 -0.0287 -0.3017  0.1250
  176SAPI   H2X20015   7.324   5.119   6.920  0.2598  0.2637  2.1282
  176SAPI   H2Y20016   7.145   5.159   6.969  0.8564  0.1110  1.7825
  176SAPI   C2320017   6.744   4.576   6.771  0.3567 -0.6041 -0.5480
  176SAPI   H3R20018   6.823   4.499   6.755  1.4737 -0.2706  2.6626
  176SAPI   H3S20019   6.668   4.571   6.690  1.1969 -0.3774 -1.3705
  176SAPI   C2420020   6.666   4.556   6.898 -0.0013  0.1200 -0.2331
  176SAPI   H4R20021   6.613   4.458   6.891  1.5521 -0.9540  1.8732
  176SAPI   H4S20022   6.585   4.632   6.893  0.4340  0.6027  0.0513
  176SAPI   C2520023   6.749   4.558   7.019 -0.2727 -0.6252 -0.5640
  176SAPI   H5R20024   6.850   4.517   7.007 -0.2778 -1.1399  0.9476
  176SAPI   C2620025   6.717   4.602   7.142  0.4356  0.1733 -0.6737
  176SAPI   H6R20026   6.798   4.608   7.216 -0.3910 -0.4409  0.3075
  176SAPI   C2720027   6.590   4.661   7.192  0.3808  0.1782 -0.3499
  176SAPI   H7R20028   6.555   4.730   7.113 -0.9781  0.5097  0.5093
  176SAPI   H7S20029   6.618   4.726   7.278  1.2196 -0.8661  0.1918
  176SAPI   C2820030   6.483   4.554   7.238 -0.3577 -1.2168  0.4257
  176SAPI   H8R20031   6.443   4.511   7.144  0.8954  1.8201 -1.6412
  176SAPI   C2920032   6.422   4.537   7.353 -0.5913  0.0988 -0.0723
  176SAPI   H9R20033   6.351   4.453   7.353  1.3733 -1.6365 -0.7196
  176SAPI  C21020034   6.459   4.611   7.479  0.1910  0.3060 -0.3009
  176SAPI  H10R20035   6.364   4.661   7.507 -0.4193 -0.9146 -0.0968
  176SAPI  H10S20036   6.541   4.685   7.470  3.7338 -3.2787 -0.4463
  176SAPI  C21120037   6.482   4.519   7.599 -0.3943 -0.0688  0.3657
  176SAPI  H11R20038   6.403   4.442   7.598  0.9962 -1.5486 -1.5228
  176SAPI  C21220039   6.574   4.520   7.696 -0.1957 -0.1186 -0.9501
  176SAPI  H12R20040   6.566   4.444   7.775 -1.9756  1.6669  0.7001
  176SAPI  C21320041   6.687   4.615   7.720 -0.8337 -0.5670 -0.1851
  176SAPI  H13R20042   6.663   4.718   7.684  0.3435 -0.0929  0.3201
  176SAPI  H13S20043   6.781   4.585   7.668 -0.5831 -0.2349  0.0671
  176SAPI  C21420044   6.716   4.643   7.864  0.1181  0.1409  0.3872
  176SAPI  H14R20045   6.812   4.605   7.903 -1.3233 -2.8119  1.2816
  176SAPI  C21520046   6.638   4.694   7.954  0.5971 -0.1203  0.5125
  176SAPI  H15R20047   6.685   4.716   8.051  0.6720  0.6418  0.3090
  176SAPI  C21620048   6.498   4.738   7.940  0.3076 -0.0760  1.0403
  176SAPI  H16R20049   6.458   4.693   7.847  0.3418 -1.0827  1.4881
  176SAPI  H16S20050   6.491   4.846   7.915  1.0947 -0.4559 -1.0423
  176SAPI  C21720051   6.401   4.709   8.053 -0.1877  0.1926  0.0295
  176SAPI  H17R20052   6.297   4.727   8.021 -0.5066 -2.0176 -0.3251
  176SAPI  H17S20053   6.430   4.777   8.136  0.7220 -1.2510  0.9404
  176SAPI  C21820054   6.404   4.565   8.097 -0.3631 -0.3586  0.1812
  176SAPI  H18R20055   6.496   4.537   8.153  0.8479 -0.7026 -1.8855
  176SAPI  H18S20056   6.406   4.504   8.005  0.5836  0.2133 -0.1912
  176SAPI  C21920057   6.277   4.533   8.187 -0.2843 -1.3337 -0.5028
  176SAPI  H19R20058   6.190   4.566   8.127  0.6796  2.6873 -0.0139
  176SAPI  H19S20059   6.268   4.596   8.278  1.8217 -1.4380 -0.1846
  176SAPI  C22020060   6.268   4.392   8.229 -0.1948  0.5641 -1.1607
  176SAPI  H20R20061   6.344   4.358   8.303 -0.2789 -0.5670 -1.5834
  176SAPI  H20S20062   6.275   4.332   8.136  1.5366  0.4487 -0.9871
  176SAPI  H20T20063   6.168   4.368   8.271 -0.1270 -0.0590 -1.3496
  176SAPI   C3320064   7.277   5.326   6.957 -0.4651  0.0061 -0.2046
  176SAPI   H3X20065   7.200   5.403   6.934 -2.2690 -1.0082  1.9766
  176SAPI   H3Y20066   7.373   5.358   6.911 -0.2405  1.6864  1.3359
  176SAPI   C3420067   7.313   5.333   7.110  0.9234  0.9282 -0.5565
  176SAPI   H4X20068   7.356   5.435   7.125 -0.0514  1.2065  0.4827
  176SAPI   H4Y20069   7.383   5.253   7.142 -0.2539  1.1796  3.0176
  176SAPI   C3520070   7.182   5.324   7.198 -0.5387 -0.4733  0.1068
  176SAPI   H5X20071   7.148   5.218   7.195 -0.1072 -0.5874 -0.8943
  176SAPI   H5Y20072   7.111   5.393   7.148  0.3383  0.6101  0.3151
  176SAPI   C3620073   7.211   5.376   7.340  0.1088  0.6623 -0.3037
  176SAPI   H6X20074   7.270   5.468   7.321  3.2308 -1.0556  0.2042
  176SAPI   H6Y20075   7.276   5.315   7.407 -0.8540  2.4380  2.4280
  176SAPI   C3720076   7.080   5.419   7.411  0.1470  0.3105 -0.1951
  176SAPI   H7X20077   6.995   5.350   7.393 -1.2743  1.6991  0.9106
  176SAPI   H7Y20078   7.046   5.511   7.361  0.2157  0.8469  0.7200
  176SAPI   C3820079   7.090   5.441   7.567  0.5929 -0.6763  0.5728
  176SAPI   H8X20080   7.012   5.512   7.601  0.0970 -0.4362 -0.9700
  176SAPI   H8Y20081   7.184   5.499   7.577  0.7805 -0.8352 -0.1930
  176SAPI   C3920082   7.091   5.316   7.648  0.3008  0.2091 -0.5684
  176SAPI   H9X20083   7.174   5.247   7.622  1.4766  1.1586  0.5749
  176SAPI   H9Y20084   6.996   5.267   7.618 -0.5619  1.5967 -0.1776
  176SAPI  C31020085   7.086   5.339   7.797 -0.1990 -0.0315  0.3030
  176SAPI  H10X20086   7.069   5.242   7.849 -0.2572 -1.3554 -2.0567
  176SAPI  H10Y20087   6.993   5.394   7.824 -1.6799 -2.1122 -0.2529
  176SAPI  C31120088   7.205   5.407   7.865  0.3534 -0.0188 -0.3866
  176SAPI  H11X20089   7.232   5.502   7.814  0.3297  0.9688  1.3384
  176SAPI  H11Y20090   7.295   5.342   7.863  0.9278  0.6445  1.2617
  176SAPI  C31220091   7.171   5.447   8.006 -0.0416  0.5844  1.1426
  176SAPI  H12X20092   7.069   5.490   7.992 -0.2675 -0.4281 -0.4970
  176SAPI  H12Y20093   7.247   5.522   8.036  1.8168 -1.0559  0.7670
  176SAPI  C31320094   7.171   5.339   8.121 -0.2062 -0.0535  0.4651
  176SAPI  H13X20095   7.263   5.278   8.108  0.6182  1.3119 -0.3733
  176SAPI  H13Y20096   7.081   5.275   8.113 -1.0260  1.3034 -3.9542
  176SAPI  C31420097   7.173   5.403   8.259  0.1217  0.3395 -0.3073
  176SAPI  H14X20098   7.104   5.489   8.243 -0.5235 -0.4524 -1.9325
  176SAPI  H14Y20099   7.274   5.446   8.275 -0.3782  1.9036 -1.1210
  176SAPI  C31520100   7.132   5.290   8.364  0.0878  0.2347 -0.2976
  176SAPI  H15X20101   7.175   5.191   8.336  1.8638  1.2532 -1.4034
  176SAPI  H15Y20102   7.022   5.283   8.365  0.1028  0.0200  1.1811
  176SAPI  C31620103   7.190   5.314   8.501  0.3746  0.0041  0.2751
  176SAPI  H16X20104   7.155   5.417   8.521 -1.7942 -0.1482 -2.2310
  176SAPI  H16Y20105   7.300   5.325   8.491  0.3501  0.2278  0.2460
  176SAPI  C31720106   7.145   5.217   8.610 -0.3119 -0.0266  0.1533
  176SAPI  H17X20107   7.034   5.205   8.607 -0.5781  2.2715 -0.8195
  176SAPI  H17Y20108   7.164   5.265   8.708 -1.4522 -0.2946  0.5221
  176SAPI  C31820109   7.206   5.078   8.606 -0.0689 -0.5133  0.2662
  176SAPI  H18X20110   7.132   4.996   8.604 -0.2803 -0.3121 -0.4456
  176SAPI  H18Y20111   7.261   5.059   8.701 -1.5148  0.7226  1.4013
  176SAPI  H18Z20112   7.275   5.053   8.522 -0.1836 -1.2466  0.3865
  177SLPC     N20113   4.788   3.687  10.689 -0.6021  0.5921 -0.5531
  177SLPC   C1320114   4.902   3.600  10.734  0.2539 -0.0119  0.6221
  177SLPC  H13A20115   4.895   3.501  10.691 -1.4448 -0.1086  1.0435
  177SLPC  H13B20116   4.997   3.640  10.701  0.3621 -2.0893 -1.9139
  177SLPC  H13C20117   4.905   3.601  10.842 -2.1847  0.4153  0.7227
  177SLPC   C1420118   4.658   3.615  10.699 -0.2934 -0.1552 -0.6571
  177SLPC  H14A20119   4.616   3.593  10.602 -0.2385  0.2843 -0.7815
  177SLPC  H14B20120   4.660   3.542  10.778  0.0212 -1.0865 -1.5037
  177SLPC  H14C20121   4.585   3.683  10.741 -0.0190  1.5248 -2.7302
  177SLPC   C1520122   4.804   3.718  10.543  0.2080  0.5306  0.0276
  177SLPC  H15A20123   4.831   3.622  10.499 -1.2311 -0.4123  1.1219
  177SLPC  H15B20124   4.714   3.745  10.490  1.5466  2.0619 -1.5850
  177SLPC  H15C20125   4.879   3.795  10.533 -0.8898  1.9395  2.0538
  177SLPC   C1220126   4.792   3.817  10.780 -0.0800  1.0904  0.2966
  177SLPC  H12A20127   4.763   3.788  10.880 -1.1330  0.8321 -0.0757
  177SLPC  H12B20128   4.716   3.883  10.741  2.0831  2.9916 -0.9884
  177SLPC   C1120129   4.924   3.908  10.774  0.9304  0.2565  0.0086
  177SLPC  H11A20130   5.002   3.839  10.813 -1.2304 -2.7314 -0.6001
  177SLPC  H11B20131   4.901   3.994  10.840 -0.1406  1.0744 -1.3871
  177SLPC     P20132   5.082   4.020  10.603  0.4459  0.1151  0.2022
  177SLPC   O1320133   5.098   4.125  10.706  0.2206  0.0126  0.9856
  177SLPC   O1420134   5.185   3.918  10.599 -0.5334 -0.0325 -0.8821
  177SLPC   O1220135   4.950   3.952  10.639 -0.2649  0.0815  0.0539
  177SLPC   O1120136   5.061   4.089  10.463 -0.1510 -0.2857  0.1646
  177SLPC    C120137   5.035   4.012  10.348  0.2131 -0.6556  0.3737
  177SLPC    HA20138   5.103   4.041  10.265 -0.6625 -1.7957 -0.7761
  177SLPC    HB20139   5.060   3.905  10.365  0.2796 -0.7312 -0.1764
  177SLPC    C220140   4.891   4.010  10.297 -0.7613  0.2929  0.1537
  177SLPC    HS20141   4.832   3.966  10.381  0.4592  0.3562  1.0786
  177SLPC   O2120142   4.894   3.923  10.183  0.0866 -0.0111  0.3059
  177SLPC   C2120143   4.796   3.838  10.170 -0.6368 -0.5604  0.0025
  177SLPC   O2220144   4.708   3.825  10.248  0.0156 -0.1159  0.0721
  177SLPC   C2220145   4.811   3.759  10.040  0.5503 -0.0710  0.3241
  177SLPC   H2R20146   4.914   3.782  10.008  1.0770  1.2638  2.7130
  177SLPC   H2S20147   4.799   3.654  10.076  0.3631  0.1074  0.7929
  177SLPC    C320148   4.836   4.149  10.254 -0.4260 -0.6815  0.1397
  177SLPC    HX20149   4.817   4.208  10.347 -1.6286 -1.3190  0.3142
  177SLPC    HY20150   4.736   4.148  10.207 -0.3929  2.4378 -0.1911
  177SLPC   O3120151   4.930   4.208  10.162 -0.2651  0.0424 -0.1998
  177SLPC   C3120152   4.920   4.337  10.152  0.3545 -0.0517 -0.1190
  177SLPC   O3220153   4.833   4.406  10.200  0.3100  0.0992  0.4716
  177SLPC   C3220154   5.043   4.392  10.072  0.0115  0.4851 -0.3575
  177SLPC   H2X20155   5.137   4.339  10.099  0.4385  0.7310 -1.3375
  177SLPC   H2Y20156   5.057   4.493  10.115  1.5041 -0.5831  1.8943
  177SLPC   C2320157   4.709   3.806   9.932 -0.2340  1.3283  0.0618
  177SLPC   H3R20158   4.605   3.813   9.969 -0.5848 -0.4966 -0.4791
  177SLPC   H3S20159   4.698   3.725   9.857  0.5233 -0.5128  1.8659
  177SLPC   C2420160   4.755   3.937   9.883 -0.1261 -1.0122  0.0214
  177SLPC   H4R20161   4.863   3.957   9.897 -0.2785  0.3221 -0.4869
  177SLPC   H4S20162   4.704   4.003   9.957 -0.2686 -1.6883  0.5313
  177SLPC   C2520163   4.705   3.972   9.745  0.2962 -0.0759  0.2525
  177SLPC   H5R20164   4.601   3.933   9.737  0.5829 -0.6781 -0.6284
  177SLPC   H5S20165   4.772   3.933   9.666  0.2313 -0.4979  0.4052
  177SLPC   C2620166   4.699   4.125   9.730  0.2399  0.0358 -0.4841
  177SLPC   H6R20167   4.803   4.163   9.741 -1.0381  3.2102  2.1472
  177SLPC   H6S20168   4.639   4.180   9.805  0.9423  2.0868 -1.3498
  177SLPC   C2720169   4.644   4.157   9.592 -0.0979 -0.1928  0.0232
  177SLPC   H7R20170   4.545   4.108   9.580 -0.0687  0.0784 -1.6120
  177SLPC   H7S20171   4.717   4.128   9.514 -0.6456 -0.5848 -0.3571
  177SLPC   C2820172   4.596   4.309   9.575  0.2054  0.2894  0.1961
  177SLPC   H8R20173   4.533   4.338   9.661 -2.8579  0.4080 -1.9258
  177SLPC   H8S20174   4.538   4.309   9.480 -1.0859  0.5068  0.9559
  177SLPC   C2920175   4.719   4.399   9.576 -0.1807  0.0619 -0.0338
  177SLPC   H9R20176   4.794   4.377   9.654  0.3618  1.2848 -0.1908
  177SLPC  C21020177   4.737   4.505   9.493 -0.9932 -0.0490  0.0442
  177SLPC  H10R20178   4.830   4.562   9.506 -1.6620  2.1550 -3.3154
  177SLPC  C21120179   4.653   4.560   9.371  0.1090 -0.2691 -0.0439
  177SLPC  H11R20180   4.547   4.531   9.385  0.0128 -0.2146 -0.6395
  177SLPC  H11S20181   4.654   4.670   9.385  1.1823 -0.3654  0.8030
  177SLPC  C21220182   4.707   4.506   9.245 -0.4832 -0.3563  0.3293
  177SLPC  H12R20183   4.730   4.398   9.246  1.2854 -0.0102  0.1639
  177SLPC  C21320184   4.712   4.570   9.126 -0.0048  0.4041 -0.8580
  177SLPC  H13R20185   4.750   4.512   9.041  2.8648  0.1572  0.4951
  177SLPC  C21420186   4.666   4.713   9.102 -0.1238 -0.5191  0.0046
  177SLPC  H14R20187   4.661   4.774   9.195  1.4272  0.2920 -0.4065
  177SLPC  H14S20188   4.566   4.709   9.056 -0.6706  2.0447  0.8186
  177SLPC  C21520189   4.755   4.790   8.996 -0.0270  0.7954  0.4905
  177SLPC  H15R20190   4.747   4.746   8.894  1.0174  1.3829  0.1301
  177SLPC  H15S20191   4.859   4.783   9.034 -0.6506 -0.0734  2.0904
  177SLPC  C21620192   4.730   4.946   8.983 -0.7534  0.5373 -0.5831
  177SLPC  H16R20193   4.624   4.962   8.953 -0.6368  0.1576 -1.1994
  177SLPC  H16S20194   4.792   4.987   8.901  1.3637  1.1160  1.2233
  177SLPC  C21720195   4.749   5.025   9.112  0.2673 -0.7806 -0.6130
  177SLPC  H17R20196   4.673   4.993   9.187  0.1708  0.8764  0.0390
  177SLPC  H17S20197   4.728   5.132   9.089 -0.6140 -0.4414  1.5422
  177SLPC  C21820198   4.878   5.025   9.189 -0.6907 -0.0636 -0.5061
  177SLPC  H18R20199   4.963   5.056   9.124 -0.6479 -0.6533 -0.7335
  177SLPC  H18S20200   4.903   4.925   9.229 -1.0169  0.3123  0.6949
  177SLPC  H18T20201   4.876   5.083   9.284 -2.4138  0.5411 -0.8713
  177SLPC   C3320202   5.016   4.393   9.925 -0.4651  0.1312  0.1985
  177SLPC   H3X20203   4.914   4.435   9.910 -1.1572 -1.3330  0.5380
  177SLPC   H3Y20204   5.017   4.293   9.877  1.0542  0.1496  0.1305
  177SLPC   C3420205   5.120   4.481   9.848  0.5805 -0.0516 -0.5416
  177SLPC   H4X20206   5.219   4.451   9.888 -0.3075 -2.4848 -0.0524
  177SLPC   H4Y20207   5.095   4.588   9.866 -1.8309 -0.4154 -1.4063
  177SLPC   C3520208   5.121   4.445   9.696  0.6235 -0.1431  0.5433
  177SLPC   H5X20209   5.020   4.406   9.672 -0.8985  2.2701  2.5447
  177SLPC   H5Y20210   5.200   4.367   9.688 -0.7107 -1.3930 -1.3267
  177SLPC   C3620211   5.159   4.561   9.594 -1.0190 -0.5214 -0.2992
  177SLPC   H6X20212   5.260   4.602   9.617 -2.0539  1.2076  1.4381
  177SLPC   H6Y20213   5.089   4.647   9.601 -0.2067  0.0707  0.7553
  177SLPC   C3720214   5.154   4.523   9.441  0.4315  0.7385  0.5581
  177SLPC   H7X20215   5.054   4.479   9.424  1.5288 -2.3855  1.5072
  177SLPC   H7Y20216   5.229   4.447   9.409 -2.2249 -2.6798  1.8569
  177SLPC   C3820217   5.164   4.648   9.355  0.1946 -0.3750  0.1695
  177SLPC   H8X20218   5.266   4.691   9.362  0.2240 -0.1882 -1.1825
  177SLPC   H8Y20219   5.085   4.719   9.387 -1.0296 -2.0454  0.9548
  177SLPC   C3920220   5.144   4.612   9.209 -0.6879  0.3762 -0.1099
  177SLPC   H9X20221   5.037   4.608   9.181 -0.0937 -0.0384 -2.5344
  177SLPC   H9Y20222   5.200   4.518   9.188 -2.3486 -0.5050 -0.7537
  177SLPC  C31020223   5.210   4.720   9.129  0.1233  0.0887  0.6286
  177SLPC  H10X20224   5.317   4.724   9.160  0.0035 -0.9383  1.1955
  177SLPC  H10Y20225   5.152   4.810   9.158 -2.5034 -0.9179 -1.0928
  177SLPC  C31120226   5.202   4.691   8.975  0.1920  0.3657  0.5337
  177SLPC  H11X20227   5.100   4.665   8.941  0.5993  0.2219 -0.6257
  177SLPC  H11Y20228   5.255   4.598   8.945 -0.1467  0.1811  0.5003
  177SLPC  C31220229   5.251   4.810   8.890  0.8497 -0.4136  0.5963
  177SLPC  H12X20230   5.352   4.831   8.932  0.7023 -3.4058  2.8494
  177SLPC  H12Y20231   5.187   4.899   8.906  1.5813  1.0344 -3.3717
  177SLPC  C31320232   5.247   4.771   8.747 -0.1168 -0.4630 -0.0591
  177SLPC  H13X20233   5.144   4.767   8.705  0.1482 -4.2783 -0.7203
  177SLPC  H13Y20234   5.280   4.665   8.737 -1.0537 -0.5619 -3.1497
  177SLPC  C31420235   5.338   4.853   8.655 -0.4603  0.4650 -0.2540
  177SLPC  H14X20236   5.441   4.843   8.695 -0.6778  1.4580  0.5903
  177SLPC  H14Y20237   5.304   4.958   8.667 -0.1689  0.4759  0.5096
  177SLPC  C31520238   5.335   4.807   8.508  0.4213  0.5813  0.2358
  177SLPC  H15X20239   5.369   4.898   8.454 -0.5773 -0.0895 -1.6134
  177SLPC  H15Y20240   5.229   4.800   8.477 -0.4221  2.0299  2.4983
  177SLPC  C31620241   5.421   4.693   8.469 -0.0773 -0.9261 -0.7009
  177SLPC  H16X20242   5.416   4.625   8.557 -2.4080  0.6805  0.5071
  177SLPC  H16Y20243   5.528   4.722   8.463 -0.0196 -1.2880 -1.7086
  177SLPC  C31720244   5.382   4.607   8.348  0.7230 -0.6232 -0.4671
  177SLPC  H17X20245   5.390   4.676   8.262 -1.7777 -0.0278 -0.2849
  177SLPC  H17Y20246   5.278   4.569   8.360  0.3460  0.5975  0.2640
  177SLPC  C31820247   5.482   4.498   8.326  0.4007  0.5907  0.0198
  177SLPC  H18X20248   5.466   4.416   8.400 -2.6205  0.5387 -0.5488
  177SLPC  H18Y20249   5.583   4.539   8.348  0.8967  2.2707 -4.4930
  177SLPC  H18Z20250   5.486   4.457   8.223 -0.9578  1.6523 -0.4806
  178SLPC     N20251   2.802   0.026  10.897 -0.3173  0.1840  0.0064
  178SLPC   C1320252   2.947   0.011  10.951 -0.1050  0.8603 -0.7205
  178SLPC  H13A20253   3.021   0.002  10.873 -0.1466 -0.4453 -0.6356
  178SLPC  H13B20254   2.966   0.104  11.001 -0.7877  0.7633 -0.2749
  178SLPC  H13C20255   2.956  -0.066  11.027  3.5145  1.1636 -0.6628
  178SLPC   C1420256   2.717   0.030  11.019  0.1675  0.4557 -0.2560
  178SLPC  H14A20257   2.758   0.102  11.088  1.3678  2.3207 -2.7359
  178SLPC  H14B20258   2.611   0.050  11.005 -0.2532 -0.7633  0.9920
  178SLPC  H14C20259   2.731  -0.065  11.069 -0.6894  1.0109  1.0759
  178SLPC   C1520260   2.770  -0.084  10.800 -0.9348 -0.6201 -0.1938
  178SLPC  H15A20261   2.671  -0.072  10.759 -1.0620  0.4348  0.3830
  178SLPC  H15B20262   2.846  -0.097  10.725 -1.1609 -2.5918 -0.1362
  178SLPC  H15C20263   2.775  -0.177  10.855  2.8088 -1.6177 -1.8948
  178SLPC   C1220264   2.780   0.164  10.831  0.2517  0.4670  0.2008
  178SLPC  H12A20265   2.678   0.170  10.796 -0.9172 -1.1455  2.9931
  178SLPC  H12B20266   2.849   0.171  10.748 -0.3580 -1.3226 -0.5192
  178SLPC   C1120267   2.800   0.290  10.920 -0.4641  0.5655  0.1403
  178SLPC  H11A20268   2.720   0.280  10.996  0.5873  1.7324  1.4686
  178SLPC  H11B20269   2.768   0.380  10.864 -2.7457 -0.3843 -0.1956
  178SLPC     P20270   3.060   0.333  10.875 -0.0038 -0.2599 -0.3573
  178SLPC   O1320271   3.053   0.478  10.834 -0.3200  0.5130  0.2607
  178SLPC   O1420272   3.186   0.294  10.952  0.4774 -0.0144  0.2297
  178SLPC   O1220273   2.932   0.307  10.972 -0.5846  0.7836  0.0670
  178SLPC   O1120274   3.043   0.230  10.754 -0.5850 -0.2579  0.1382
  178SLPC    C120275   3.140   0.254  10.652  1.2086  0.2439  0.4121
  178SLPC    HA20276   3.142   0.359  10.617 -3.1964  0.5825  0.6209
  178SLPC    HB20277   3.244   0.246  10.688  1.3363  2.6026  0.7218
  178SLPC    C220278   3.113   0.158  10.530 -0.3151 -0.1320 -0.5212
  178SLPC    HS20279   3.213   0.139  10.484  0.2836  0.6473  0.4102
  178SLPC   O2120280   3.023   0.232  10.447  0.0913 -0.0303 -0.1276
  178SLPC   C2120281   3.019   0.191  10.321 -0.0107  0.1658 -0.9942
  178SLPC   O2220282   3.083   0.104  10.271 -0.1083 -0.0069 -0.3209
  178SLPC   C2220283   2.909   0.273  10.253 -0.5242 -0.5009 -0.3109
  178SLPC   H2R20284   2.815   0.277  10.312 -1.5933 -1.1970 -1.9173
  178SLPC   H2S20285   2.944   0.378  10.257  3.1532 -1.6145  0.2630
  178SLPC    C320286   3.050   0.014  10.565  0.0825  0.0700 -0.0785
  178SLPC    HX20287   2.962   0.048  10.624 -0.2158  0.2386 -0.6102
  178SLPC    HY20288   3.131  -0.042  10.616  0.0429 -3.2992 -3.2676
  178SLPC   O3120289   2.994  -0.064  10.452  0.2680 -0.8724  0.0214
  178SLPC   C3120290   3.066  -0.168  10.422  0.1158  0.4078 -0.6653
  178SLPC   O3220291   3.151  -0.229  10.489  0.4265 -0.4769  0.9204
  178SLPC   C3220292   3.030  -0.222  10.286 -0.2112 -0.3096 -0.4164
  178SLPC   H2X20293   3.057  -0.329  10.275 -0.0370 -0.1567 -1.6814
  178SLPC   H2Y20294   3.101  -0.182  10.210  1.5967 -1.4308  0.5963
  178SLPC   C2320295   2.864   0.232  10.115 -0.2002 -0.2106 -0.4047
  178SLPC   H3R20296   2.760   0.270  10.103 -0.2309  0.4277  1.4572
  178SLPC   H3S20297   2.846   0.122  10.115 -0.6033 -0.1543  0.4149
  178SLPC   C2420298   2.957   0.258  10.001  0.1577 -0.4385  0.1932
  178SLPC   H4R20299   3.050   0.205  10.028  1.0043  0.9390  0.0572
  178SLPC   H4S20300   2.978   0.366   9.994 -0.3830 -0.2845  0.8778
  178SLPC   C2520301   2.894   0.208   9.874  0.2033  0.3428 -0.4625
  178SLPC   H5R20302   2.784   0.221   9.887 -0.0058 -2.2363  1.0492
  178SLPC   H5S20303   2.902   0.097   9.868 -2.8240 -0.0407  0.6448
  178SLPC   C2620304   2.954   0.269   9.745 -0.5666  1.1415  0.3859
  178SLPC   H6R20305   3.059   0.236   9.736 -0.8368 -0.1419  1.6547
  178SLPC   H6S20306   2.948   0.380   9.756  0.3991  1.2962 -0.4704
  178SLPC   C2720307   2.881   0.222   9.618  0.9515  0.0579  0.3631
  178SLPC   H7R20308   2.771   0.223   9.633  0.9007  0.9363 -0.0445
  178SLPC   H7S20309   2.904   0.113   9.611  0.9888  0.1139 -0.5083
  178SLPC   C2820310   2.923   0.307   9.493 -0.2451 -0.0675 -0.6844
  178SLPC   H8R20311   3.034   0.297   9.499 -0.0891  1.4467 -0.5639
  178SLPC   H8S20312   2.904   0.414   9.516 -1.9282 -0.3832 -0.5060
  178SLPC   C2920313   2.871   0.278   9.356 -0.0767 -0.2830 -0.3222
  178SLPC   H9R20314   2.790   0.349   9.332  2.2372  3.3563  1.6643
  178SLPC  C21020315   2.924   0.194   9.266 -0.3359 -0.4799  0.3859
  178SLPC  H10R20316   2.866   0.190   9.173  1.9170 -1.2368 -1.0762
  178SLPC  C21120317   3.043   0.101   9.269  0.1944  0.6898  0.4685
  178SLPC  H11R20318   3.008  -0.004   9.257 -1.6799  0.9506  2.9529
  178SLPC  H11S20319   3.092   0.108   9.368 -0.3230  1.1139  0.7018
  178SLPC  C21220320   3.139   0.136   9.161  0.4953  0.4055 -0.5043
  178SLPC  H12R20321   3.215   0.208   9.196 -0.0571 -0.1512  2.0200
  178SLPC  C21320322   3.141   0.087   9.031  0.5737  0.1259 -0.6222
  178SLPC  H13R20323   3.221   0.123   8.964  1.2064  1.7971  0.9707
  178SLPC  C21420324   3.035  -0.008   8.971  0.4175  0.5041 -0.1574
  178SLPC  H14R20325   2.947   0.003   9.038  0.6408  1.8206 -0.0669
  178SLPC  H14S20326   3.066  -0.115   8.979  1.7275  0.8554 -0.4216
  178SLPC  C21520327   2.969   0.023   8.840 -0.5053 -0.2292  0.4769
  178SLPC  H15R20328   2.933   0.128   8.827  0.9014  0.6422  2.9018
  178SLPC  H15S20329   2.886  -0.046   8.816 -0.4286  0.3040 -1.4982
  178SLPC  C21620330   3.058  -0.000   8.719 -0.2084  0.4447 -0.2290
  178SLPC  H16R20331   3.118  -0.093   8.729 -1.1908 -0.4127 -1.8270
  178SLPC  H16S20332   3.138   0.076   8.709 -0.9211  1.1020 -1.1384
  178SLPC  C21720333   2.978  -0.010   8.594 -0.1463 -0.7814 -1.3207
  178SLPC  H17R20334   2.930   0.090   8.588  0.9469 -0.2577 -1.7383
  178SLPC  H17S20335   2.896  -0.083   8.605 -1.4564  0.7136 -0.7551
  178SLPC  C21820336   3.057  -0.036   8.464  0.3078  0.2422  0.1335
  178SLPC  H18R20337   3.145   0.032   8.456 -0.6195  1.2126 -3.3981
  178SLPC  H18S20338   2.992  -0.024   8.375 -0.7977 -0.6657  0.7989
  178SLPC  H18T20339   3.091  -0.142   8.461 -0.9246 -0.1881 -3.5323
  178SLPC   C3320340   2.890  -0.195  10.217 -0.7894 -0.5021  0.0416
  178SLPC   H3X20341   2.882  -0.088  10.189 -3.3336 -0.6417  0.0489
  178SLPC   H3Y20342   2.801  -0.222  10.278  0.2825 -0.6380  1.6048
  178SLPC   C3420343   2.875  -0.270  10.080  0.0532 -0.1800  0.2459
  178SLPC   H4X20344   2.776  -0.241  10.040 -0.5831  0.1971  1.9977
  178SLPC   H4Y20345   2.874  -0.381  10.081  0.3019 -0.2586 -2.3504
  178SLPC   C3520346   2.990  -0.228   9.989  0.7519 -0.0343 -0.2859
  178SLPC   H5X20347   3.076  -0.287  10.027  0.3125  0.1984  1.1532
  178SLPC   H5Y20348   3.007  -0.119  10.001  0.9851 -0.0688 -0.2855
  178SLPC   C3620349   2.959  -0.236   9.835  0.7443  0.4036 -0.8401
  178SLPC   H6X20350   2.881  -0.159   9.815 -0.7787 -1.1734 -1.3073
  178SLPC   H6Y20351   2.921  -0.338   9.810  0.4800 -0.6546  3.1849
  178SLPC   C3720352   3.091  -0.205   9.750  0.3584  0.3894  0.5113
  178SLPC   H7X20353   3.174  -0.275   9.770 -0.3624 -1.5623 -2.6537
  178SLPC   H7Y20354   3.115  -0.102   9.787  1.8226  0.3329 -0.2228
  178SLPC   C3820355   3.055  -0.209   9.604  0.2344  0.2623  0.1408
  178SLPC   H8X20356   3.130  -0.166   9.533 -1.5599  3.6669  0.1145
  178SLPC   H8Y20357   2.957  -0.157   9.597 -0.5830 -1.1293  0.7170
  178SLPC   C3920358   3.042  -0.355   9.549 -0.6760  0.5760 -0.8072
  178SLPC   H9X20359   2.962  -0.411   9.602  1.2335 -1.6095 -0.0792
  178SLPC   H9Y20360   3.135  -0.405   9.583 -0.3108  2.2876  0.8940
  178SLPC  C31020361   3.032  -0.369   9.401  0.2678  0.2875  0.4412
  178SLPC  H10X20362   2.949  -0.301   9.369 -0.3587 -1.7275 -2.6194
  178SLPC  H10Y20363   3.010  -0.473   9.368 -0.1699  0.1174  1.2417
  178SLPC  C31120364   3.158  -0.330   9.326 -0.4342 -0.5841 -0.2358
  178SLPC  H11X20365   3.230  -0.413   9.347  0.2761  0.1826  0.4234
  178SLPC  H11Y20366   3.191  -0.230   9.362  2.2814 -1.3538 -0.3739
  178SLPC  C31220367   3.135  -0.329   9.175  0.3101  0.5070 -0.0148
  178SLPC  H12X20368   3.039  -0.276   9.158  0.3815  0.8452  0.6388
  178SLPC  H12Y20369   3.106  -0.434   9.154 -0.3312  0.6125  0.3454
  178SLPC  C31320370   3.258  -0.280   9.099  0.2510 -0.0138  0.2371
  178SLPC  H13X20371   3.332  -0.346   9.149 -0.9672 -1.7290 -0.1474
  178SLPC  H13Y20372   3.279  -0.171   9.110 -2.2635  0.4000  1.4856
  178SLPC  C31420373   3.246  -0.311   8.947 -0.4321  0.2148  0.8472
  178SLPC  H14X20374   3.171  -0.248   8.896  1.4655  2.9739  1.2467
  178SLPC  H14Y20375   3.212  -0.416   8.935  0.0685  0.3280 -2.4187
  178SLPC  C31520376   3.375  -0.271   8.871 -0.3248  0.5010  0.4414
  178SLPC  H15X20377   3.403  -0.168   8.902 -0.1768  0.7109 -0.3749
  178SLPC  H15Y20378   3.448  -0.348   8.906 -0.2727 -0.8256 -2.3512
  178SLPC  C31620379   3.377  -0.280   8.719 -0.0247  0.3467  0.2105
  178SLPC  H16X20380   3.319  -0.200   8.669  0.4784  1.1873  0.9530
  178SLPC  H16Y20381   3.328  -0.376   8.690  1.5934  0.0322 -1.6717
  178SLPC  C31720382   3.524  -0.266   8.666 -0.6200  0.0766  0.1979
  178SLPC  H17X20383   3.595  -0.327   8.726  2.6784  1.0219 -2.4280
  178SLPC  H17Y20384   3.562  -0.162   8.681  1.9161 -1.2509  4.8163
  178SLPC  C31820385   3.524  -0.310   8.517  0.0621 -0.0875  0.1896
  178SLPC  H18X20386   3.480  -0.411   8.510  0.5862 -0.2556 -0.9191
  178SLPC  H18Y20387   3.627  -0.327   8.478  0.8546 -0.9490  2.4785
  178SLPC  H18Z20388   3.466  -0.244   8.449  0.9536  0.4059 -0.1192
  179SLPC     N20389   6.650   5.914  10.656 -0.2688  0.5341 -0.6410
  179SLPC   C1320390   6.687   5.810  10.753  0.0549  0.6179 -0.8390
  179SLPC  H13A20391   6.790   5.802  10.784 -0.3626 -0.3198  0.3911
  179SLPC  H13B20392   6.628   5.808  10.843  1.6206 -0.6826  0.1967
  179SLPC  H13C20393   6.657   5.718  10.705  0.1768  1.0147 -1.6932
  179SLPC   C1420394   6.740   5.902  10.535  0.0800  0.1665 -0.7721
  179SLPC  H14A20395   6.695   5.947  10.447 -1.3396 -1.8727 -1.1662
  179SLPC  H14B20396   6.833   5.952  10.555  0.2813 -0.1741 -0.8525
  179SLPC  H14C20397   6.769   5.802  10.509  0.0814  0.0111 -0.1744
  179SLPC   C1520398   6.662   6.052  10.716  0.3705  0.6310  0.4971
  179SLPC  H15A20399   6.592   6.074  10.795  1.0595  0.1168  1.2677
  179SLPC  H15B20400   6.763   6.062  10.752  0.4256 -1.8477  1.2007
  179SLPC  H15C20401   6.642   6.115  10.630 -0.3743 -0.6276 -0.2884
  179SLPC   C1220402   6.502   5.883  10.611 -0.1449  0.2471  0.2175
  179SLPC  H12A20403   6.481   5.969  10.550 -0.4528 -0.1774 -0.2772
  179SLPC  H12B20404   6.441   5.889  10.700 -0.3912  0.8950  0.0047
  179SLPC   C1120405   6.476   5.747  10.539 -0.2731  0.2142 -0.7197
  179SLPC  H11A20406   6.504   5.748  10.431  1.8483 -0.5942 -0.2393
  179SLPC  H11B20407   6.366   5.737  10.535 -0.2683  0.4660 -2.4368
  179SLPC     P20408   6.607   5.518  10.532  0.1686  0.5746  0.1344
  179SLPC   O1320409   6.690   5.581  10.429  0.4015  0.5139 -0.5181
  179SLPC   O1420410   6.690   5.466  10.642  0.4247  0.0958  0.0414
  179SLPC   O1220411   6.521   5.630  10.607  0.1928 -0.3885  0.3304
  179SLPC   O1120412   6.506   5.406  10.471  0.5594 -0.3131  0.2053
  179SLPC    C120413   6.377   5.433  10.414 -0.1862  0.5072  0.0116
  179SLPC    HA20414   6.299   5.364  10.453 -0.6686 -1.1429 -3.4917
  179SLPC    HB20415   6.343   5.537  10.429 -2.1537  0.3843 -2.7837
  179SLPC    C220416   6.373   5.397  10.264  1.1788 -0.3549  0.5900
  179SLPC    HS20417   6.387   5.288  10.246 -0.3027 -0.3522 -0.7793
  179SLPC   O2120418   6.453   5.478  10.185  0.0648 -0.1067 -0.4534
  179SLPC   C2120419   6.576   5.437  10.171  0.0109 -0.1229 -0.3395
  179SLPC   O2220420   6.620   5.329  10.198 -0.1073  0.6221 -0.2166
  179SLPC   C2220421   6.666   5.549  10.119 -0.6040 -1.0267  0.1138
  179SLPC   H2R20422   6.668   5.638  10.185 -1.7886  1.6731 -3.1834
  179SLPC   H2S20423   6.772   5.516  10.126  0.3314  1.8422  0.7332
  179SLPC    C320424   6.224   5.415  10.211 -0.4159  0.4451 -0.6950
  179SLPC    HX20425   6.173   5.507  10.246 -1.0403  0.8333 -2.4861
  179SLPC    HY20426   6.170   5.324  10.245  1.0893 -1.2435 -2.5771
  179SLPC   O3120427   6.215   5.404  10.069 -0.1737  0.3436  0.5210
  179SLPC   C3120428   6.192   5.526  10.003  0.1955  0.2450 -0.1789
  179SLPC   O3220429   6.158   5.629  10.055  0.2123 -0.4835 -0.0284
  179SLPC   C3220430   6.188   5.499   9.856  0.3023 -0.3198 -0.3127
  179SLPC   H2X20431   6.154   5.395   9.837  1.4292 -0.8609  0.5436
  179SLPC   H2Y20432   6.291   5.512   9.817  0.9112  0.9137  1.5576
  179SLPC   C2320433   6.639   5.586   9.973  0.0935  0.2210  0.0063
  179SLPC   H3R20434   6.725   5.655   9.963  1.7372 -1.6045  0.8295
  179SLPC   H3S20435   6.547   5.644   9.951  0.1006  0.8403  1.4958
  179SLPC   C2420436   6.673   5.474   9.883  0.1477 -0.5330  0.5386
  179SLPC   H4R20437   6.598   5.393   9.887 -0.7314  0.2340  0.0299
  179SLPC   H4S20438   6.771   5.437   9.921  1.3975  1.5796 -0.4381
  179SLPC   C2520439   6.699   5.514   9.740  0.0892 -0.3040  0.1506
  179SLPC   H5R20440   6.744   5.428   9.687 -1.4596  0.5604 -2.7630
  179SLPC   H5S20441   6.777   5.594   9.738  0.9406 -1.0881  0.7556
  179SLPC   C2620442   6.584   5.558   9.658  0.2380 -0.2101  0.5811
  179SLPC   H6R20443   6.502   5.601   9.719 -0.0350  2.7557 -1.6629
  179SLPC   H6S20444   6.542   5.469   9.606 -2.9116  1.2613  0.3817
  179SLPC   C2720445   6.620   5.661   9.551 -0.1150  0.0273  0.9074
  179SLPC   H7R20446   6.717   5.639   9.503 -0.5969  0.6641 -0.4168
  179SLPC   H7S20447   6.636   5.758   9.603  1.3513  0.5244 -0.3915
  179SLPC   C2820448   6.513   5.674   9.434  0.1909  0.6140 -0.0719
  179SLPC   H8R20449   6.534   5.770   9.383  1.0771  0.4950  0.0373
  179SLPC   H8S20450   6.414   5.696   9.480  0.3279 -0.2386  0.6732
  179SLPC   C2920451   6.524   5.561   9.342  0.2303 -0.2169  0.2330
  179SLPC   H9R20452   6.523   5.455   9.373 -2.7439 -0.8067 -1.4803
  179SLPC  C21020453   6.533   5.559   9.206 -0.2482 -0.6618  0.0166
  179SLPC  H10R20454   6.546   5.460   9.160  0.4401 -1.3599  1.6393
  179SLPC  C21120455   6.522   5.672   9.107  0.8837 -0.9494  0.5002
  179SLPC  H11R20456   6.444   5.744   9.141  1.2361 -0.2412 -0.1610
  179SLPC  H11S20457   6.494   5.637   9.006 -0.3297 -1.7499  1.0938
  179SLPC  C21220458   6.653   5.746   9.090 -0.1467 -0.2229 -0.1356
  179SLPC  H12R20459   6.694   5.785   9.185 -1.0386 -0.9906  0.5767
  179SLPC  C21320460   6.723   5.762   8.974 -0.3539 -0.1332 -0.7191
  179SLPC  H13R20461   6.824   5.806   8.977 -0.4243  0.0386  2.6633
  179SLPC  C21420462   6.685   5.716   8.837 -0.2444  0.4519  0.2518
  179SLPC  H14R20463   6.684   5.606   8.824  1.3333  0.4521 -0.0717
  179SLPC  H14S20464   6.764   5.758   8.771 -0.7188  1.8516  0.5401
  179SLPC  C21520465   6.555   5.778   8.775  0.8013 -0.1769 -0.6990
  179SLPC  H15R20466   6.542   5.881   8.815 -0.7594 -0.1347 -1.2297
  179SLPC  H15S20467   6.460   5.734   8.812  0.3463  0.8041 -0.6800
  179SLPC  C21620468   6.545   5.786   8.621 -0.0755 -0.4784  0.4741
  179SLPC  H16R20469   6.444   5.823   8.596  0.1812  0.1424  0.3254
  179SLPC  H16S20470   6.553   5.684   8.577  1.3378 -0.8009  1.3970
  179SLPC  C21720471   6.643   5.890   8.557  0.3817 -0.4979 -0.0846
  179SLPC  H17R20472   6.597   5.942   8.470  1.1851  0.2626 -0.0780
  179SLPC  H17S20473   6.730   5.835   8.515 -0.2649 -1.2279 -0.4769
  179SLPC  C21820474   6.677   6.010   8.645 -0.5702  0.0509  0.1527
  179SLPC  H18R20475   6.739   6.083   8.589  0.4459 -1.3004 -0.5491
  179SLPC  H18S20476   6.742   5.984   8.731  0.3624  1.5747 -0.0690
  179SLPC  H18T20477   6.583   6.055   8.683 -0.9847 -1.6120  1.2169
  179SLPC   C3320478   6.096   5.589   9.772  0.0194  0.9076 -0.2642
  179SLPC   H3X20479   6.102   5.692   9.813 -0.5628  2.0647 -2.8424
  179SLPC   H3Y20480   6.001   5.532   9.780  0.5792  0.0026  0.0376
  179SLPC   C3420481   6.145   5.598   9.627  0.0684  0.4888  0.0388
  179SLPC   H4X20482   6.158   5.495   9.586  2.9055  0.9937 -0.5159
  179SLPC   H4Y20483   6.243   5.644   9.603  0.1685 -0.9355 -2.7285
  179SLPC   C3520484   6.038   5.668   9.540 -0.1109  0.4688 -0.1601
  179SLPC   H5X20485   6.024   5.769   9.585 -0.4622 -0.6515  2.4128
  179SLPC   H5Y20486   5.947   5.605   9.550  0.5126 -0.2130  1.6697
  179SLPC   C3620487   6.089   5.689   9.393 -0.6051 -0.1074  1.1286
  179SLPC   H6X20488   6.116   5.587   9.359 -1.6456  0.2441 -0.9131
  179SLPC   H6Y20489   6.187   5.741   9.387  0.0331 -1.4361 -0.7325
  179SLPC   C3720490   5.982   5.756   9.302  0.1211  0.1217 -0.1443
  179SLPC   H7X20491   5.950   5.845   9.360 -0.4578  1.2733 -2.1434
  179SLPC   H7Y20492   5.902   5.684   9.273 -0.2088  0.3548  0.1820
  179SLPC   C3820493   6.051   5.818   9.178 -0.0730  0.0571  0.5661
  179SLPC   H8X20494   6.107   5.740   9.123  0.2678  0.2461  0.6413
  179SLPC   H8Y20495   6.124   5.887   9.227 -0.9911  0.8523  0.8487
  179SLPC   C3920496   5.963   5.909   9.085  0.2683  0.4996  0.0168
  179SLPC   H9X20497   5.932   6.006   9.129  0.3669  1.7484 -2.4929
  179SLPC   H9Y20498   5.872   5.847   9.065  1.7910 -1.9594  0.2440
  179SLPC  C31020499   6.042   5.934   8.953 -0.7129  0.4046 -0.2083
  179SLPC  H10X20500   6.109   5.846   8.941 -1.2754 -0.3197  1.6478
  179SLPC  H10Y20501   6.101   6.027   8.964 -0.6647  0.7857 -2.9639
  179SLPC  C31120502   5.958   5.940   8.826  0.5818  0.4535 -0.2822
  179SLPC  H11X20503   5.879   6.018   8.835 -1.5934 -1.7390  1.0350
  179SLPC  H11Y20504   5.902   5.844   8.820 -1.2335  1.4113  0.5021
  179SLPC  C31220505   6.040   5.960   8.702 -0.3770 -0.7209  0.1420
  179SLPC  H12X20506   6.066   5.860   8.662 -1.4476 -1.8441  2.0868
  179SLPC  H12Y20507   6.135   6.012   8.725 -0.4850 -0.9382  1.1343
  179SLPC  C31320508   5.961   6.032   8.595 -0.1327  0.4566  0.5717
  179SLPC  H13X20509   5.863   6.071   8.629  0.1549  1.8573 -0.1304
  179SLPC  H13Y20510   5.919   5.953   8.529 -1.8549 -0.4714  2.6826
  179SLPC  C31420511   6.029   6.145   8.512  0.6034  0.4088 -0.1035
  179SLPC  H14X20512   5.974   6.161   8.417  0.1733  0.8630  0.2176
  179SLPC  H14Y20513   6.126   6.094   8.492 -0.4443 -1.5206 -0.5859
  179SLPC  C31520514   6.060   6.269   8.591  0.0513 -0.4417 -0.0329
  179SLPC  H15X20515   6.135   6.231   8.663  0.3431  1.9341  0.9887
  179SLPC  H15Y20516   5.967   6.300   8.643  0.2642  1.5746 -0.7706
  179SLPC  C31620517   6.125   6.375   8.504  0.4594  0.3722  0.3122
  179SLPC  H16X20518   6.200   6.326   8.438  0.4177 -1.1456  1.3443
  179SLPC  H16Y20519   6.187   6.446   8.563  0.2711  0.8460 -0.0594
  179SLPC  C31720520   6.036   6.464   8.418 -0.0689  0.2142  0.8032
  179SLPC  H17X20521   5.932   6.425   8.414 -0.0492  0.0119  1.9976
  179SLPC  H17Y20522   6.065   6.458   8.311  0.0897 -0.8024  0.8910
  179SLPC  C31820523   6.043   6.609   8.471  0.0113 -0.0376 -0.5628
  179SLPC  H18X20524   5.978   6.678   8.414  1.5655  1.0632 -1.0592
  179SLPC  H18Y20525   6.146   6.649   8.463  0.3263 -0.7129  0.0112
  179SLPC  H18Z20526   6.001   6.613   8.573  0.4034  2.1053 -0.4411
  180SLPC     N20527   4.159   2.389  11.143  0.0763  0.2720  0.0287
  180SLPC   C1320528   4.277   2.295  11.137 -0.0643  0.3318  0.3969
  180SLPC  H13A20529   4.350   2.308  11.216 -0.2759 -1.7704  1.0092
  180SLPC  H13B20530   4.248   2.192  11.130  1.5025 -0.0183 -1.9202
  180SLPC  H13C20531   4.317   2.304  11.037  1.2002  0.4582  0.8915
  180SLPC   C1420532   4.201   2.528  11.164  0.1727 -0.1813 -0.0226
  180SLPC  H14A20533   4.247   2.575  11.078  0.7670 -0.1435  0.3135
  180SLPC  H14B20534   4.112   2.589  11.164 -1.1521 -2.0361 -0.2229
  180SLPC  H14C20535   4.263   2.549  11.250  1.7073 -1.2429 -0.8363
  180SLPC   C1520536   4.077   2.332  11.252  0.0277  0.3153 -0.4270
  180SLPC  H15A20537   3.986   2.389  11.268  0.2470  0.6845 -0.4814
  180SLPC  H15B20538   4.047   2.231  11.228 -0.7788  0.1090  1.2787
  180SLPC  H15C20539   4.124   2.326  11.349  1.0721 -2.5245 -1.0139
  180SLPC   C1220540   4.087   2.389  11.005  0.4338  0.0559  0.2441
  180SLPC  H12A20541   4.124   2.446  10.921 -1.0019 -0.4021 -0.7345
  180SLPC  H12B20542   3.992   2.434  11.026  1.2610  1.3512  1.3992
  180SLPC   C1120543   4.046   2.250  10.955 -0.5382  0.7415 -1.0422
  180SLPC  H11A20544   4.129   2.177  10.965  2.2879  3.4769 -2.7864
  180SLPC  H11B20545   4.034   2.251  10.845 -1.3603  1.3580 -0.9537
  180SLPC     P20546   3.787   2.276  10.991  0.3212  0.3832  0.2686
  180SLPC   O1320547   3.695   2.245  11.106 -0.0234 -0.1068  0.5894
  180SLPC   O1420548   3.808   2.419  10.969  0.4439  0.6643  0.3349
  180SLPC   O1220549   3.923   2.200  11.016 -0.4522  0.2299 -0.4918
  180SLPC   O1120550   3.729   2.197  10.864 -0.0082 -0.6863 -0.0514
  180SLPC    C120551   3.756   2.057  10.854 -0.3537 -0.2104  0.9986
  180SLPC    HA20552   3.829   2.021  10.929  0.5363  0.0854  0.2943
  180SLPC    HB20553   3.662   2.001  10.871 -1.0895  1.5579  3.1458
  180SLPC    C220554   3.812   2.018  10.714  0.9110  0.0797 -0.1463
  180SLPC    HS20555   3.904   2.074  10.689  2.3649 -2.3422 -0.4957
  180SLPC   O2120556   3.708   2.052  10.616  0.7235 -0.1402  0.2731
  180SLPC   C2120557   3.754   2.099  10.498 -0.2882  0.6011  0.6065
  180SLPC   O2220558   3.871   2.126  10.471  0.1909 -0.3807 -0.3144
  180SLPC   C2220559   3.638   2.122  10.405  0.3126  0.2426  0.9982
  180SLPC   H2R20560   3.548   2.066  10.437 -0.7514  0.4995 -1.3566
  180SLPC   H2S20561   3.614   2.230  10.409  0.5341  0.3394 -0.0818
  180SLPC    C320562   3.859   1.872  10.701 -0.1542 -0.4803  0.3395
  180SLPC    HX20563   3.774   1.804  10.722  0.8441 -2.2582 -1.0348
  180SLPC    HY20564   3.940   1.856  10.776 -0.0169 -0.2014  0.2517
  180SLPC   O3120565   3.918   1.843  10.575  0.6511  0.1141 -0.6839
  180SLPC   C3120566   3.916   1.708  10.545 -0.3895 -0.7320 -1.0631
  180SLPC   O3220567   3.853   1.621  10.603  0.0793  0.1803  0.3019
  180SLPC   C3220568   4.003   1.695  10.419 -0.2587 -0.6098  0.3837
  180SLPC   H2X20569   4.063   1.604  10.434  3.8538  1.5949 -1.1523
  180SLPC   H2Y20570   4.078   1.777  10.416 -0.5457 -0.3148  1.0946
  180SLPC   C2320571   3.671   2.075  10.263 -0.2348 -0.3181  0.1366
  180SLPC   H3R20572   3.682   1.965  10.248  2.3293 -0.3129  1.3846
  180SLPC   H3S20573   3.770   2.115  10.231 -0.3999 -0.4274 -0.5235
  180SLPC   C2420574   3.570   2.136  10.158 -0.2373 -0.2149 -0.1247
  180SLPC   H4R20575   3.546   2.242  10.178  0.1632 -0.3384  1.0901
  180SLPC   H4S20576   3.484   2.067  10.144 -1.1962  0.4457  2.0865
  180SLPC   C2520577   3.640   2.131  10.017  0.5164  0.2955  0.1380
  180SLPC   H5R20578   3.667   2.028   9.984 -1.9311  0.5165 -3.0315
  180SLPC   H5S20579   3.730   2.195  10.011  2.5115 -2.0322  2.6084
  180SLPC   C2620580   3.535   2.169   9.906 -1.2147 -0.4666 -0.0531
  180SLPC   H6R20581   3.469   2.252   9.938  0.7246  1.5775 -1.1320
  180SLPC   H6S20582   3.468   2.081   9.890 -0.3160 -1.4681  1.4690
  180SLPC   C2720583   3.600   2.215   9.773 -0.3108 -0.5987 -0.3010
  180SLPC   H7R20584   3.708   2.199   9.795 -0.0554  0.5301 -0.6273
  180SLPC   H7S20585   3.604   2.326   9.762  0.6236 -0.7268 -1.5639
  180SLPC   C2820586   3.541   2.151   9.644  0.0725  0.2697 -0.1733
  180SLPC   H8R20587   3.543   2.042   9.662  0.0585 -0.0748 -2.0776
  180SLPC   H8S20588   3.616   2.171   9.565 -1.9441  0.8908 -2.0622
  180SLPC   C2920589   3.400   2.214   9.622 -0.1724  0.3090  0.2580
  180SLPC   H9R20590   3.313   2.184   9.682 -2.6880  5.5861 -0.1406
  180SLPC  C21020591   3.367   2.305   9.533  0.3387 -0.2156  0.4768
  180SLPC  H10R20592   3.259   2.321   9.520 -0.1235 -1.3174  2.5504
  180SLPC  C21120593   3.455   2.369   9.430  0.3053  0.1863 -0.4730
  180SLPC  H11R20594   3.535   2.411   9.496 -0.8460  0.5007  0.7681
  180SLPC  H11S20595   3.417   2.462   9.382 -0.6235  0.7842  1.3052
  180SLPC  C21220596   3.520   2.279   9.323 -0.5665  0.2937  0.2161
  180SLPC  H12R20597   3.513   2.171   9.343 -0.6051  0.3611  0.5754
  180SLPC  C21320598   3.584   2.332   9.221  0.3144  0.5945 -0.5807
  180SLPC  H13R20599   3.645   2.277   9.148 -0.7400 -1.3882 -0.0260
  180SLPC  C21420600   3.601   2.480   9.189  0.2004 -0.5653  0.1872
  180SLPC  H14R20601   3.679   2.485   9.109 -0.2118  0.4270 -0.1650
  180SLPC  H14S20602   3.630   2.530   9.284 -0.1851 -0.5331  0.2884
  180SLPC  C21520603   3.471   2.532   9.115  0.0087 -0.0970  0.1995
  180SLPC  H15R20604   3.385   2.505   9.179 -1.4529  1.2759 -1.1033
  180SLPC  H15S20605   3.461   2.474   9.021  1.8722  1.9967 -1.4148
  180SLPC  C21620606   3.489   2.682   9.073  0.2103 -0.3301  0.1913
  180SLPC  H16R20607   3.502   2.756   9.154 -2.3067  0.8133 -0.3330
  180SLPC  H16S20608   3.391   2.705   9.025 -0.6829 -2.9391  0.6031
  180SLPC  C21720609   3.598   2.714   8.967  0.0426 -0.2288  0.1597
  180SLPC  H17R20610   3.699   2.720   9.015  0.5795  0.4005 -1.0054
  180SLPC  H17S20611   3.562   2.810   8.924  0.1541 -0.8609 -1.3987
  180SLPC  C21820612   3.607   2.622   8.852  0.5910 -0.0238 -0.7837
  180SLPC  H18R20613   3.645   2.525   8.891 -0.5829 -0.6561 -1.1386
  180SLPC  H18S20614   3.688   2.650   8.782 -1.4306  0.9503 -2.8788
  180SLPC  H18T20615   3.513   2.610   8.793  0.6831 -0.2360 -0.8901
  180SLPC   C3320616   3.911   1.691  10.292 -0.8206 -0.5582 -0.2256
  180SLPC   H3X20617   3.860   1.790  10.283  0.4516  0.3888  2.0669
  180SLPC   H3Y20618   3.843   1.603  10.288 -1.2801 -0.2287  0.2176
  180SLPC   C3420619   3.994   1.698  10.158 -0.0788  0.2001 -0.3000
  180SLPC   H4X20620   4.062   1.610  10.158 -2.0890 -1.4491  1.2620
  180SLPC   H4Y20621   4.053   1.792  10.170 -1.6310  1.0279  1.3534
  180SLPC   C3520622   3.902   1.684  10.038 -0.6856  0.7228 -0.6150
  180SLPC   H5X20623   3.817   1.755  10.041 -3.5745 -2.3762 -2.0705
  180SLPC   H5Y20624   3.850   1.585  10.042 -0.4994  0.6618  0.8015
  180SLPC   C3620625   3.976   1.691   9.905 -0.0256 -0.7371  0.4485
  180SLPC   H6X20626   4.023   1.593   9.883 -2.7802 -2.0556  0.0771
  180SLPC   H6Y20627   4.051   1.774   9.906 -1.8856  1.0276  0.5366
  180SLPC   C3720628   3.878   1.733   9.791 -0.3529 -0.3175 -0.0712
  180SLPC   H7X20629   3.801   1.799   9.837 -1.7309 -1.8760 -0.0495
  180SLPC   H7Y20630   3.826   1.641   9.756  2.3108 -1.6509 -0.7791
  180SLPC   C3820631   3.944   1.793   9.663  0.9588 -0.3832 -0.5601
  180SLPC   H8X20632   4.031   1.733   9.629  2.1318  0.4264  0.9100
  180SLPC   H8Y20633   3.996   1.887   9.688  0.5273  0.4653 -2.6527
  180SLPC   C3920634   3.843   1.808   9.552 -0.4614 -0.5741 -0.2267
  180SLPC   H9X20635   3.768   1.884   9.584  1.4899  0.6008  1.8259
  180SLPC   H9Y20636   3.795   1.711   9.528  0.5551 -1.2195  0.2977
  180SLPC  C31020637   3.913   1.869   9.425  0.1594 -0.8560 -0.4087
  180SLPC  H10X20638   3.965   1.783   9.378  1.3094 -1.3529  1.6619
  180SLPC  H10Y20639   3.982   1.950   9.455 -0.1830 -0.7572  0.1245
  180SLPC  C31120640   3.814   1.926   9.324 -0.3519 -0.1363  0.4265
  180SLPC  H11X20641   3.742   1.994   9.374 -0.0503  1.0908 -0.7401
  180SLPC  H11Y20642   3.771   1.832   9.285 -0.0614 -0.3716  0.6752
  180SLPC  C31220643   3.883   2.013   9.214 -0.6131 -0.1505  0.4763
  180SLPC  H12X20644   3.976   2.063   9.247 -0.9983  0.1883  1.0602
  180SLPC  H12Y20645   3.806   2.085   9.180 -2.5043 -2.5520 -0.6498
  180SLPC  C31320646   3.912   1.940   9.086  0.1938 -0.6678 -0.5590
  180SLPC  H13X20647   3.966   1.846   9.109  1.2623 -0.0662 -0.5474
  180SLPC  H13Y20648   3.990   2.004   9.039  0.9261 -1.2917 -0.2175
  180SLPC  C31420649   3.794   1.913   8.996 -0.0993 -0.0557 -0.4358
  180SLPC  H14X20650   3.693   1.920   9.042  0.3708 -1.7888  0.9741
  180SLPC  H14Y20651   3.797   1.809   8.957 -2.0531  0.7987 -3.1847
  180SLPC  C31520652   3.791   2.015   8.879 -0.4433 -0.4641 -0.2270
  180SLPC  H15X20653   3.844   2.109   8.905  0.9105 -1.5677  1.1972
  180SLPC  H15Y20654   3.684   2.030   8.852 -0.7951  0.4047  1.5549
  180SLPC  C31620655   3.854   1.955   8.757 -0.2512  0.4935 -0.2821
  180SLPC  H16X20656   3.825   1.850   8.738  4.2067 -0.9891  0.0044
  180SLPC  H16Y20657   3.964   1.957   8.772 -0.4192 -1.8803  1.7015
  180SLPC  C31720658   3.828   2.036   8.633  0.0924 -0.6936  0.2941
  180SLPC  H17X20659   3.908   2.007   8.560 -0.3215  2.0466 -1.3905
  180SLPC  H17Y20660   3.855   2.142   8.652 -1.9922 -0.2281  0.8407
  180SLPC  C31820661   3.688   2.033   8.570  0.1119  0.3843 -0.0229
  180SLPC  H18X20662   3.659   1.930   8.540  0.7636  0.1773  0.0450
  180SLPC  H18Y20663   3.672   2.097   8.481 -1.5953  0.2044  0.1268
  180SLPC  H18Z20664   3.608   2.066   8.640  0.1347 -1.5855  1.0202
  181SLPC     N20665   2.391   6.392  10.715  0.0184  0.4372  0.2029
  181SLPC   C1320666   2.532   6.340  10.714  0.3091  0.3418  0.2597
  181SLPC  H13A20667   2.534   6.232  10.720  0.2634  0.2271 -1.3617
  181SLPC  H13B20668   2.589   6.355  10.623  1.6579 -1.9629  0.6340
  181SLPC  H13C20669   2.589   6.383  10.795  2.5325 -1.9287  0.0562
  181SLPC   C1420670   2.316   6.342  10.833  0.7198 -0.0023  0.2974
  181SLPC  H14A20671   2.320   6.234  10.841 -0.1559 -0.1092 -0.4742
  181SLPC  H14B20672   2.363   6.393  10.916  3.9214 -0.7357 -0.8990
  181SLPC  H14C20673   2.215   6.375  10.817  1.2905  0.9854 -1.6517
  181SLPC   C1520674   2.317   6.359  10.586 -0.3116  0.4373 -0.2536
  181SLPC  H15A20675   2.309   6.254  10.566  2.2434 -0.1721  1.4360
  181SLPC  H15B20676   2.214   6.391  10.595 -0.6232  0.2680 -2.6207
  181SLPC  H15C20677   2.373   6.401  10.504 -0.7611 -0.8776 -1.2667
  181SLPC   C1220678   2.418   6.548  10.722 -0.0593  0.5173 -0.2328
  181SLPC  H12A20679   2.324   6.599  10.705 -0.9706 -0.8664  0.4872
  181SLPC  H12B20680   2.488   6.572  10.644  0.6052  1.7330  0.6981
  181SLPC   C1120681   2.468   6.606  10.853  0.3881  0.2669  0.7130
  181SLPC  H11A20682   2.479   6.715  10.837  1.2144  0.0466 -0.2971
  181SLPC  H11B20683   2.566   6.561  10.879  1.0591 -0.6230 -2.8476
  181SLPC     P20684   2.225   6.661  10.958  0.1301  0.0131  0.0856
  181SLPC   O1320685   2.139   6.557  11.016 -0.6654 -0.5431 -0.0017
  181SLPC   O1420686   2.230   6.793  11.029  0.1248 -0.7455 -0.4642
  181SLPC   O1220687   2.371   6.599  10.951  0.6586 -0.1119  0.4708
  181SLPC   O1120688   2.177   6.676  10.807  0.0037 -0.2585  0.1025
  181SLPC    C120689   2.133   6.808  10.761  0.1399  1.3904  0.2672
  181SLPC    HA20690   2.025   6.793  10.740  0.6484  1.0660 -2.5382
  181SLPC    HB20691   2.146   6.887  10.837  0.3557  0.1155  1.6080
  181SLPC    C220692   2.205   6.850  10.635 -0.4625 -0.0147  0.4831
  181SLPC    HS20693   2.144   6.924  10.579 -1.5278 -0.2230  1.3211
  181SLPC   O2120694   2.217   6.737  10.541 -0.0836  0.6492  0.5197
  181SLPC   C2120695   2.107   6.686  10.482  0.3699  0.3356  0.1294
  181SLPC   O2220696   1.994   6.728  10.502 -0.1634  0.5626  0.2693
  181SLPC   C2220697   2.145   6.586  10.367 -0.3260  0.1862 -0.7634
  181SLPC   H2R20698   2.250   6.552  10.381 -0.6195  0.4439  3.2740
  181SLPC   H2S20699   2.076   6.501  10.383 -1.1841  0.4005 -3.0198
  181SLPC    C320700   2.344   6.919  10.658  0.1525  0.1891  0.3075
  181SLPC    HX20701   2.407   6.846  10.714  1.8802  1.2362 -0.1979
  181SLPC    HY20702   2.339   7.012  10.718  2.7481 -0.1936  1.2225
  181SLPC   O3120703   2.414   6.965  10.534  0.3069 -0.0991 -0.3783
  181SLPC   C3120704   2.514   6.898  10.496 -0.1937 -0.0317  0.0909
  181SLPC   O3220705   2.560   6.795  10.541 -0.2415 -0.4993  0.3208
  181SLPC   C3220706   2.586   6.977  10.391 -0.7027 -0.5406  0.7859
  181SLPC   H2X20707   2.690   6.942  10.381 -0.3572 -0.1801  2.6611
  181SLPC   H2Y20708   2.597   7.080  10.430  0.0628 -0.1745 -0.3507
  181SLPC   C2320709   2.117   6.637  10.220 -0.1637 -0.3000  0.4622
  181SLPC   H3R20710   2.173   6.729  10.191 -0.2941 -1.1315 -2.9033
  181SLPC   H3S20711   2.012   6.672  10.218  0.2913  1.1016  0.0415
  181SLPC   C2420712   2.154   6.538  10.112 -1.0406  0.6102 -0.2943
  181SLPC   H4R20713   2.092   6.448  10.127 -0.3975 -0.2668 -2.4489
  181SLPC   H4S20714   2.260   6.509  10.132 -1.1837 -0.0652 -0.4823
  181SLPC   C2520715   2.136   6.602   9.974 -0.5881  0.3435 -0.4507
  181SLPC   H5R20716   2.215   6.680   9.970  0.8707 -1.0798 -0.3170
  181SLPC   H5S20717   2.036   6.647   9.953 -1.5533 -1.6548 -0.4223
  181SLPC   C2620718   2.160   6.503   9.853 -0.4391  0.1655 -0.5083
  181SLPC   H6R20719   2.100   6.410   9.862 -0.4758  0.1043 -1.2629
  181SLPC   H6S20720   2.267   6.472   9.854  0.4556  2.9893  0.2606
  181SLPC   C2720721   2.137   6.566   9.716 -0.0834 -0.0395  0.2527
  181SLPC   H7R20722   2.196   6.657   9.694  0.8260 -0.8604 -0.8446
  181SLPC   H7S20723   2.029   6.588   9.701 -0.3091 -0.5144  1.1333
  181SLPC   C2820724   2.165   6.463   9.609  0.1200  0.0148  0.4229
  181SLPC   H8R20725   2.136   6.506   9.511  1.8952  0.2656 -0.0248
  181SLPC   H8S20726   2.116   6.365   9.628 -0.8613  0.2252 -0.9016
  181SLPC   C2920727   2.315   6.456   9.586 -0.1185  0.1027 -0.5419
  181SLPC   H9R20728   2.376   6.487   9.672  1.3000  0.0587 -1.4920
  181SLPC  C21020729   2.391   6.407   9.481  0.3058 -0.3456 -0.6022
  181SLPC  H10R20730   2.501   6.406   9.480  0.3098 -0.4317 -1.6057
  181SLPC  C21120731   2.320   6.355   9.358  0.1117  0.8540 -0.0037
  181SLPC  H11R20732   2.282   6.444   9.304 -1.0960  0.3257 -0.0496
  181SLPC  H11S20733   2.228   6.295   9.377  0.1902  1.0706  1.1191
  181SLPC  C21220734   2.411   6.260   9.279  0.0099  0.3055 -0.1624
  181SLPC  H12R20735   2.469   6.186   9.336 -0.2409 -0.3696 -0.7657
  181SLPC  C21320736   2.436   6.266   9.148 -0.4523 -0.2331  0.3166
  181SLPC  H13R20737   2.517   6.204   9.108  2.0991  3.2130 -0.3349
  181SLPC  C21420738   2.386   6.361   9.036  0.5755 -0.8798 -1.0302
  181SLPC  H14R20739   2.474   6.395   8.976  1.2506 -2.4146 -0.9426
  181SLPC  H14S20740   2.336   6.451   9.078  2.0966 -1.3390  2.0574
  181SLPC  C21520741   2.298   6.286   8.935  0.5538  0.0358 -0.1725
  181SLPC  H15R20742   2.224   6.225   8.991 -0.1509 -0.9295 -2.0779
  181SLPC  H15S20743   2.355   6.212   8.875 -0.0935 -0.9162  0.3508
  181SLPC  C21620744   2.222   6.375   8.844  0.5286  0.2815 -0.0002
  181SLPC  H16R20745   2.290   6.448   8.796  0.1221  0.7891  0.1826
  181SLPC  H16S20746   2.140   6.422   8.904 -0.1658 -0.6444 -0.1865
  181SLPC  C21720747   2.144   6.294   8.733  0.7251  0.2650 -0.0731
  181SLPC  H17R20748   2.095   6.209   8.784  0.3455  0.2890 -0.3950
  181SLPC  H17S20749   2.197   6.252   8.645 -1.5466  2.1849 -2.5309
  181SLPC  C21820750   2.038   6.377   8.654  0.5835  0.3362  0.5559
  181SLPC  H18R20751   2.103   6.454   8.606  0.5021  0.5922  0.8556
  181SLPC  H18S20752   1.970   6.423   8.728 -0.1952 -4.2209  3.0357
  181SLPC  H18T20753   1.984   6.324   8.573 -1.5999  1.8366  0.9342
  181SLPC   C3320754   2.510   6.973  10.260 -0.0210 -0.0443  0.4002
  181SLPC   H3X20755   2.567   7.036  10.187 -1.3360  1.5955  0.7322
  181SLPC   H3Y20756   2.412   7.023  10.271  0.5330  1.2804 -0.3920
  181SLPC   C3420757   2.482   6.830  10.211 -0.1067  0.1568  0.3690
  181SLPC   H4X20758   2.414   6.777  10.280 -3.1809 -0.2848 -2.7482
  181SLPC   H4Y20759   2.576   6.772  10.226 -0.5872 -1.3421 -1.9427
  181SLPC   C3520760   2.442   6.809  10.067  0.3871 -0.4394  1.0909
  181SLPC   H5X20761   2.353   6.872  10.047 -0.1669 -1.9090 -1.4868
  181SLPC   H5Y20762   2.408   6.704  10.056 -0.1472 -0.0452 -1.7761
  181SLPC   C3620763   2.547   6.838   9.964  0.1176  0.0162  0.5294
  181SLPC   H6X20764   2.648   6.813  10.005 -0.6156 -1.9483  1.2822
  181SLPC   H6Y20765   2.551   6.947   9.941  1.0393 -0.1170 -0.0106
  181SLPC   C3720766   2.529   6.763   9.832  0.3827 -0.2463  0.1046
  181SLPC   H7X20767   2.426   6.761   9.790 -0.7560 -1.6034  2.6922
  181SLPC   H7Y20768   2.547   6.660   9.869  1.7325 -0.3932 -0.9081
  181SLPC   C3820769   2.622   6.817   9.722  0.2429  0.5662 -0.1918
  181SLPC   H8X20770   2.719   6.808   9.775  0.4996  0.5305 -0.6607
  181SLPC   H8Y20771   2.602   6.925   9.703 -0.5797  0.2471 -1.2977
  181SLPC   C3920772   2.612   6.729   9.597 -0.4973 -0.3536  0.6727
  181SLPC   H9X20773   2.505   6.724   9.567 -1.1409  1.1650  2.5557
  181SLPC   H9Y20774   2.641   6.624   9.617  1.0687 -0.4115 -1.5223
  181SLPC  C31020775   2.687   6.784   9.475 -0.9193  0.6145 -0.0970
  181SLPC  H10X20776   2.794   6.796   9.504 -0.3815 -0.6579 -1.4645
  181SLPC  H10Y20777   2.656   6.884   9.438  0.1305  1.4929  1.2580
  181SLPC  C31120778   2.677   6.680   9.367  0.5531 -0.6304  0.9670
  181SLPC  H11X20779   2.575   6.636   9.363  0.4529 -0.3365 -1.4657
  181SLPC  H11Y20780   2.740   6.591   9.390  1.1263 -0.4570  0.1287
  181SLPC  C31220781   2.710   6.736   9.220 -0.1889  0.6192 -0.1944
  181SLPC  H12X20782   2.809   6.785   9.215 -0.0519  0.2455 -1.6307
  181SLPC  H12Y20783   2.625   6.803   9.192 -0.5209  0.5858  0.6777
  181SLPC  C31320784   2.718   6.605   9.144 -0.0990  0.0491  0.9020
  181SLPC  H13X20785   2.626   6.543   9.156  0.1831 -0.9826 -1.5946
  181SLPC  H13Y20786   2.801   6.545   9.187  1.0731 -0.1290 -1.4841
  181SLPC  C31420787   2.743   6.614   8.995 -0.0907  0.2325 -0.9819
  181SLPC  H14X20788   2.841   6.665   8.980  0.8110 -0.5477  1.7876
  181SLPC  H14Y20789   2.666   6.680   8.950  0.3183  1.6860  0.3658
  181SLPC  C31520790   2.754   6.484   8.916 -0.0576  0.1699 -0.0031
  181SLPC  H15X20791   2.647   6.457   8.904  0.5518 -2.2122 -0.5404
  181SLPC  H15Y20792   2.798   6.400   8.974 -0.4404 -0.2943 -0.3794
  181SLPC  C31620793   2.828   6.482   8.786 -0.0306 -0.0238 -0.3805
  181SLPC  H16X20794   2.930   6.526   8.796 -0.0170 -0.4192  1.7315
  181SLPC  H16Y20795   2.777   6.548   8.713 -2.8107 -2.5336 -0.8905
  181SLPC  C31720796   2.824   6.343   8.730  0.7472  0.0627  0.7674
  181SLPC  H17X20797   2.718   6.309   8.722  1.0820 -0.8143 -0.1500
  181SLPC  H17Y20798   2.861   6.264   8.798 -1.8507 -0.3124  1.8915
  181SLPC  C31820799   2.882   6.342   8.590 -0.1850 -0.4808 -0.2819
  181SLPC  H18X20800   2.869   6.241   8.545 -1.8271 -0.2474 -0.3879
  181SLPC  H18Y20801   2.989   6.371   8.587 -0.9610  2.9572  0.6648
  181SLPC  H18Z20802   2.834   6.428   8.539  1.7866  1.4862  1.0010
  182SLPC     N20803   2.450   0.967  11.502 -0.5766  0.1338 -0.4274
  182SLPC   C1320804   2.581   0.904  11.457 -0.5636 -0.2907  0.5124
  182SLPC  H13A20805   2.666   0.970  11.464 -1.0866  0.9173 -2.7147
  182SLPC  H13B20806   2.599   0.817  11.518 -2.3771  1.7449  4.2981
  182SLPC  H13C20807   2.581   0.880  11.351 -0.7624  0.9026  0.2294
  182SLPC   C1420808   2.471   1.052  11.624  0.5009  0.0376  0.4502
  182SLPC  H14A20809   2.526   0.998  11.700  1.1983 -0.7646 -0.6009
  182SLPC  H14B20810   2.525   1.142  11.599 -2.0505  1.2884 -0.9114
  182SLPC  H14C20811   2.375   1.077  11.668  0.3499 -0.9290  0.7152
  182SLPC   C1520812   2.355   0.868  11.539  0.6717 -0.0211  0.4730
  182SLPC  H15A20813   2.388   0.796  11.613 -0.9797  0.3768  1.6859
  182SLPC  H15B20814   2.270   0.912  11.590  0.2866 -0.4226  0.1905
  182SLPC  H15C20815   2.315   0.811  11.456 -1.0943  1.7011  0.0582
  182SLPC   C1220816   2.397   1.044  11.385 -0.2693  0.5811 -0.5040
  182SLPC  H12A20817   2.459   1.130  11.365  1.2156 -0.8875 -2.5612
  182SLPC  H12B20818   2.299   1.080  11.414 -1.1870 -2.0965  0.0223
  182SLPC   C1120819   2.386   0.972  11.250  0.1266  0.5330  0.3871
  182SLPC  H11A20820   2.309   1.019  11.185 -1.2321 -1.6856  0.3025
  182SLPC  H11B20821   2.363   0.865  11.267 -1.7253  0.6213 -1.3006
  182SLPC     P20822   2.560   1.086  11.094  0.1512  0.0571 -0.1073
  182SLPC   O1320823   2.533   1.217  11.152  0.1357  0.6294  0.5910
  182SLPC   O1420824   2.701   1.044  11.060  0.3283 -0.4180 -0.2756
  182SLPC   O1220825   2.517   0.964  11.190  0.2520 -0.0178 -0.3698
  182SLPC   O1120826   2.472   1.068  10.958 -0.3274  0.1550  0.1515
  182SLPC    C120827   2.507   0.965  10.859 -0.3000 -0.0318 -0.1617
  182SLPC    HA20828   2.562   0.876  10.896 -1.8253 -1.5285 -1.3146
  182SLPC    HB20829   2.413   0.916  10.826  0.3925 -1.4285 -0.1104
  182SLPC    C220830   2.583   1.020  10.739  0.0009 -0.1332  0.1211
  182SLPC    HS20831   2.689   1.036  10.770 -0.0902 -1.5850  1.3225
  182SLPC   O2120832   2.517   1.147  10.697 -0.4504  0.5038 -0.2216
  182SLPC   C2120833   2.564   1.259  10.746  0.3925 -0.1384  0.0918
  182SLPC   O2220834   2.666   1.267  10.808  0.6920 -0.0956  0.3509
  182SLPC   C2220835   2.462   1.361  10.732 -0.3993 -0.9231  0.0768
  182SLPC   H2R20836   2.396   1.345  10.644  0.5786  2.3005 -1.4061
  182SLPC   H2S20837   2.406   1.371  10.827 -0.4675 -1.5998  0.1124
  182SLPC    C320838   2.601   0.917  10.623 -0.5905  0.2962 -0.2585
  182SLPC    HX20839   2.504   0.870  10.597  0.3290 -3.1457  1.9025
  182SLPC    HY20840   2.656   0.830  10.664 -0.9116 -0.9869 -2.4340
  182SLPC   O3120841   2.683   0.968  10.519 -0.3338 -0.2948 -0.1477
  182SLPC   C3120842   2.726   0.877  10.428 -0.4155 -0.1510 -0.2527
  182SLPC   O3220843   2.688   0.760  10.418  0.6481 -0.4236  0.0199
  182SLPC   C3220844   2.817   0.946  10.333  0.8768  0.3717  0.3659
  182SLPC   H2X20845   2.862   1.028  10.392  1.9638 -1.3095  1.9727
  182SLPC   H2Y20846   2.748   0.985  10.255  1.2657 -0.2302 -0.2971
  182SLPC   C2320847   2.536   1.503  10.707  0.4812 -0.0239  0.3978
  182SLPC   H3R20848   2.595   1.521  10.800  1.4152 -1.2561  0.0769
  182SLPC   H3S20849   2.454   1.577  10.715  0.0105 -0.6408  1.6946
  182SLPC   C2420850   2.617   1.506  10.577  0.2312 -0.2931 -0.6618
  182SLPC   H4R20851   2.685   1.418  10.576  1.1557  0.3726  0.4609
  182SLPC   H4S20852   2.676   1.600  10.588  1.2810 -1.0851  0.9475
  182SLPC   C2520853   2.532   1.507  10.447  0.0437 -0.0329  0.0582
  182SLPC   H5R20854   2.462   1.593  10.454 -1.5081 -1.2925  0.4516
  182SLPC   H5S20855   2.474   1.413  10.439 -3.8599  2.0880  0.9217
  182SLPC   C2620856   2.617   1.524  10.322  0.0883  0.2572  0.4138
  182SLPC   H6R20857   2.683   1.436  10.307  0.4063  0.0457  2.7579
  182SLPC   H6S20858   2.681   1.609  10.351 -0.4351 -0.0972  2.7750
  182SLPC   C2720859   2.532   1.545  10.193  0.1108  0.5411  0.8482
  182SLPC   H7R20860   2.590   1.607  10.122 -1.5898  1.0073 -0.1763
  182SLPC   H7S20861   2.449   1.611  10.225 -0.4994  0.2932 -0.1834
  182SLPC   C2820862   2.483   1.412  10.131 -0.3313  0.1154 -0.0938
  182SLPC   H8R20863   2.421   1.348  10.197 -0.5351 -0.6000 -0.9541
  182SLPC   H8S20864   2.575   1.354  10.108 -0.2459  0.0844  0.3138
  182SLPC   C2920865   2.396   1.443  10.010  0.4536  0.8229 -0.2474
  182SLPC   H9R20866   2.291   1.473  10.026  0.5230  2.4554 -2.3746
  182SLPC  C21020867   2.437   1.458   9.880 -0.4121  0.9189 -0.6625
  182SLPC  H10R20868   2.362   1.487   9.805  0.6960 -1.2595 -2.7787
  182SLPC  C21120869   2.582   1.445   9.830  0.5581 -0.0440 -0.2998
  182SLPC  H11R20870   2.603   1.340   9.800 -2.3391 -0.7079 -0.3590
  182SLPC  H11S20871   2.658   1.473   9.906  0.3624 -2.0192  0.6721
  182SLPC  C21220872   2.608   1.532   9.711  0.3843 -0.4194 -0.2283
  182SLPC  H12R20873   2.657   1.627   9.734 -0.4328 -0.3759  1.5194
  182SLPC  C21320874   2.575   1.496   9.580  0.2634 -0.1361  0.8043
  182SLPC  H13R20875   2.606   1.559   9.495  2.1445 -1.3428  0.5309
  182SLPC  C21420876   2.516   1.372   9.527 -0.2817  0.6593 -0.3998
  182SLPC  H14R20877   2.428   1.393   9.462 -0.6260  0.4539 -0.0099
  182SLPC  H14S20878   2.478   1.317   9.616  0.7880 -0.3158 -0.5231
  182SLPC  C21520879   2.612   1.276   9.461 -0.2295 -0.3869  0.8011
  182SLPC  H15R20880   2.709   1.285   9.514 -0.6272  1.9937  1.2317
  182SLPC  H15S20881   2.619   1.296   9.352 -3.9549 -1.0624  0.2872
  182SLPC  C21620882   2.574   1.123   9.474 -0.3627 -0.1177  0.1925
  182SLPC  H16R20883   2.570   1.101   9.582  0.1461  1.4761  0.5648
  182SLPC  H16S20884   2.649   1.056   9.427  2.8189  1.1802  2.9702
  182SLPC  C21720885   2.439   1.090   9.414 -0.2081 -0.0023 -0.0467
  182SLPC  H17R20886   2.442   1.136   9.313 -1.5568  1.8287  0.6929
  182SLPC  H17S20887   2.366   1.146   9.475 -0.5970 -0.1908 -0.3335
  182SLPC  C21820888   2.410   0.938   9.412 -0.8453  0.4295  0.1604
  182SLPC  H18R20889   2.492   0.869   9.383 -2.3818 -1.3440 -0.2029
  182SLPC  H18S20890   2.328   0.916   9.340 -1.7156  0.9489  0.9644
  182SLPC  H18T20891   2.383   0.918   9.518  1.1222 -1.9391  0.3065
  182SLPC   C3320892   2.923   0.847  10.286  0.2579 -0.1173 -0.1701
  182SLPC   H3X20893   2.886   0.781  10.205 -2.1222  0.3571  0.4584
  182SLPC   H3Y20894   2.955   0.793  10.378  2.7387  1.7177  0.1297
  182SLPC   C3420895   3.049   0.928  10.242  0.1171 -0.0203  0.0088
  182SLPC   H4X20896   3.094   0.965  10.336 -0.4003 -3.9048  1.9986
  182SLPC   H4Y20897   3.026   1.016  10.177 -0.7291 -0.2733 -0.0466
  182SLPC   C3520898   3.148   0.840  10.173 -0.3042  0.3718  0.7185
  182SLPC   H5X20899   3.161   0.745  10.230 -0.8816 -1.6153 -2.2142
  182SLPC   H5Y20900   3.250   0.884  10.166  0.8499 -2.1870  0.2003
  182SLPC   C3620901   3.105   0.801  10.033  0.4094 -0.2558  0.5641
  182SLPC   H6X20902   3.109   0.893   9.971 -1.1529  0.2782  1.2120
  182SLPC   H6Y20903   3.006   0.751  10.023  0.7366 -1.0200  1.0988
  182SLPC   C3720904   3.196   0.704   9.961 -0.3278 -1.1729  0.2012
  182SLPC   H7X20905   3.200   0.616  10.029 -1.8828 -0.5593  1.1483
  182SLPC   H7Y20906   3.294   0.756   9.965  0.4958 -2.6230 -0.2941
  182SLPC   C3820907   3.165   0.657   9.816  0.4193  0.1914  0.7345
  182SLPC   H8X20908   3.129   0.750   9.768  0.4945  1.2130  2.5548
  182SLPC   H8Y20909   3.078   0.588   9.825 -0.7344  1.5033  0.0245
  182SLPC   C3920910   3.289   0.617   9.741 -0.0679  0.0734  0.2621
  182SLPC   H9X20911   3.352   0.547   9.799  0.6222  0.9383  0.5798
  182SLPC   H9Y20912   3.367   0.692   9.717  2.8704 -2.2471  1.9287
  182SLPC  C31020913   3.250   0.573   9.602 -0.4112 -0.7839  0.7459
  182SLPC  H10X20914   3.184   0.651   9.559  2.0150  1.3726  0.6674
  182SLPC  H10Y20915   3.190   0.481   9.616 -0.4758 -0.8861 -0.1118
  182SLPC  C31120916   3.378   0.566   9.514 -0.4681  0.8023  0.1492
  182SLPC  H11X20917   3.464   0.525   9.571 -0.7482  0.9233  0.6622
  182SLPC  H11Y20918   3.406   0.672   9.497 -1.0194  0.9788  0.3064
  182SLPC  C31220919   3.348   0.493   9.385  0.0019 -0.4121  0.4828
  182SLPC  H12X20920   3.256   0.529   9.334  1.6595  1.1464 -1.5550
  182SLPC  H12Y20921   3.328   0.392   9.426  1.8477 -1.3238 -0.7419
  182SLPC  C31320922   3.457   0.498   9.277  0.7470 -0.4654 -0.3788
  182SLPC  H13X20923   3.549   0.444   9.310  0.1064  0.9639  4.5596
  182SLPC  H13Y20924   3.484   0.604   9.259 -0.1858 -0.0337  0.6571
  182SLPC  C31420925   3.404   0.454   9.140  0.6265  0.1230 -1.1372
  182SLPC  H14X20926   3.315   0.517   9.119 -0.4580 -0.8445  0.3395
  182SLPC  H14Y20927   3.384   0.345   9.150  3.1737 -0.4614 -1.8164
  182SLPC  C31520928   3.504   0.480   9.022  1.0690 -0.1299 -0.6248
  182SLPC  H15X20929   3.596   0.422   9.046 -0.2602 -2.5102 -0.9640
  182SLPC  H15Y20930   3.505   0.591   9.018  2.8587 -0.0979 -0.1541
  182SLPC  C31620931   3.446   0.430   8.885 -0.0179 -0.2963 -0.0158
  182SLPC  H16X20932   3.503   0.477   8.802 -1.0765 -0.0877 -0.6457
  182SLPC  H16Y20933   3.341   0.465   8.880 -0.5848 -1.1404  3.2443
  182SLPC  C31720934   3.442   0.276   8.870 -0.7512 -0.3979  0.0034
  182SLPC  H17X20935   3.380   0.235   8.953  0.5307  0.9995  1.7329
  182SLPC  H17Y20936   3.540   0.228   8.893 -0.7620 -0.2578  0.3533
  182SLPC  C31820937   3.384   0.234   8.733  0.5951 -0.1520 -1.0173
  182SLPC  H18X20938   3.454   0.257   8.649 -1.3274  1.0413 -2.3651
  182SLPC  H18Y20939   3.293   0.292   8.705 -0.7908 -1.6582  0.2016
  182SLPC  H18Z20940   3.367   0.124   8.739 -0.6449 -0.0651 -2.4053
  183SLPC     N20941   1.541   3.453  10.805 -0.1754 -0.0384  0.5240
  183SLPC   C1320942   1.671   3.524  10.786  0.1660  0.1876 -0.3583
  183SLPC  H13A20943   1.653   3.618  10.737  0.4869  1.7993  2.4114
  183SLPC  H13B20944   1.728   3.539  10.877  0.2731  0.5905 -0.4912
  183SLPC  H13C20945   1.731   3.463  10.720 -0.4582 -0.2548 -0.5281
  183SLPC   C1420946   1.467   3.428  10.675  0.0229  1.0147  0.0162
  183SLPC  H14A20947   1.443   3.527  10.639 -1.2498  0.8868  0.4687
  183SLPC  H14B20948   1.533   3.369  10.613  0.2998 -0.3241  1.5147
  183SLPC  H14C20949   1.372   3.379  10.691  0.5615 -1.0209 -2.3078
  183SLPC   C1520950   1.457   3.544  10.889  0.0392  0.4051  1.0003
  183SLPC  H15A20951   1.353   3.516  10.891  0.4068 -1.0433  1.0551
  183SLPC  H15B20952   1.490   3.549  10.992 -0.7754  4.5297  1.2185
  183SLPC  H15C20953   1.459   3.640  10.840  0.1771  1.3596  2.7773
  183SLPC   C1220954   1.563   3.325  10.880 -0.7656  0.3623 -0.1916
  183SLPC  H12A20955   1.467   3.282  10.902 -0.0670 -0.0397  2.4558
  183SLPC  H12B20956   1.610   3.348  10.975 -0.3481 -0.0174 -0.3057
  183SLPC   C1120957   1.651   3.210  10.815 -0.0923 -0.5156 -0.7229
  183SLPC  H11A20958   1.651   3.127  10.888 -1.2676  0.4417  0.4238
  183SLPC  H11B20959   1.759   3.238  10.815  0.0944 -1.1340  0.9450
  183SLPC     P20960   1.502   3.061  10.652 -0.5021 -0.5888 -0.2159
  183SLPC   O1320961   1.421   3.020  10.771 -0.1985 -0.2106  0.7000
  183SLPC   O1420962   1.423   3.094  10.533  0.1143  0.0703  0.1033
  183SLPC   O1220963   1.607   3.178  10.683  0.0446 -0.7656  0.0491
  183SLPC   O1120964   1.619   2.954  10.619  0.0171  0.6696 -0.3696
  183SLPC    C120965   1.717   2.989  10.516 -0.1548 -0.7645 -0.0399
  183SLPC    HA20966   1.708   3.092  10.475 -1.0065 -0.9277 -0.2904
  183SLPC    HB20967   1.820   2.986  10.559 -0.1335  0.6970  0.0591
  183SLPC    C220968   1.707   2.891  10.395 -0.5181 -0.0401 -0.4825
  183SLPC    HS20969   1.809   2.885  10.349  1.3773 -0.2891  3.3682
  183SLPC   O2120970   1.599   2.931  10.302 -0.9902  0.2250  0.0612
  183SLPC   C2120971   1.639   3.025  10.220 -0.3803 -0.3791  0.4864
  183SLPC   O2220972   1.749   3.089  10.225  0.1669  0.6325  0.1682
  183SLPC   C2220973   1.527   3.042  10.118  0.6085 -0.4704  0.4111
  183SLPC   H2R20974   1.508   2.951  10.057  1.9227  0.9358 -2.2736
  183SLPC   H2S20975   1.434   3.059  10.176  0.2572  1.1163 -0.5383
  183SLPC    C320976   1.672   2.748  10.448  0.2322 -0.3535 -0.4616
  183SLPC    HX20977   1.564   2.753  10.476  0.5139 -0.0996  0.6504
  183SLPC    HY20978   1.740   2.719  10.530  0.6855  0.6015 -0.4844
  183SLPC   O3120979   1.673   2.662  10.334  0.1064  0.1241  0.0682
  183SLPC   C3120980   1.787   2.600  10.323  0.5720 -0.1207  0.6598
  183SLPC   O3220981   1.896   2.638  10.364 -0.2590  0.7659  0.1507
  183SLPC   C3220982   1.765   2.476  10.234  0.8257  0.0829 -0.4094
  183SLPC   H2X20983   1.716   2.521  10.146 -1.1715  3.5410  2.1991
  183SLPC   H2Y20984   1.687   2.416  10.286 -0.2720  1.3819 -0.4977
  183SLPC   C2320985   1.535   3.164  10.017 -0.3015 -0.2663  0.1327
  183SLPC   H3R20986   1.625   3.158   9.952  2.1117  0.9662  3.1067
  183SLPC   H3S20987   1.536   3.261  10.071  0.3708  0.1982 -0.6964
  183SLPC   C2420988   1.424   3.164   9.907 -0.1026 -0.2538 -0.0512
  183SLPC   H4R20989   1.429   3.261   9.852 -0.8272  0.1203  0.5356
  183SLPC   H4S20990   1.331   3.158   9.966  2.6947  0.6402  5.0817
  183SLPC   C2520991   1.453   3.064   9.792  0.0346 -0.3773  0.0934
  183SLPC   H5R20992   1.489   2.971   9.841  2.1572  1.1861  1.6602
  183SLPC   H5S20993   1.536   3.120   9.743 -0.1936  0.1145  0.2643
  183SLPC   C2620994   1.339   3.062   9.687  0.5874  0.0715  0.0028
  183SLPC   H6R20995   1.280   3.155   9.690  0.5541  0.0336  0.6745
  183SLPC   H6S20996   1.265   2.979   9.687 -1.0011  1.4273 -1.2316
  183SLPC   C2720997   1.397   3.043   9.550 -0.4025  0.1736 -0.4727
  183SLPC   H7R20998   1.457   2.949   9.552  1.7663  1.4897  0.3996
  183SLPC   H7S20999   1.462   3.130   9.527  0.5107 -0.3196  0.1643
  183SLPC   C2821000   1.284   3.033   9.447  0.0223  0.4016  0.4941
  183SLPC   H8R21001   1.239   3.134   9.442  0.2414  0.4790  0.0212
  183SLPC   H8S21002   1.202   2.965   9.478  2.0223 -0.9069  3.4240
  183SLPC   C2921003   1.337   2.995   9.313  0.4529 -0.1679 -0.9218
  183SLPC   H9R21004   1.435   2.946   9.309  0.8108  0.5769 -1.4392
  183SLPC  C21021005   1.289   3.030   9.190  0.2808  0.0878  0.3242
  183SLPC  H10R21006   1.332   2.989   9.098  0.6304 -0.0197  0.5329
  183SLPC  C21121007   1.163   3.112   9.167 -0.1389  0.3879 -0.1474
  183SLPC  H11R21008   1.121   3.155   9.261 -1.8808  0.0941 -0.7408
  183SLPC  H11S21009   1.080   3.041   9.143  0.9213 -0.1450 -2.4761
  183SLPC  C21221010   1.174   3.213   9.058  0.8087 -0.6946 -0.2985
  183SLPC  H12R21011   1.268   3.271   9.053 -0.6446  1.9129  0.4797
  183SLPC  C21321012   1.086   3.246   8.959 -0.0518 -0.2269 -0.2433
  183SLPC  H13R21013   1.114   3.322   8.885  1.2643 -0.6877 -0.2579
  183SLPC  C21421014   0.949   3.175   8.946 -0.2468 -0.6748 -0.1997
  183SLPC  H14R21015   0.869   3.252   8.942  1.6470  1.3525 -3.4081
  183SLPC  H14S21016   0.920   3.102   9.024  1.5331 -1.6907 -0.4436
  183SLPC  C21521017   0.953   3.112   8.813 -0.4695 -0.1095 -0.1281
  183SLPC  H15R21018   1.021   3.025   8.818 -1.1502 -0.6143  0.3914
  183SLPC  H15S21019   0.989   3.165   8.722  2.4531  0.3795  1.1992
  183SLPC  C21621020   0.820   3.038   8.785 -0.4579  0.0124  0.5098
  183SLPC  H16R21021   0.784   2.974   8.868  1.4978 -0.9262  0.6764
  183SLPC  H16S21022   0.827   2.969   8.698  0.0421  1.9648 -1.0524
  183SLPC  C21721023   0.704   3.127   8.741 -0.7144  0.2034  0.0187
  183SLPC  H17R21024   0.736   3.182   8.650 -1.6944  1.2668  0.2927
  183SLPC  H17S21025   0.689   3.206   8.817 -0.6235 -0.1464  0.4062
  183SLPC  C21821026   0.581   3.050   8.706 -0.3475 -0.0518  0.6703
  183SLPC  H18R21027   0.609   2.981   8.623 -0.5757  0.6549 -0.0038
  183SLPC  H18S21028   0.488   3.104   8.676 -0.4434 -0.6642 -0.1711
  183SLPC  H18T21029   0.549   2.988   8.792  0.2440  1.0186  1.6815
  183SLPC   C3321030   1.898   2.402  10.216  0.2625  0.4759  0.0241
  183SLPC   H3X21031   1.882   2.296  10.187 -0.8937  1.0048 -1.4379
  183SLPC   H3Y21032   1.951   2.396  10.313 -2.3604 -1.8243  1.4693
  183SLPC   C3421033   1.997   2.460  10.114 -0.2041 -0.4222  0.9012
  183SLPC   H4X21034   2.026   2.558  10.157  0.2082 -0.4904  0.7903
  183SLPC   H4Y21035   1.947   2.481  10.017 -2.4357  1.5818  2.3836
  183SLPC   C3521036   2.121   2.362  10.099 -0.7083  0.2586  0.6895
  183SLPC   H5X21037   2.087   2.261  10.067  0.4404  0.5180 -1.6200
  183SLPC   H5Y21038   2.168   2.360  10.199  0.0554  1.5252  0.3828
  183SLPC   C3621039   2.223   2.418  10.003  0.2563  0.2127 -0.7701
  183SLPC   H6X21040   2.305   2.343  10.004  0.8833  0.8832  0.8938
  183SLPC   H6Y21041   2.259   2.510  10.053  1.0196 -1.2317  1.4674
  183SLPC   C3721042   2.173   2.462   9.861  0.2399 -0.7697 -0.5748
  183SLPC   H7X21043   2.269   2.481   9.807  0.8133 -0.7847  0.4141
  183SLPC   H7Y21044   2.118   2.559   9.864  1.5800  0.0065 -0.3122
  183SLPC   C3821045   2.096   2.357   9.777  0.7422  0.1669 -0.5238
  183SLPC   H8X21046   2.003   2.329   9.831  0.7110  0.3799 -0.4635
  183SLPC   H8Y21047   2.131   2.253   9.759 -3.6124 -1.3934 -1.1445
  183SLPC   C3921048   2.053   2.405   9.635 -0.1634 -0.0595  0.3914
  183SLPC   H9X21049   2.144   2.439   9.581 -1.2372 -0.4980 -1.7756
  183SLPC   H9Y21050   1.980   2.488   9.640 -2.1694 -1.7015  0.0195
  183SLPC  C31021051   2.006   2.292   9.543 -0.5147 -0.2309  0.0540
  183SLPC  H10X21052   1.971   2.343   9.451  0.2565  0.4351  0.1191
  183SLPC  H10Y21053   1.925   2.223   9.576 -0.8013 -0.2555 -0.6961
  183SLPC  C31121054   2.121   2.208   9.497 -0.8981  0.2713 -0.3438
  183SLPC  H11X21055   2.179   2.157   9.577  0.2851 -1.8408 -2.4136
  183SLPC  H11Y21056   2.201   2.267   9.447 -0.2215 -0.3633 -0.0381
  183SLPC  C31221057   2.094   2.101   9.400 -0.3440 -0.4727 -0.1091
  183SLPC  H12X21058   2.009   2.035   9.429 -0.8031 -0.0970 -0.5689
  183SLPC  H12Y21059   2.189   2.044   9.405  0.5570  1.0103  0.4921
  183SLPC  C31321060   2.085   2.145   9.254  0.1513  0.1275 -0.0672
  183SLPC  H13X21061   2.182   2.192   9.225  2.6018 -4.0970  0.3715
  183SLPC  H13Y21062   1.994   2.207   9.241  0.2613  0.8623  2.2512
  183SLPC  C31421063   2.086   2.026   9.164 -0.4464  0.6295  0.5200
  183SLPC  H14X21064   2.012   1.954   9.203 -2.2529  1.2184 -1.6243
  183SLPC  H14Y21065   2.186   1.978   9.174 -0.4230  0.9968  2.3088
  183SLPC  C31521066   2.046   2.046   9.016 -0.1518  0.7511  0.4729
  183SLPC  H15X21067   1.936   2.059   9.004 -0.4811 -0.7491  1.5942
  183SLPC  H15Y21068   2.070   1.953   8.959 -1.7412  0.3841  0.3415
  183SLPC  C31621069   2.129   2.148   8.945  0.8252 -0.5383  0.3160
  183SLPC  H16X21070   2.236   2.127   8.966  0.9493  0.8328  1.1216
  183SLPC  H16Y21071   2.098   2.241   8.997  0.9178 -0.6940  0.6519
  183SLPC  C31721072   2.097   2.155   8.792 -0.1526 -0.5309  0.0949
  183SLPC  H17X21073   1.986   2.159   8.784 -0.0435 -1.0161 -2.4058
  183SLPC  H17Y21074   2.128   2.071   8.726  0.1845  0.5874 -1.2047
  183SLPC  C31821075   2.154   2.289   8.732  0.0365 -0.6037 -0.7338
  183SLPC  H18X21076   2.249   2.320   8.780  0.5500 -0.9156 -1.5345
  183SLPC  H18Y21077   2.084   2.373   8.750  0.9391 -0.4234  2.4964
  183SLPC  H18Z21078   2.166   2.266   8.624  2.0877 -2.0264 -0.2462
  184SLPC     N21079   0.162   0.002  11.194  0.5066  0.2873 -0.6351
  184SLPC   C1321080   0.036   0.060  11.148 -0.2043  0.0857  0.2188
  184SLPC  H13A21081  -0.027  -0.015  11.102  1.2640 -0.8480 -0.3665
  184SLPC  H13B21082  -0.011   0.112  11.230 -0.1874 -0.3280  0.4931
  184SLPC  H13C21083   0.041   0.121  11.059 -1.0320 -1.7163 -1.1165
  184SLPC   C1421084   0.151  -0.071  11.326  0.4345 -0.4396 -0.0807
  184SLPC  H14A21085   0.126   0.002  11.401  1.7353  1.5992 -1.5125
  184SLPC  H14B21086   0.070  -0.142  11.330  1.6631 -1.8489  0.3830
  184SLPC  H14C21087   0.245  -0.118  11.352  0.9662  1.4109  1.5811
  184SLPC   C1521088   0.266   0.115  11.204  0.0639  0.0457 -0.4039
  184SLPC  H15A21089   0.247   0.189  11.281  0.1827  0.0343 -0.3639
  184SLPC  H15B21090   0.364   0.076  11.227 -1.0218 -2.6301  0.0348
  184SLPC  H15C21091   0.277   0.164  11.108 -2.3161 -1.1181 -1.3366
  184SLPC   C1221092   0.210  -0.092  11.083 -0.4991  0.1450 -0.3260
  184SLPC  H12A21093   0.130  -0.164  11.078 -0.3587  0.0613 -2.3602
  184SLPC  H12B21094   0.304  -0.135  11.116 -0.8600 -1.7317 -1.5974
  184SLPC   C1121095   0.233  -0.027  10.941 -0.0951 -0.0551  0.0576
  184SLPC  H11A21096   0.283  -0.106  10.881  0.0770  0.6790 -0.7885
  184SLPC  H11B21097   0.318   0.042  10.958  2.4586 -3.6228  3.3142
  184SLPC     P21098   0.015  -0.082  10.817  0.0892  0.3447 -0.2222
  184SLPC   O1321099   0.013  -0.197  10.912  0.2095 -0.0569 -0.0220
  184SLPC   O1421100  -0.111  -0.009  10.800  0.4475 -0.1103 -0.4851
  184SLPC   O1221101   0.120   0.029  10.871  0.4962 -0.1369 -0.1498
  184SLPC   O1121102   0.081  -0.131  10.684 -0.6117  0.1880 -0.2677
  184SLPC    C121103   0.062  -0.261  10.620 -0.5621  0.6528  0.3448
  184SLPC    HA21104   0.162  -0.311  10.625 -0.7323  0.2853  0.1339
  184SLPC    HB21105  -0.016  -0.320  10.673  0.0520 -0.6025 -0.1080
  184SLPC    C221106   0.024  -0.255  10.465 -0.3740 -0.2351  0.0664
  184SLPC    HS21107   0.008  -0.361  10.436  0.2080 -0.6182  1.0754
  184SLPC   O2121108   0.134  -0.197  10.392 -0.3391  0.5067  0.0948
  184SLPC   C2121109   0.231  -0.285  10.356  0.2996 -0.1721 -0.6440
  184SLPC   O2221110   0.226  -0.408  10.382  0.1893  0.0577 -0.4176
  184SLPC   C2221111   0.346  -0.213  10.283 -0.3369 -0.0201 -0.3798
  184SLPC   H2R21112   0.388  -0.152  10.366  2.6402 -3.4147  0.8661
  184SLPC   H2S21113   0.423  -0.293  10.276 -1.9722 -1.6903  0.1658
  184SLPC    C321114  -0.108  -0.184  10.444 -0.5616  0.0902 -0.0951
  184SLPC    HX21115  -0.109  -0.080  10.482 -1.3691  0.0355  0.0700
  184SLPC    HY21116  -0.193  -0.220  10.507 -0.2676  2.2909  1.6802
  184SLPC   O3121117  -0.147  -0.183  10.310 -0.1581 -0.0885  0.4775
  184SLPC   C3121118  -0.222  -0.272  10.251 -0.4918  0.0741 -0.1779
  184SLPC   O3221119  -0.247  -0.383  10.293 -0.1039  0.3137 -0.0569
  184SLPC   C3221120  -0.278  -0.218  10.121 -0.3763  0.2983  0.4458
  184SLPC   H2X21121  -0.291  -0.108  10.130  1.4788  0.6804 -1.0568
  184SLPC   H2Y21122  -0.381  -0.259  10.112  0.1580 -1.0701  0.3458
  184SLPC   C2321123   0.294  -0.129  10.162 -0.1066 -0.0335 -0.1550
  184SLPC   H3R21124   0.377  -0.067  10.121 -0.1917  1.6064  1.9370
  184SLPC   H3S21125   0.218  -0.059  10.203 -0.6666 -0.5541 -0.2952
  184SLPC   C2421126   0.226  -0.211  10.056 -0.4914 -0.5554  0.1549
  184SLPC   H4R21127   0.189  -0.145   9.974  1.5550 -0.7494 -1.0063
  184SLPC   H4S21128   0.147  -0.278  10.095  0.2052  0.0248  2.7241
  184SLPC   C2521129   0.311  -0.312   9.983 -0.0771 -0.0817  0.3034
  184SLPC   H5R21130   0.255  -0.381   9.916 -1.1980  1.4195 -0.3716
  184SLPC   H5S21131   0.360  -0.378  10.057 -1.1581  0.1318  1.2371
  184SLPC   C2621132   0.425  -0.248   9.900  0.7741  0.8194  0.2686
  184SLPC   H6R21133   0.509  -0.320   9.885 -0.2149 -0.5333  1.0500
  184SLPC   H6S21134   0.487  -0.176   9.958  0.6195 -0.6671  2.3818
  184SLPC   C2721135   0.387  -0.199   9.762  0.5543  0.2405 -0.0609
  184SLPC   H7R21136   0.466  -0.153   9.699  2.1745 -1.6718  0.4870
  184SLPC   H7S21137   0.309  -0.119   9.767 -1.3873 -1.4821 -1.2579
  184SLPC   C2821138   0.315  -0.307   9.672  0.3004  0.2439 -0.2919
  184SLPC   H8R21139   0.276  -0.252   9.583  1.6286  1.5519 -0.1119
  184SLPC   H8S21140   0.225  -0.355   9.716  0.0081 -0.5968 -1.7418
  184SLPC   C2921141   0.409  -0.413   9.624 -0.1329 -0.4159 -0.3047
  184SLPC   H9R21142   0.450  -0.484   9.698 -0.2681 -0.6537 -0.4587
  184SLPC  C21021143   0.455  -0.422   9.496  1.0313 -0.4944  0.3840
  184SLPC  H10R21144   0.524  -0.504   9.472  0.2401 -0.6928 -1.3425
  184SLPC  C21121145   0.422  -0.328   9.377 -0.1356 -0.4373  0.0481
  184SLPC  H11R21146   0.321  -0.283   9.390 -0.3040 -1.0393  0.8955
  184SLPC  H11S21147   0.408  -0.388   9.284 -1.9534  1.2120 -0.8256
  184SLPC  C21221148   0.525  -0.218   9.368 -0.3582  0.3456  0.2446
  184SLPC  H12R21149   0.608  -0.230   9.440 -0.5389 -0.9451  0.2679
  184SLPC  C21321150   0.528  -0.131   9.272  0.2891 -0.2180  0.0415
  184SLPC  H13R21151   0.598  -0.046   9.264 -0.5418  0.3352 -2.0237
  184SLPC  C21421152   0.437  -0.111   9.153 -0.6742  0.7155  0.2084
  184SLPC  H14R21153   0.427  -0.002   9.133 -1.0103  0.3701 -1.6939
  184SLPC  H14S21154   0.336  -0.151   9.171 -0.2294 -1.1809 -1.2285
  184SLPC  C21521155   0.491  -0.173   9.020 -0.5781  0.6242 -0.4034
  184SLPC  H15R21156   0.400  -0.188   8.958 -1.7226 -1.0400  1.5276
  184SLPC  H15S21157   0.535  -0.274   9.034  1.0224  1.1410 -1.4498
  184SLPC  C21621158   0.594  -0.091   8.942  0.4665 -0.6117 -1.2566
  184SLPC  H16R21159   0.690  -0.100   8.998 -0.2931  1.0431  0.4421
  184SLPC  H16S21160   0.571   0.018   8.951  1.2512 -0.5241 -0.0929
  184SLPC  C21721161   0.615  -0.128   8.790  0.9507  0.1953 -0.1435
  184SLPC  H17R21162   0.703  -0.064   8.766 -0.6133  2.4597 -0.1463
  184SLPC  H17S21163   0.534  -0.081   8.730 -0.4476 -1.6312  0.2355
  184SLPC  C21821164   0.645  -0.274   8.746 -0.2073  0.1177 -0.2191
  184SLPC  H18R21165   0.701  -0.332   8.823  0.6050  1.9980  0.6632
  184SLPC  H18S21166   0.703  -0.289   8.653  0.9203 -0.9236  0.6168
  184SLPC  H18T21167   0.542  -0.316   8.736 -0.4553  1.0886 -1.9388
  184SLPC   C3321168  -0.198  -0.252   9.999 -0.5745  0.5373  0.5940
  184SLPC   H3X21169  -0.089  -0.241  10.016  0.5665 -2.9911 -2.8587
  184SLPC   H3Y21170  -0.236  -0.188   9.917 -0.0965  0.9195  0.6647
  184SLPC   C3421171  -0.206  -0.403   9.953  0.0888 -0.3698  0.6662
  184SLPC   H4X21172  -0.313  -0.430   9.942  0.4037 -0.9326 -1.4394
  184SLPC   H4Y21173  -0.172  -0.471  10.034 -0.2043 -0.8615  0.3840
  184SLPC   C3521174  -0.126  -0.421   9.826  0.3734 -0.0794  0.1036
  184SLPC   H5X21175  -0.138  -0.530   9.806 -2.4215  0.0747  0.5299
  184SLPC   H5Y21176  -0.022  -0.385   9.843 -0.1747  1.6891 -0.0526
  184SLPC   C3621177  -0.182  -0.350   9.700 -0.2868  0.2466 -0.0065
  184SLPC   H6X21178  -0.197  -0.240   9.711 -0.1154  0.3848 -1.0295
  184SLPC   H6Y21179  -0.287  -0.385   9.690 -2.3017  4.8201  1.8800
  184SLPC   C3721180  -0.089  -0.379   9.582 -0.1244  0.5205  0.0831
  184SLPC   H7X21181  -0.045  -0.481   9.591  0.0729  0.6459  0.5532
  184SLPC   H7Y21182  -0.003  -0.309   9.585  0.3285  0.2460 -3.3150
  184SLPC   C3821183  -0.159  -0.376   9.443 -0.5037  0.2581 -0.5128
  184SLPC   H8X21184  -0.231  -0.292   9.443 -0.6783  0.1107 -0.8433
  184SLPC   H8Y21185  -0.207  -0.476   9.433  0.1246 -0.1444  0.2859
  184SLPC   C3921186  -0.066  -0.356   9.324 -0.4989  0.1539  0.0302
  184SLPC   H9X21187   0.016  -0.430   9.331 -2.1983 -1.8153 -0.1071
  184SLPC   H9Y21188  -0.025  -0.253   9.338 -1.7987  0.4251  2.5721
  184SLPC  C31021189  -0.130  -0.338   9.183  0.7591  0.4337  0.2799
  184SLPC  H10X21190  -0.213  -0.264   9.186 -0.2886 -0.7377  0.8712
  184SLPC  H10Y21191  -0.182  -0.435   9.172  1.3439  0.1784 -0.2344
  184SLPC  C31121192  -0.030  -0.316   9.069 -0.5377  0.0698  0.1437
  184SLPC  H11X21193   0.041  -0.235   9.099  0.5664 -1.1204  0.8769
  184SLPC  H11Y21194  -0.073  -0.276   8.975 -0.4184 -1.1038 -0.4310
  184SLPC  C31221195   0.038  -0.447   9.037 -0.3511 -0.3409  0.2105
  184SLPC  H12X21196  -0.036  -0.510   8.984 -1.4438  0.6397  0.5281
  184SLPC  H12Y21197   0.079  -0.493   9.130 -0.0461 -0.0395  0.2228
  184SLPC  C31321198   0.158  -0.427   8.941 -0.4074 -0.4189  0.3982
  184SLPC  H13X21199   0.186  -0.531   8.916 -0.5302 -0.6546  1.2296
  184SLPC  H13Y21200   0.238  -0.371   8.993  0.4412 -0.7894 -0.4799
  184SLPC  C31421201   0.125  -0.369   8.801 -0.4355 -0.1340  0.1705
  184SLPC  H14X21202   0.085  -0.265   8.797  3.7376  1.6464 -0.8189
  184SLPC  H14Y21203   0.063  -0.445   8.748  1.3273 -1.7241  0.2985
  184SLPC  C31521204   0.249  -0.343   8.716  0.1631 -0.1357 -0.8426
  184SLPC  H15X21205   0.315  -0.432   8.710 -0.4246 -0.6668  0.2711
  184SLPC  H15Y21206   0.309  -0.270   8.775 -1.3596  0.4119  0.0943
  184SLPC  C31621207   0.208  -0.301   8.569 -0.9914  0.4675 -0.4275
  184SLPC  H16X21208   0.118  -0.236   8.570 -2.5231 -1.5548  0.4438
  184SLPC  H16Y21209   0.177  -0.392   8.513 -3.2932  0.4898  0.7010
  184SLPC  C31721210   0.326  -0.241   8.501  0.1300  0.3697 -0.8554
  184SLPC  H17X21211   0.411  -0.308   8.527  2.0821  3.2696  0.6881
  184SLPC  H17Y21212   0.350  -0.140   8.540  1.3408 -0.1867 -0.1244
  184SLPC  C31821213   0.307  -0.231   8.348  0.2412  1.0338 -0.0826
  184SLPC  H18X21214   0.405  -0.195   8.311  0.7291  1.1170  1.2331
  184SLPC  H18Y21215   0.223  -0.168   8.312  0.3899  1.1946 -0.1492
  184SLPC  H18Z21216   0.298  -0.337   8.316  0.0144  0.5086  1.6065
  185SLPC     N21217   0.546   5.657   6.162 -0.3809  0.1017 -0.3947
  185SLPC   C1321218   0.450   5.701   6.056 -0.4137 -0.2849 -0.6401
  185SLPC  H13A21219   0.368   5.633   6.038 -2.0012  1.1899  0.7217
  185SLPC  H13B21220   0.404   5.791   6.094 -0.2305 -0.0981 -0.8601
  185SLPC  H13C21221   0.504   5.713   5.963  1.4752 -1.7973  0.1949
  185SLPC   C1421222   0.628   5.539   6.116  0.0474  0.5599  0.1148
  185SLPC  H14A21223   0.555   5.464   6.093 -2.0853  2.0442  1.6064
  185SLPC  H14B21224   0.675   5.579   6.027 -2.2380  1.5993 -0.7140
  185SLPC  H14C21225   0.689   5.505   6.198  2.6991  0.5715 -1.7355
  185SLPC   C1521226   0.471   5.614   6.286 -0.5301  0.0287 -0.3858
  185SLPC  H15A21227   0.540   5.582   6.362 -2.5059 -0.3548  1.3375
  185SLPC  H15B21228   0.409   5.693   6.326  0.9241  1.9123 -1.6655
  185SLPC  H15C21229   0.405   5.532   6.264 -2.1958  1.3985 -0.7359
  185SLPC   C1221230   0.643   5.769   6.208 -0.1764 -0.1566 -0.3725
  185SLPC  H12A21231   0.574   5.844   6.242 -1.4352 -1.3790 -0.1552
  185SLPC  H12B21232   0.705   5.797   6.124 -1.0077 -0.5071 -1.1145
  185SLPC   C1121233   0.734   5.752   6.330 -0.3884  0.5570 -0.2803
  185SLPC  H11A21234   0.673   5.754   6.423 -0.8293 -1.2357 -0.4937
  185SLPC  H11B21235   0.792   5.847   6.332 -0.8063  0.8037  0.2756
  185SLPC     P21236   0.955   5.610   6.398 -0.2192 -0.0464 -0.1422
  185SLPC   O1321237   0.967   5.465   6.413  0.0041 -0.6895 -0.5328
  185SLPC   O1421238   1.077   5.667   6.326  0.4541 -0.6064  0.4574
  185SLPC   O1221239   0.823   5.643   6.320 -0.3635 -0.6594 -0.0273
  185SLPC   O1121240   0.942   5.667   6.543  0.5094  0.7955  0.3125
  185SLPC    C121241   0.899   5.589   6.658  0.1298 -0.9868  0.6257
  185SLPC    HA21242   0.809   5.527   6.637 -0.7685  0.3604  0.3622
  185SLPC    HB21243   0.984   5.534   6.702  0.8015 -1.0674 -0.7257
  185SLPC    C221244   0.849   5.688   6.765 -0.2092  0.1609 -0.1498
  185SLPC    HS21245   0.753   5.723   6.720  0.7110 -0.1086 -2.4367
  185SLPC   O2121246   0.952   5.795   6.791  0.5594  0.4969 -0.3649
  185SLPC   C2121247   0.910   5.914   6.840 -0.7696 -0.1169 -0.0558
  185SLPC   O2221248   0.799   5.946   6.845  0.3850  1.1987 -0.6516
  185SLPC   C2221249   1.031   5.999   6.893  0.3699  0.1823  0.0261
  185SLPC   H2R21250   1.109   5.936   6.940 -0.9008 -1.0068  0.6138
  185SLPC   H2S21251   1.064   6.048   6.799  0.6007  0.5097  0.2740
  185SLPC    C321252   0.811   5.622   6.903  0.3875  0.3689  0.7109
  185SLPC    HX21253   0.903   5.566   6.931  0.4114 -0.2545 -0.5427
  185SLPC    HY21254   0.737   5.541   6.883  1.5005 -0.4493 -0.2881
  185SLPC   O3121255   0.778   5.706   7.015 -0.3773 -0.5460  0.7005
  185SLPC   C3121256   0.650   5.746   7.007 -0.8943  0.2515 -0.0701
  185SLPC   O3221257   0.569   5.731   6.916 -0.2734 -0.2936 -0.0196
  185SLPC   C3221258   0.616   5.815   7.140  0.1679  0.3474 -0.3926
  185SLPC   H2X21259   0.645   5.921   7.129  0.4020  0.2260 -0.9934
  185SLPC   H2Y21260   0.664   5.755   7.221 -2.5677 -0.7034  0.5517
  185SLPC   C2321261   0.992   6.102   7.000 -0.1657  0.1740 -0.9037
  185SLPC   H3R21262   0.916   6.174   6.961  0.5190  1.9244  0.8317
  185SLPC   H3S21263   1.084   6.158   7.028  0.4371 -0.5775 -1.3413
  185SLPC   C2421264   0.942   6.033   7.125  0.4839  0.2476  0.5393
  185SLPC   H4R21265   1.024   5.963   7.153  1.7835  0.7908 -1.6197
  185SLPC   H4S21266   0.860   5.967   7.088  1.0010  0.6663 -1.4749
  185SLPC   C2521267   0.904   6.136   7.239 -0.2914 -0.3939  0.6531
  185SLPC   H5R21268   0.817   6.200   7.213 -0.6748 -0.4271  1.8325
  185SLPC   H5S21269   0.986   6.208   7.259 -0.9951  1.2087 -1.7823
  185SLPC   C2621270   0.870   6.066   7.377 -0.0839  0.0611 -0.1743
  185SLPC   H6R21271   0.927   6.122   7.454  2.5053 -2.7073  0.1411
  185SLPC   H6S21272   0.922   5.968   7.381 -1.7383 -0.8178  0.9605
  185SLPC   C2721273   0.717   6.051   7.415 -0.1513  0.0613  0.4033
  185SLPC   H7R21274   0.661   6.016   7.325  0.8301 -0.6806  0.0675
  185SLPC   H7S21275   0.678   6.152   7.442  0.1487  0.0024  1.0732
  185SLPC   C2821276   0.685   5.962   7.534 -0.1568  0.2875 -0.6672
  185SLPC   H8R21277   0.715   5.859   7.505  2.5569  0.7727  0.1097
  185SLPC   H8S21278   0.574   5.961   7.543 -0.1375  2.2046  0.1331
  185SLPC   C2921279   0.763   5.993   7.655  0.9923 -0.4425 -0.7769
  185SLPC   H9R21280   0.866   5.958   7.666  1.3557 -0.2256 -3.1419
  185SLPC  C21021281   0.725   6.088   7.746  1.1573  0.4168  0.7321
  185SLPC  H10R21282   0.785   6.113   7.834 -1.2418 -0.3363  2.7161
  185SLPC  C21121283   0.591   6.170   7.738 -0.4024 -0.1324  0.2098
  185SLPC  H11R21284   0.526   6.128   7.659 -1.3887 -0.0202  0.9365
  185SLPC  H11S21285   0.614   6.277   7.719  0.4169 -0.2690  0.3989
  185SLPC  C21221286   0.506   6.147   7.863 -0.4144  0.4163 -0.2978
  185SLPC  H12R21287   0.410   6.092   7.856  0.3308 -0.8627 -0.8508
  185SLPC  C21321288   0.533   6.196   7.990 -0.4050 -1.0464  0.0178
  185SLPC  H13R21289   0.475   6.157   8.075 -2.1011  0.7420 -0.2730
  185SLPC  C21421290   0.650   6.276   8.026  0.2768 -0.0197  0.4092
  185SLPC  H14R21291   0.693   6.319   7.933  0.6109  2.5094  1.6475
  185SLPC  H14S21292   0.726   6.205   8.066  1.0725 -0.5178 -1.8440
  185SLPC  C21521293   0.640   6.399   8.117 -0.2476  0.0654 -0.2597
  185SLPC  H15R21294   0.572   6.478   8.079 -4.5555 -3.5181 -0.8169
  185SLPC  H15S21295   0.747   6.431   8.121  0.1378 -1.1820  0.1358
  185SLPC  C21621296   0.600   6.383   8.265 -0.0056 -1.2757  1.1117
  185SLPC  H16R21297   0.489   6.370   8.259 -0.2331  0.8670 -3.0505
  185SLPC  H16S21298   0.619   6.482   8.312  2.1207 -0.1192 -1.8965
  185SLPC  C21721299   0.679   6.278   8.345 -0.5293 -0.6767 -0.1313
  185SLPC  H17R21300   0.786   6.302   8.330 -0.1610 -1.6895  0.7779
  185SLPC  H17S21301   0.674   6.170   8.318  1.1219 -1.0561  0.9553
  185SLPC  C21821302   0.647   6.296   8.494 -0.4786  0.3666 -0.1264
  185SLPC  H18R21303   0.545   6.255   8.509 -0.4879  0.3635 -0.1983
  185SLPC  H18S21304   0.651   6.400   8.531 -1.1245 -0.2236  1.6947
  185SLPC  H18T21305   0.713   6.227   8.552 -1.0865  0.1802  0.3562
  185SLPC   C3321306   0.462   5.799   7.149 -0.7095 -0.3436 -0.7330
  185SLPC   H3X21307   0.415   5.701   7.128 -2.7323  0.3868  0.1272
  185SLPC   H3Y21308   0.405   5.859   7.074 -1.4347 -1.2516 -0.9273
  185SLPC   C3421309   0.402   5.840   7.282 -0.5467  0.1905 -0.1122
  185SLPC   H4X21310   0.416   5.949   7.301  4.8646 -0.3166  0.4898
  185SLPC   H4Y21311   0.450   5.783   7.364 -1.5749  0.5513  0.7552
  185SLPC   C3521312   0.251   5.806   7.299 -0.3663 -0.3281  0.1195
  185SLPC   H5X21313   0.230   5.705   7.259  0.1793 -1.1680  1.8509
  185SLPC   H5Y21314   0.197   5.880   7.237 -1.3885  0.5347  1.9618
  185SLPC   C3621315   0.211   5.810   7.445 -0.4225  0.6614  0.2061
  185SLPC   H6X21316   0.282   5.747   7.503  0.6220  0.6722 -1.0176
  185SLPC   H6Y21317   0.107   5.771   7.456 -0.2453  0.3579  0.8320
  185SLPC   C3721318   0.205   5.954   7.498 -0.4171 -0.3085 -0.3965
  185SLPC   H7X21319   0.124   6.016   7.454  1.4904  2.2449 -0.5038
  185SLPC   H7Y21320   0.295   6.018   7.493 -1.7725  1.8903  1.3505
  185SLPC   C3821321   0.170   5.950   7.651  0.6169 -0.4718  0.3202
  185SLPC   H8X21322   0.075   5.893   7.654  1.5821 -2.1295  0.9704
  185SLPC   H8Y21323   0.152   6.055   7.684 -1.3358  0.0292 -2.0267
  185SLPC   C3921324   0.264   5.869   7.739  0.7368 -0.0374  0.5875
  185SLPC   H9X21325   0.366   5.907   7.720  0.8246 -0.0240  1.0555
  185SLPC   H9Y21326   0.259   5.762   7.713 -0.5862  0.2674 -0.5087
  185SLPC  C31021327   0.225   5.894   7.876 -0.2547 -0.3346 -0.1944
  185SLPC  H10X21328   0.131   5.842   7.907  1.8511 -3.3523  1.6138
  185SLPC  H10Y21329   0.208   6.003   7.889  0.9765  0.2133 -2.5784
  185SLPC  C31121330   0.334   5.855   7.978  0.3223  0.3754 -0.0489
  185SLPC  H11X21331   0.432   5.896   7.948  0.8762 -2.0591 -1.9513
  185SLPC  H11Y21332   0.352   5.746   7.966  1.6656  0.4319  1.3057
  185SLPC  C31221333   0.297   5.874   8.123  0.3736  0.0832  0.0511
  185SLPC  H12X21334   0.204   5.814   8.134 -0.2262  0.6721 -1.5527
  185SLPC  H12Y21335   0.268   5.980   8.140 -0.0207 -0.0128 -0.0133
  185SLPC  C31321336   0.408   5.838   8.221  0.5448 -0.9106  0.9598
  185SLPC  H13X21337   0.492   5.909   8.205 -0.0731  0.0212  1.7364
  185SLPC  H13Y21338   0.442   5.734   8.199 -2.6284 -2.1128  1.1715
  185SLPC  C31421339   0.349   5.842   8.356 -0.1646  0.3861  0.4626
  185SLPC  H14X21340   0.248   5.795   8.349  0.7132 -1.4290 -0.5195
  185SLPC  H14Y21341   0.330   5.951   8.371 -3.5968  0.1171 -0.8868
  185SLPC  C31521342   0.414   5.772   8.471 -0.1196  0.6327  1.3870
  185SLPC  H15X21343   0.414   5.667   8.436  1.9944  0.9122  0.4472
  185SLPC  H15Y21344   0.339   5.760   8.553 -1.6787  0.0556 -0.0688
  185SLPC  C31621345   0.545   5.812   8.525 -0.1569  0.4106 -0.1353
  185SLPC  H16X21346   0.553   5.923   8.537  0.6860  0.1458  2.4975
  185SLPC  H16Y21347   0.622   5.791   8.448  1.4322  0.6322  1.3308
  185SLPC  C31721348   0.590   5.725   8.644  0.1115  0.6983 -0.1154
  185SLPC  H17X21349   0.687   5.771   8.675  0.8838 -0.5626 -0.5956
  185SLPC  H17Y21350   0.613   5.620   8.619 -2.2044 -0.3182  1.6819
  185SLPC  C31821351   0.500   5.728   8.770 -0.3479 -0.8310 -0.2621
  185SLPC  H18X21352   0.409   5.666   8.753 -1.0229  0.1546 -0.2704
  185SLPC  H18Y21353   0.469   5.832   8.793  2.1056 -0.2287  0.5823
  185SLPC  H18Z21354   0.546   5.683   8.861 -0.0451 -0.9372 -0.4675
  186SLPC     N21355   4.682   6.836   6.276 -0.6638 -0.5331 -0.4820
  186SLPC   C1321356   4.650   6.697   6.224 -0.0993  0.1439  0.1905
  186SLPC  H13A21357   4.612   6.644   6.310  1.3604  0.2107  0.8995
  186SLPC  H13B21358   4.566   6.697   6.155 -0.7856  0.8428  0.9949
  186SLPC  H13C21359   4.736   6.647   6.181 -1.1343 -0.9285 -0.7328
  186SLPC   C1421360   4.734   6.918   6.165  0.0343  0.7647 -0.2495
  186SLPC  H14A21361   4.657   6.914   6.089  0.5370 -2.6485 -0.7324
  186SLPC  H14B21362   4.756   7.019   6.198  0.8027  0.2736  0.8190
  186SLPC  H14C21363   4.827   6.887   6.122  0.0494  0.7342 -0.1961
  186SLPC   C1521364   4.784   6.819   6.383  0.0099  0.0493  0.2400
  186SLPC  H15A21365   4.766   6.726   6.434 -3.4368 -0.1305 -1.0528
  186SLPC  H15B21366   4.883   6.813   6.341  0.3466 -0.3249  1.0677
  186SLPC  H15C21367   4.777   6.907   6.446  1.3510 -0.3966  1.0484
  186SLPC   C1221368   4.560   6.887   6.342 -0.2397 -0.4739 -0.2337
  186SLPC  H12A21369   4.589   6.977   6.394 -2.5436 -0.2768  0.8143
  186SLPC  H12B21370   4.549   6.809   6.415  4.4066  0.0569  1.3474
  186SLPC   C1121371   4.434   6.918   6.256  0.4302 -0.4368  0.8555
  186SLPC  H11A21372   4.349   6.936   6.327 -0.0357 -2.9744  1.0127
  186SLPC  H11B21373   4.405   6.840   6.183  1.2015  0.1966 -0.1482
  186SLPC     P21374   4.473   7.172   6.242  0.5199 -0.0320 -0.4099
  186SLPC   O1321375   4.587   7.238   6.168 -0.0262  0.5342 -0.1322
  186SLPC   O1421376   4.339   7.238   6.246 -0.0906  0.3257  0.1207
  186SLPC   O1221377   4.456   7.033   6.172  0.3108 -0.2971 -0.0596
  186SLPC   O1121378   4.514   7.147   6.399  0.0156  0.2629 -0.1272
  186SLPC    C121379   4.425   7.164   6.503  0.4836  0.1779 -0.7497
  186SLPC    HA21380   4.321   7.176   6.465  0.1963  1.6081  0.3819
  186SLPC    HB21381   4.441   7.075   6.568  0.4091 -0.2797 -1.3558
  186SLPC    C221382   4.458   7.289   6.582  0.8552  0.1745 -1.1531
  186SLPC    HS21383   4.461   7.359   6.496  0.0768 -0.1054 -1.4086
  186SLPC   O2121384   4.588   7.278   6.636  0.1216 -0.6487 -0.2866
  186SLPC   C2121385   4.636   7.398   6.682  0.2557  0.8781  0.0790
  186SLPC   O2221386   4.582   7.506   6.678 -0.2116 -0.8534 -0.3214
  186SLPC   C2221387   4.782   7.363   6.727  0.3698 -0.5566  0.0315
  186SLPC   H2R21388   4.773   7.267   6.782 -3.3948  0.3278  1.2523
  186SLPC   H2S21389   4.839   7.359   6.631  0.8637  0.0593  0.2951
  186SLPC    C321390   4.352   7.315   6.678  0.1012 -0.1737  0.0557
  186SLPC    HX21391   4.266   7.317   6.607 -0.1555  0.6449  0.3881
  186SLPC    HY21392   4.352   7.415   6.726  0.8871 -0.4395  0.6317
  186SLPC   O3121393   4.330   7.211   6.773  0.3519  0.8492 -0.3936
  186SLPC   C3121394   4.403   7.224   6.883 -0.0897  0.7017 -0.4538
  186SLPC   O3221395   4.474   7.316   6.908 -0.0983 -0.1820  0.0962
  186SLPC   C3221396   4.390   7.098   6.972 -0.5181 -0.0148 -0.1391
  186SLPC   H2X21397   4.430   7.017   6.906  2.1275  1.4483 -0.4529
  186SLPC   H2Y21398   4.285   7.079   7.004 -0.7009  2.1150  0.6964
  186SLPC   C2321399   4.849   7.474   6.815  0.4169 -0.1719  0.4572
  186SLPC   H3R21400   4.811   7.575   6.786 -0.2209 -0.7362 -0.7286
  186SLPC   H3S21401   4.958   7.469   6.794  0.0361  0.3159 -1.9518
  186SLPC   C2421402   4.807   7.448   6.960 -0.2263 -0.5262 -0.2295
  186SLPC   H4R21403   4.702   7.413   6.953 -0.9035  1.6090 -2.2188
  186SLPC   H4S21404   4.799   7.544   7.017 -0.3244 -1.5262  1.5114
  186SLPC   C2521405   4.899   7.356   7.038 -0.4761 -0.4955  0.6157
  186SLPC   H5R21406   4.988   7.417   7.063  0.4109 -0.8561 -1.4720
  186SLPC   H5S21407   4.937   7.280   6.966 -1.1567 -1.1866  0.9667
  186SLPC   C2621408   4.835   7.293   7.157 -0.2176  0.8189 -0.3573
  186SLPC   H6R21409   4.918   7.237   7.204  1.6938  2.0214 -2.1092
  186SLPC   H6S21410   4.757   7.226   7.114 -0.6163  1.3193 -0.4279
  186SLPC   C2721411   4.777   7.388   7.264 -0.2309  0.4273  0.4804
  186SLPC   H7R21412   4.694   7.443   7.214  1.7252  1.8996 -1.3266
  186SLPC   H7S21413   4.849   7.466   7.298 -2.3390  2.7550 -0.0787
  186SLPC   C2821414   4.730   7.318   7.397  0.4556 -1.0198  0.4284
  186SLPC   H8R21415   4.663   7.235   7.364  0.0288 -0.4300 -0.2263
  186SLPC   H8S21416   4.659   7.388   7.446 -0.9039 -1.4300 -0.8567
  186SLPC   C2921417   4.848   7.279   7.485  0.1433  0.4456 -0.1805
  186SLPC   H9R21418   4.936   7.252   7.425  0.3217  1.5741 -0.4526
  186SLPC  C21021419   4.853   7.279   7.615 -0.3261  0.8242 -0.7343
  186SLPC  H10R21420   4.951   7.253   7.658 -0.4478 -0.0014 -0.9577
  186SLPC  C21121421   4.742   7.312   7.715 -0.7308 -0.2710 -0.1230
  186SLPC  H11R21422   4.694   7.216   7.740 -0.4728 -0.3831 -0.0569
  186SLPC  H11S21423   4.677   7.378   7.653 -0.8200 -0.4717 -0.2435
  186SLPC  C21221424   4.785   7.390   7.838  0.6853 -0.1753 -0.0671
  186SLPC  H12R21425   4.840   7.483   7.816 -0.5211  0.1075 -2.1242
  186SLPC  C21321426   4.774   7.353   7.967  0.1108  0.3122 -0.1595
  186SLPC  H13R21427   4.838   7.410   8.037 -1.1227  0.3527  0.9788
  186SLPC  C21421428   4.719   7.224   8.021  0.4748 -0.1905 -0.2423
  186SLPC  H14R21429   4.805   7.163   8.056 -0.5625 -1.9384 -0.6066
  186SLPC  H14S21430   4.666   7.159   7.948  1.7273 -6.1933  3.4702
  186SLPC  C21521431   4.633   7.249   8.154 -1.0840  0.3607  0.6171
  186SLPC  H15R21432   4.672   7.326   8.224  0.2276  0.2388  0.0568
  186SLPC  H15S21433   4.630   7.149   8.203 -0.1712 -0.0089 -0.0617
  186SLPC  C21621434   4.489   7.287   8.113  0.2003 -0.3869 -0.6581
  186SLPC  H16R21435   4.460   7.239   8.017  0.0773  1.1475 -1.4132
  186SLPC  H16S21436   4.490   7.394   8.086  0.7436  0.0923  1.0856
  186SLPC  C21721437   4.387   7.253   8.220 -0.5576  0.0327 -0.2899
  186SLPC  H17R21438   4.401   7.307   8.316  1.2483 -1.8489  0.5847
  186SLPC  H17S21439   4.416   7.149   8.247  0.7837  0.2775 -0.7204
  186SLPC  C21821440   4.243   7.252   8.181  0.1253  0.0964  0.2223
  186SLPC  H18R21441   4.215   7.335   8.111  1.0708 -0.8196 -1.3006
  186SLPC  H18S21442   4.179   7.254   8.272  1.7430 -0.4061  1.4032
  186SLPC  H18T21443   4.213   7.172   8.110  1.7185  0.1497 -0.5610
  186SLPC   C3321444   4.477   7.111   7.105 -0.1631  0.0980 -0.7631
  186SLPC   H3X21445   4.444   7.194   7.171  1.0492 -0.6783  0.8959
  186SLPC   H3Y21446   4.586   7.130   7.089  0.3414 -0.8414  1.2316
  186SLPC   C3421447   4.457   6.981   7.187 -0.6008  0.5160 -0.8729
  186SLPC   H4X21448   4.454   6.886   7.130  0.1980 -0.1219  0.1146
  186SLPC   H4Y21449   4.354   6.982   7.230  0.1245  2.2456  1.0087
  186SLPC   C3521450   4.564   6.962   7.298 -0.1371  0.1117 -0.2893
  186SLPC   H5X21451   4.529   7.026   7.381  1.7509  0.0094  0.6455
  186SLPC   H5Y21452   4.663   6.997   7.261  0.1053  2.1496  2.0577
  186SLPC   C3621453   4.581   6.816   7.352  0.3355 -0.5185  0.6133
  186SLPC   H6X21454   4.649   6.761   7.284 -1.8874 -2.4632 -0.1648
  186SLPC   H6Y21455   4.485   6.761   7.339  1.2011 -1.3488 -3.7023
  186SLPC   C3721456   4.625   6.811   7.498 -0.7128 -0.0439 -1.3288
  186SLPC   H7X21457   4.618   6.710   7.542  0.4997  0.6636  0.5997
  186SLPC   H7Y21458   4.555   6.881   7.549  0.7655  0.4892  0.0511
  186SLPC   C3821459   4.762   6.869   7.519  0.1684 -0.9051  0.1629
  186SLPC   H8X21460   4.757   6.978   7.497 -1.0109 -1.1442 -0.8423
  186SLPC   H8Y21461   4.834   6.819   7.451 -0.1995  0.0799 -0.9907
  186SLPC   C3921462   4.823   6.853   7.653  1.2090  0.3141  0.2134
  186SLPC   H9X21463   4.912   6.919   7.659 -0.1788  2.3012  0.0679
  186SLPC   H9Y21464   4.867   6.751   7.653 -1.3426 -0.8495 -0.1077
  186SLPC  C31021465   4.736   6.883   7.770  0.2234 -0.5541  0.1853
  186SLPC  H10X21466   4.644   6.821   7.765 -0.0633 -0.2841  1.5557
  186SLPC  H10Y21467   4.693   6.985   7.774  1.0210 -0.1587  4.9784
  186SLPC  C31121468   4.792   6.860   7.906 -0.2361  0.7305  0.3117
  186SLPC  H11X21469   4.731   6.908   7.985 -1.7684  2.7843 -1.9955
  186SLPC  H11Y21470   4.892   6.908   7.915  0.1668 -0.2540  1.4021
  186SLPC  C31221471   4.823   6.718   7.948 -0.2235 -0.2182 -0.7347
  186SLPC  H12X21472   4.885   6.677   7.865  0.1597  2.0054 -1.6248
  186SLPC  H12Y21473   4.729   6.659   7.955  0.3413 -0.9881  0.6091
  186SLPC  C31321474   4.905   6.713   8.081  0.0739 -0.5926  0.0388
  186SLPC  H13X21475   4.847   6.761   8.163  2.7712 -0.6330  2.0894
  186SLPC  H13Y21476   5.001   6.764   8.061  0.2490  0.1193  2.4637
  186SLPC  C31421477   4.928   6.572   8.123  0.5021  0.4213  0.2273
  186SLPC  H14X21478   4.995   6.527   8.047  0.2474  0.3358  0.0496
  186SLPC  H14Y21479   4.841   6.504   8.140 -0.2710  0.2355 -3.6700
  186SLPC  C31521480   5.007   6.564   8.258  0.0247  0.9009  0.4918
  186SLPC  H15X21481   5.101   6.624   8.250  1.3251 -1.2881 -2.5843
  186SLPC  H15Y21482   5.041   6.459   8.265  2.9051  1.7866  1.2955
  186SLPC  C31621483   4.930   6.611   8.378 -0.2547 -0.5227  0.2138
  186SLPC  H16X21484   4.879   6.523   8.423  1.4714 -0.9076  1.5306
  186SLPC  H16Y21485   4.861   6.693   8.349  2.6307  3.2737  3.0979
  186SLPC  C31721486   5.033   6.665   8.482 -0.2770  0.7619  0.2040
  186SLPC  H17X21487   4.966   6.724   8.549 -2.9046 -0.4496 -1.2445
  186SLPC  H17Y21488   5.098   6.735   8.425  0.3010 -0.2257 -0.3577
  186SLPC  C31821489   5.117   6.550   8.544 -0.6742 -0.6303  0.4083
  186SLPC  H18X21490   5.153   6.483   8.463 -0.9569  1.3824 -1.4832
  186SLPC  H18Y21491   5.056   6.488   8.613  0.6644 -2.5921 -0.0839
  186SLPC  H18Z21492   5.190   6.591   8.618 -2.6549  2.0987  1.0152
  187SLPC     N21493   3.318   5.970   6.009 -0.7120 -0.1842 -0.4232
  187SLPC   C1321494   3.390   6.039   5.897  0.2332 -0.1452  0.9745
  187SLPC  H13A21495   3.417   6.139   5.927 -1.6393  0.8196 -0.3947
  187SLPC  H13B21496   3.479   5.984   5.868  0.1751 -0.2989  1.0831
  187SLPC  H13C21497   3.324   6.041   5.813 -0.6616 -1.9529  1.5750
  187SLPC   C1421498   3.271   5.840   5.958  0.1050  0.1485 -0.3216
  187SLPC  H14A21499   3.227   5.781   6.036 -0.4094 -0.2610 -0.9195
  187SLPC  H14B21500   3.198   5.856   5.881 -0.1187 -1.7663 -0.5421
  187SLPC  H14C21501   3.352   5.794   5.904  1.0493 -0.8535  1.8077
  187SLPC   C1521502   3.201   6.046   6.051 -0.1081  0.6693  0.2992
  187SLPC  H15A21503   3.140   6.060   5.963  0.4363  1.9808  0.1116
  187SLPC  H15B21504   3.151   6.003   6.137 -1.1023  1.2930  0.0446
  187SLPC  H15C21505   3.229   6.146   6.083  2.9340  0.4571 -1.3715
  187SLPC   C1221506   3.421   5.949   6.130  0.8205 -0.0240  0.1194
  187SLPC  H12A21507   3.372   5.899   6.212 -2.2733  2.3631 -0.1095
  187SLPC  H12B21508   3.447   6.043   6.176  2.0274 -0.1224 -0.3120
  187SLPC   C1121509   3.550   5.867   6.107  0.1753 -0.3330 -0.0687
  187SLPC  H11A21510   3.618   5.900   6.189  1.5017 -0.9980 -0.8768
  187SLPC  H11B21511   3.608   5.899   6.018  0.1263  1.2647  0.4242
  187SLPC     P21512   3.477   5.640   6.211 -0.0210  0.3846 -0.4699
  187SLPC   O1321513   3.341   5.588   6.192 -0.2814 -0.7911 -0.5380
  187SLPC   O1421514   3.578   5.534   6.220 -0.1503  0.2672 -0.5177
  187SLPC   O1221515   3.527   5.732   6.092  0.8156 -0.6437  0.4680
  187SLPC   O1121516   3.472   5.730   6.342 -0.3014  0.0294  0.2943
  187SLPC    C121517   3.484   5.666   6.465 -0.5123  0.5687  0.0321
  187SLPC    HA21518   3.409   5.584   6.472  0.8476 -0.6749  0.5801
  187SLPC    HB21519   3.583   5.616   6.467  0.3758  1.9974 -2.5643
  187SLPC    C221520   3.462   5.765   6.581  0.1224 -0.2354  0.2837
  187SLPC    HS21521   3.526   5.855   6.570  3.1188 -2.3454 -1.0552
  187SLPC   O2121522   3.476   5.693   6.706  0.1379  0.0928  0.6166
  187SLPC   C2121523   3.605   5.675   6.747  0.7046 -0.1746 -0.1992
  187SLPC   O2221524   3.699   5.698   6.676  0.0604  0.2999 -0.2236
  187SLPC   C2221525   3.603   5.611   6.888  0.6638  0.2588 -0.3264
  187SLPC   H2R21526   3.645   5.688   6.956 -1.0848  0.0887  1.0075
  187SLPC   H2S21527   3.497   5.585   6.909  1.3623 -1.9520  0.8093
  187SLPC    C321528   3.314   5.809   6.583 -0.3909 -1.5151 -0.3822
  187SLPC    HX21529   3.244   5.725   6.561 -1.2468 -0.9581  0.1561
  187SLPC    HY21530   3.312   5.870   6.491  2.3149 -0.2651  0.3047
  187SLPC   O3121531   3.278   5.878   6.704  0.0887 -0.5978 -0.4913
  187SLPC   C3121532   3.295   6.020   6.702 -0.6818  0.4880 -0.4261
  187SLPC   O3221533   3.350   6.079   6.613  0.4338 -0.6480 -0.3038
  187SLPC   C3221534   3.224   6.091   6.819 -0.0500 -0.0418 -0.1372
  187SLPC   H2X21535   3.141   6.154   6.780  0.9689  1.8302  0.5901
  187SLPC   H2Y21536   3.292   6.164   6.868  3.4170 -1.6730 -2.1474
  187SLPC   C2321537   3.698   5.489   6.885  0.2501 -0.7431 -0.3568
  187SLPC   H3R21538   3.801   5.522   6.861  0.7713 -2.1090 -0.1096
  187SLPC   H3S21539   3.659   5.425   6.802 -0.8154  0.1790 -0.5949
  187SLPC   C2421540   3.688   5.419   7.017 -0.1964  0.2471  0.0285
  187SLPC   H4R21541   3.711   5.311   7.005 -1.9582 -0.2716  0.9156
  187SLPC   H4S21542   3.587   5.424   7.064  0.1580  1.4049  0.7028
  187SLPC   C2521543   3.778   5.493   7.123 -0.3016 -0.7521  0.0906
  187SLPC   H5R21544   3.750   5.600   7.131  1.0873 -0.3901  0.5095
  187SLPC   H5S21545   3.883   5.492   7.087 -1.0396 -0.1031 -2.2516
  187SLPC   C2621546   3.778   5.419   7.257  0.0687  0.1370  0.4682
  187SLPC   H6R21547   3.793   5.310   7.245  0.6841  0.0263  2.0634
  187SLPC   H6S21548   3.672   5.434   7.286 -0.2954  0.8373 -1.1124
  187SLPC   C2721549   3.870   5.482   7.360  0.1300 -0.7043  0.4386
  187SLPC   H7R21550   3.816   5.577   7.378  0.2237 -0.0953 -2.1345
  187SLPC   H7S21551   3.968   5.494   7.309 -0.8029 -0.5764 -1.3880
  187SLPC   C2821552   3.901   5.398   7.487  1.8142 -0.2345  0.3402
  187SLPC   H8R21553   4.002   5.421   7.528  1.6807 -1.3096  1.3538
  187SLPC   H8S21554   3.918   5.296   7.446 -1.7201 -0.8850  0.1774
  187SLPC   C2921555   3.798   5.385   7.593  0.6636 -0.6840 -0.2003
  187SLPC   H9R21556   3.703   5.350   7.549 -0.0474  1.0734 -0.1476
  187SLPC  C21021557   3.805   5.418   7.724 -0.6854  0.0646  0.1248
  187SLPC  H10R21558   3.715   5.410   7.786  1.5112  1.5258  3.8066
  187SLPC  C21121559   3.923   5.482   7.788  0.1143 -0.4336  0.3798
  187SLPC  H11R21560   3.875   5.570   7.836 -2.3264 -1.1339 -0.6428
  187SLPC  H11S21561   3.996   5.530   7.719 -0.0927 -1.0710 -0.2925
  187SLPC  C21221562   4.001   5.385   7.872  0.2046 -0.4245 -0.0441
  187SLPC  H12R21563   4.054   5.305   7.819 -1.8551 -1.3315 -0.8802
  187SLPC  C21321564   4.008   5.394   8.003 -0.1322 -0.1842  0.3805
  187SLPC  H13R21565   4.071   5.326   8.062  0.6464 -1.9583 -2.2946
  187SLPC  C21421566   3.927   5.498   8.082 -0.2734 -0.3883 -0.1518
  187SLPC  H14R21567   3.820   5.507   8.053 -0.9881 -0.5290  2.2573
  187SLPC  H14S21568   3.976   5.595   8.059 -0.5886 -0.4857 -1.3209
  187SLPC  C21521569   3.950   5.461   8.227  0.7625 -0.0783 -0.3442
  187SLPC  H15R21570   3.918   5.549   8.288 -1.4346 -0.8382 -0.3226
  187SLPC  H15S21571   4.059   5.447   8.241  0.5947  0.2787  1.6033
  187SLPC  C21621572   3.889   5.329   8.273  0.5645 -0.2434 -0.3379
  187SLPC  H16R21573   3.920   5.247   8.206  1.3373 -1.1607  1.1048
  187SLPC  H16S21574   3.778   5.324   8.270  0.4925  0.9591 -0.2641
  187SLPC  C21721575   3.923   5.298   8.423 -0.2204 -0.3326 -0.0460
  187SLPC  H17R21576   4.033   5.290   8.434 -0.4206 -0.2700  2.3064
  187SLPC  H17S21577   3.873   5.201   8.446  1.3191 -0.9273  0.9906
  187SLPC  C21821578   3.855   5.402   8.519  0.3623 -0.0470  0.0380
  187SLPC  H18R21579   3.909   5.497   8.503 -0.8332  0.3980 -1.7019
  187SLPC  H18S21580   3.850   5.379   8.627 -0.8870 -1.6285 -0.3095
  187SLPC  H18T21581   3.751   5.430   8.492 -0.1382 -0.8847  1.0054
  187SLPC   C3321582   3.172   5.991   6.922  0.1797  0.6898 -0.2936
  187SLPC   H3X21583   3.251   5.920   6.955 -1.6484 -0.9901  0.6796
  187SLPC   H3Y21584   3.097   5.920   6.883  0.0790 -1.8787  3.9354
  187SLPC   C3421585   3.119   6.043   7.063  0.3210 -0.6545  0.0250
  187SLPC   H4X21586   3.193   6.118   7.099 -0.7793  1.0164 -1.0292
  187SLPC   H4Y21587   3.114   5.959   7.136  0.4028  0.7410  1.7062
  187SLPC   C3521588   2.982   6.110   7.047 -0.0436  0.5384  0.0586
  187SLPC   H5X21589   2.893   6.047   7.067  0.4998  0.2350  1.5828
  187SLPC   H5Y21590   2.979   6.168   6.952 -1.2641  0.2077 -0.1223
  187SLPC   C3621591   2.955   6.202   7.158 -0.3047  0.3482 -0.4285
  187SLPC   H6X21592   2.864   6.257   7.126 -0.8296  0.4618  1.2045
  187SLPC   H6Y21593   3.043   6.269   7.168  2.0846 -2.4450 -1.2622
  187SLPC   C3721594   2.923   6.127   7.289 -0.0486 -0.3098  0.0364
  187SLPC   H7X21595   2.816   6.098   7.289  0.1646 -1.2102  1.3330
  187SLPC   H7Y21596   2.989   6.037   7.296  0.7134  0.2940  0.9295
  187SLPC   C3821597   2.941   6.216   7.411  0.0762  0.1802 -0.8029
  187SLPC   H8X21598   2.879   6.308   7.411  1.2364  1.0203  1.0538
  187SLPC   H8Y21599   3.050   6.238   7.421  0.0275  0.2197 -0.3531
  187SLPC   C3921600   2.904   6.146   7.544 -0.2974  0.6765  0.5866
  187SLPC   H9X21601   2.810   6.088   7.529  0.4887 -0.5593  0.3395
  187SLPC   H9Y21602   2.868   6.226   7.611  3.0600  2.8265  0.0606
  187SLPC  C31021603   3.012   6.056   7.595  0.7473  1.1284  0.3448
  187SLPC  H10X21604   3.063   6.015   7.506  1.5244 -0.9655  1.6698
  187SLPC  H10Y21605   2.959   5.983   7.659 -1.5599  0.9650 -1.6111
  187SLPC  C31121606   3.118   6.131   7.677  0.2478  0.0221  0.2560
  187SLPC  H11X21607   3.060   6.198   7.744  0.6501 -0.4331  1.0728
  187SLPC  H11Y21608   3.174   6.188   7.599 -0.6656  0.7409  0.1103
  187SLPC  C31221609   3.212   6.048   7.760  0.3058  0.4645  0.5716
  187SLPC  H12X21610   3.247   5.968   7.690 -1.0455 -0.5136  0.9652
  187SLPC  H12Y21611   3.157   5.998   7.842  1.2013 -0.2120  0.7832
  187SLPC  C31321612   3.329   6.130   7.812 -0.1361  0.3415  0.7022
  187SLPC  H13X21613   3.381   6.167   7.721  2.6071 -1.9993  1.1507
  187SLPC  H13Y21614   3.399   6.069   7.875 -1.5087 -2.5139 -0.3543
  187SLPC  C31421615   3.275   6.252   7.898 -0.5292 -1.0672  0.4775
  187SLPC  H14X21616   3.197   6.217   7.968  0.3440 -0.7899  1.6318
  187SLPC  H14Y21617   3.238   6.325   7.823  1.1945  0.1173  0.7299
  187SLPC  C31521618   3.386   6.324   7.985 -0.1324  0.4910 -0.4237
  187SLPC  H15X21619   3.332   6.410   8.032 -2.6142 -0.2259 -1.7761
  187SLPC  H15Y21620   3.473   6.361   7.926 -0.1826  3.8082  1.3055
  187SLPC  C31621621   3.436   6.224   8.095 -0.0439  0.7813  0.2600
  187SLPC  H16X21622   3.481   6.138   8.039 -3.8473  0.5737 -2.8545
  187SLPC  H16Y21623   3.347   6.193   8.154  0.0854 -2.3772 -0.9762
  187SLPC  C31721624   3.550   6.280   8.180  0.0428  0.4722  0.6156
  187SLPC  H17X21625   3.528   6.373   8.237  0.2900  0.0169  1.4783
  187SLPC  H17Y21626   3.628   6.314   8.109 -1.6919  1.1921 -0.9972
  187SLPC  C31821627   3.606   6.180   8.278 -0.0005 -0.3756 -0.4765
  187SLPC  H18X21628   3.648   6.089   8.229  1.5410  0.1586 -0.2147
  187SLPC  H18Y21629   3.531   6.163   8.359 -0.0319  2.6650  0.2559
  187SLPC  H18Z21630   3.693   6.232   8.325  1.4760 -2.1096 -1.1562
  188SLPC     N21631   6.314   0.091   6.172 -0.3501  0.3572 -0.0090
  188SLPC   C1321632   6.387  -0.039   6.165  0.1943 -0.5872 -0.1398
  188SLPC  H13A21633   6.389  -0.087   6.262  1.0291 -0.9160 -0.3161
  188SLPC  H13B21634   6.338  -0.103   6.094  0.6657 -0.8382 -0.2453
  188SLPC  H13C21635   6.489  -0.037   6.129  0.7293 -0.9512  1.2602
  188SLPC   C1421636   6.311   0.148   6.032 -0.1401  0.4535  0.0118
  188SLPC  H14A21637   6.409   0.160   5.990 -0.4795 -2.2047 -1.7729
  188SLPC  H14B21638   6.260   0.082   5.963  0.2049 -0.0651  0.2423
  188SLPC  H14C21639   6.260   0.243   6.028 -0.0578  0.4756 -0.5428
  188SLPC   C1521640   6.401   0.192   6.248  0.0503  0.2937 -0.8767
  188SLPC  H15A21641   6.427   0.149   6.344  0.0624 -2.0721 -1.8657
  188SLPC  H15B21642   6.491   0.202   6.189  0.6726  0.5300  0.0930
  188SLPC  H15C21643   6.345   0.283   6.259  0.5925  0.7149 -1.5096
  188SLPC   C1221644   6.181   0.072   6.231 -0.0979  0.2759  0.3140
  188SLPC  H12A21645   6.153   0.165   6.278  0.5969  0.7504 -0.2137
  188SLPC  H12B21646   6.186   0.003   6.315 -3.8865  1.9977  2.2358
  188SLPC   C1121647   6.068   0.010   6.144  0.3877 -0.0750  0.6028
  188SLPC  H11A21648   6.040   0.081   6.064  0.6451 -2.0979 -1.3895
  188SLPC  H11B21649   5.977   0.006   6.209  1.6659 -1.0756  2.4388
  188SLPC     P21650   6.075  -0.258   6.174  0.2946  0.2459  0.0704
  188SLPC   O1321651   5.939  -0.285   6.222 -0.3174 -0.0767 -0.9681
  188SLPC   O1421652   6.136  -0.364   6.093  0.3509  0.4265  0.5061
  188SLPC   O1221653   6.096  -0.122   6.088  0.7267 -0.1802 -0.1960
  188SLPC   O1121654   6.159  -0.237   6.302 -0.7060  0.0918 -0.6284
  188SLPC    C121655   6.241  -0.328   6.377  0.0230  0.7286  0.1347
  188SLPC    HA21656   6.279  -0.404   6.305 -1.2983 -1.1611  1.3254
  188SLPC    HB21657   6.334  -0.284   6.420  0.3350  1.6778 -1.4537
  188SLPC    C221658   6.164  -0.409   6.486  0.0730 -0.7057 -0.0933
  188SLPC    HS21659   6.091  -0.476   6.434  1.8441 -2.8184 -0.0187
  188SLPC   O2121660   6.105  -0.320   6.580 -0.3919 -0.5672 -0.6456
  188SLPC   C2121661   5.994  -0.366   6.630  0.0819 -0.2157 -0.0936
  188SLPC   O2221662   5.929  -0.459   6.586  0.5292  0.4763  0.2796
  188SLPC   C2221663   5.966  -0.286   6.757  0.9232  0.3679 -0.4818
  188SLPC   H2R21664   6.058  -0.284   6.819  0.4323  0.6578  0.2496
  188SLPC   H2S21665   5.932  -0.183   6.734 -3.4054 -0.1123  2.6212
  188SLPC    C321666   6.264  -0.503   6.569 -0.0490  0.1019 -0.4332
  188SLPC    HX21667   6.342  -0.438   6.613 -0.5574 -0.4215  1.3285
  188SLPC    HY21668   6.307  -0.579   6.500 -0.6861 -1.8179  1.1604
  188SLPC   O3121669   6.200  -0.577   6.676 -0.7189  0.2478  0.0870
  188SLPC   C3121670   6.283  -0.660   6.732  0.0866 -0.3252  0.0196
  188SLPC   O3221671   6.403  -0.659   6.714  0.3621 -0.2144  0.0114
  188SLPC   C3221672   6.211  -0.744   6.841  0.1919  0.8093 -0.1199
  188SLPC   H2X21673   6.272  -0.753   6.933  0.2472 -2.2960 -0.3369
  188SLPC   H2Y21674   6.214  -0.850   6.807 -1.8455  1.6526 -3.3694
  188SLPC   C2321675   5.842  -0.349   6.832 -0.6538 -0.9036 -0.6009
  188SLPC   H3R21676   5.836  -0.458   6.813 -0.5994 -0.9903 -0.1183
  188SLPC   H3S21677   5.753  -0.297   6.789 -1.5401 -0.8022  1.2811
  188SLPC   C2421678   5.855  -0.332   6.981  0.5496 -0.0139  0.9812
  188SLPC   H4R21679   5.864  -0.223   6.997  1.6518  0.6552 -3.0682
  188SLPC   H4S21680   5.945  -0.371   7.032  1.3598  1.3236  0.6076
  188SLPC   C2521681   5.732  -0.365   7.059 -0.7225 -0.1095 -0.3482
  188SLPC   H5R21682   5.699  -0.467   7.030 -1.1952  0.5538 -2.3650
  188SLPC   H5S21683   5.646  -0.302   7.024 -1.4585 -0.5859  0.5728
  188SLPC   C2621684   5.752  -0.358   7.215  0.2696  0.1332  0.0362
  188SLPC   H6R21685   5.777  -0.255   7.246 -1.5476  0.6952 -0.2125
  188SLPC   H6S21686   5.830  -0.435   7.232 -0.4847 -0.5791  0.3666
  188SLPC   C2721687   5.621  -0.403   7.287 -0.1846 -0.0977 -0.1030
  188SLPC   H7R21688   5.599  -0.499   7.235 -0.0484  0.4199 -1.1354
  188SLPC   H7S21689   5.539  -0.333   7.260 -0.0451 -0.2256 -0.8794
  188SLPC   C2821690   5.629  -0.419   7.440 -0.5348 -0.4615  0.6486
  188SLPC   H8R21691   5.700  -0.502   7.462  2.8558  2.1235  0.2068
  188SLPC   H8S21692   5.532  -0.439   7.489  1.8760 -2.4533  5.2726
  188SLPC   C2921693   5.680  -0.290   7.504  0.0172  0.1858 -0.4461
  188SLPC   H9R21694   5.664  -0.198   7.447 -0.1152  1.5130  1.6142
  188SLPC  C21021695   5.736  -0.283   7.624  0.3621  0.3070 -0.4517
  188SLPC  H10R21696   5.752  -0.184   7.670 -1.7095  0.6510 -0.4047
  188SLPC  C21121697   5.761  -0.397   7.717  0.2334  0.1084 -0.2095
  188SLPC  H11R21698   5.781  -0.478   7.644 -0.2704  0.8082 -1.1395
  188SLPC  H11S21699   5.666  -0.436   7.760  0.2405  0.1093 -0.1921
  188SLPC  C21221700   5.876  -0.391   7.803  0.5534 -0.2772 -0.2171
  188SLPC  H12R21701   5.974  -0.400   7.755  0.6254 -1.4773  0.1304
  188SLPC  C21321702   5.873  -0.378   7.934 -0.3008  0.5606  0.3294
  188SLPC  H13R21703   5.971  -0.375   7.984 -0.9567 -0.4237  1.7732
  188SLPC  C21421704   5.749  -0.363   8.022 -0.1843  0.4647 -0.4762
  188SLPC  H14R21705   5.662  -0.420   7.982 -0.5987 -0.9267  2.2299
  188SLPC  H14S21706   5.721  -0.256   8.038  0.7043  0.5633  0.5489
  188SLPC  C21521707   5.770  -0.422   8.161  0.0842  0.1250  0.0954
  188SLPC  H15R21708   5.691  -0.382   8.228  0.4275  1.9018 -0.4996
  188SLPC  H15S21709   5.859  -0.374   8.208  0.2274  0.8285 -0.8510
  188SLPC  C21621710   5.772  -0.577   8.180 -0.1641 -0.2852 -0.2376
  188SLPC  H16R21711   5.668  -0.609   8.159  0.1590 -2.8727  1.6299
  188SLPC  H16S21712   5.784  -0.583   8.290  1.8297 -0.7228 -0.4454
  188SLPC  C21721713   5.886  -0.658   8.127  0.0005  0.5842  0.4618
  188SLPC  H17R21714   5.980  -0.616   8.170 -0.4675  1.7754  0.3646
  188SLPC  H17S21715   5.892  -0.636   8.018  1.6406  2.0314  0.7945
  188SLPC  C21821716   5.872  -0.808   8.153  0.2676  0.5199  0.1188
  188SLPC  H18R21717   5.870  -0.826   8.263  0.0962  0.7733  0.1581
  188SLPC  H18S21718   5.953  -0.865   8.103  0.6498  1.6514 -0.5689
  188SLPC  H18T21719   5.775  -0.845   8.113  0.4364  0.2886 -0.0801
  188SLPC   C3321720   6.063  -0.712   6.877 -0.5598  0.1536  0.5781
  188SLPC   H3X21721   5.998  -0.749   6.795  2.0223  0.0185 -1.5640
  188SLPC   H3Y21722   6.057  -0.602   6.879  1.8125  0.3324  0.6253
  188SLPC   C3421723   6.014  -0.772   7.006 -0.0131  0.2297  0.0940
  188SLPC   H4X21724   6.064  -0.729   7.095  1.0886 -2.2851  0.7970
  188SLPC   H4Y21725   6.037  -0.881   7.012  1.9499  0.6352  0.5734
  188SLPC   C3521726   5.864  -0.765   7.019  0.0814  0.2210 -0.8644
  188SLPC   H5X21727   5.817  -0.789   6.922 -0.2396  0.0743 -0.6751
  188SLPC   H5Y21728   5.824  -0.665   7.046  0.9588  0.6682 -1.1901
  188SLPC   C3621729   5.799  -0.854   7.136 -0.2892  0.1022 -0.6727
  188SLPC   H6X21730   5.834  -0.954   7.102  0.1523 -0.4307  1.2122
  188SLPC   H6Y21731   5.688  -0.845   7.132 -0.2500  0.3794 -1.1852
  188SLPC   C3721732   5.845  -0.810   7.276  0.3375 -0.2255 -0.5990
  188SLPC   H7X21733   5.808  -0.707   7.294  1.6109 -0.1433  1.9634
  188SLPC   H7Y21734   5.955  -0.820   7.269  0.3444 -0.8187  0.1348
  188SLPC   C3821735   5.797  -0.905   7.397 -0.3884 -0.2855 -0.0689
  188SLPC   H8X21736   5.851  -1.002   7.395 -0.9080 -0.5644 -1.1431
  188SLPC   H8Y21737   5.692  -0.934   7.378 -0.3124 -0.7402  0.1953
  188SLPC   C3921738   5.808  -0.855   7.542  0.0708  0.3173  0.9531
  188SLPC   H9X21739   5.743  -0.766   7.554 -0.1068  0.9487 -3.2782
  188SLPC   H9Y21740   5.913  -0.828   7.570  0.4433 -0.0585 -0.0285
  188SLPC  C31021741   5.755  -0.965   7.639 -0.3592 -0.8616  0.1777
  188SLPC  H10X21742   5.827  -1.049   7.634  1.0158  0.3449 -1.2917
  188SLPC  H10Y21743   5.658  -0.996   7.595  0.2517 -1.7361 -0.5894
  188SLPC  C31121744   5.731  -0.910   7.779 -0.6689 -0.0030  0.8013
  188SLPC  H11X21745   5.666  -0.821   7.768  0.3951  0.6063 -0.9760
  188SLPC  H11Y21746   5.832  -0.876   7.810  1.3613 -1.8029 -3.0299
  188SLPC  C31221747   5.672  -1.013   7.873 -0.3709  0.7288 -0.4601
  188SLPC  H12X21748   5.581  -1.057   7.827  0.3011 -2.0072  0.6044
  188SLPC  H12Y21749   5.643  -0.963   7.968 -0.8667 -0.3284 -0.0357
  188SLPC  C31321750   5.776  -1.131   7.898  1.8316 -0.1278  0.0670
  188SLPC  H13X21751   5.855  -1.086   7.963  0.2672 -0.2411  2.1794
  188SLPC  H13Y21752   5.811  -1.171   7.801 -3.0651 -1.5140 -1.3752
  188SLPC  C31421753   5.696  -1.241   7.959  0.5029  0.7570  0.0031
  188SLPC  H14X21754   5.614  -1.272   7.891  1.2769  1.4304 -1.2734
  188SLPC  H14Y21755   5.655  -1.201   8.054  3.3119 -1.8402  2.5416
  188SLPC  C31521756   5.789  -1.360   8.004 -0.6685 -0.0643 -0.4155
  188SLPC  H15X21757   5.867  -1.311   8.067  0.3326 -0.8085 -1.0356
  188SLPC  H15Y21758   5.827  -1.406   7.910  0.6684 -0.8148  0.4492
  188SLPC  C31621759   5.717  -1.469   8.084  0.3583 -0.3457  0.0449
  188SLPC  H16X21760   5.652  -1.525   8.013 -0.7968  1.3259 -0.2792
  188SLPC  H16Y21761   5.647  -1.426   8.159  0.2545 -0.2772 -0.0909
  188SLPC  C31721762   5.806  -1.568   8.155  0.4370  0.1733 -0.4289
  188SLPC  H17X21763   5.882  -1.614   8.089  0.2887 -0.4889 -0.1427
  188SLPC  H17Y21764   5.744  -1.640   8.212  0.8413  1.2808  1.4944
  188SLPC  C31821765   5.886  -1.498   8.262 -0.2477  0.0073 -0.8726
  188SLPC  H18X21766   5.963  -1.562   8.310  1.8127  1.7959 -1.6489
  188SLPC  H18Y21767   5.827  -1.458   8.347  0.5237 -1.9641  0.6813
  188SLPC  H18Z21768   5.948  -1.419   8.214  1.1052  0.7153  1.8658
  189SLPC     N21769   0.823   2.791   6.156 -0.3380  0.3053  0.0610
  189SLPC   C1321770   0.960   2.730   6.121  0.4273  0.1254  0.1579
  189SLPC  H13A21771   0.990   2.744   6.018 -0.1657  0.0005 -0.0329
  189SLPC  H13B21772   1.033   2.768   6.191 -0.9914  0.2261  1.6432
  189SLPC  H13C21773   0.960   2.622   6.130 -1.2551  0.0557 -0.4495
  189SLPC   C1421774   0.790   2.756   6.295  0.6098  0.2033  0.1317
  189SLPC  H14A21775   0.797   2.648   6.298 -0.9570  0.0744  2.7043
  189SLPC  H14B21776   0.866   2.795   6.362 -0.5582  1.1846  0.9206
  189SLPC  H14C21777   0.696   2.798   6.327  0.3955 -0.7998  0.8826
  189SLPC   C1521778   0.727   2.737   6.060 -0.3578 -0.6370  0.0668
  189SLPC  H15A21779   0.770   2.742   5.960 -0.5466 -0.4928 -0.0072
  189SLPC  H15B21780   0.696   2.635   6.078 -0.5269 -0.5931  0.0245
  189SLPC  H15C21781   0.637   2.796   6.059  0.9940  1.5338 -0.4814
  189SLPC   C1221782   0.831   2.937   6.139  0.2791 -0.2662 -0.7145
  189SLPC  H12A21783   0.856   2.955   6.035 -0.2186 -0.7899 -0.9310
  189SLPC  H12B21784   0.914   2.975   6.197  0.6913 -0.2710 -1.2851
  189SLPC   C1121785   0.707   3.019   6.183  0.6911 -0.2948  0.3110
  189SLPC  H11A21786   0.743   3.106   6.241  0.4382 -0.1706  0.2827
  189SLPC  H11B21787   0.650   2.966   6.262  1.5462 -2.6437 -0.5327
  189SLPC     P21788   0.558   3.197   6.073  0.1985  0.1624 -0.0024
  189SLPC   O1321789   0.650   3.296   6.024 -0.7026 -0.1725 -0.1681
  189SLPC   O1421790   0.432   3.179   5.996 -0.2073  0.3928  0.1008
  189SLPC   O1221791   0.635   3.059   6.069  0.2394  0.5989 -0.5661
  189SLPC   O1121792   0.510   3.230   6.219 -0.1241 -0.0301 -0.0157
  189SLPC    C121793   0.499   3.355   6.277  0.7510 -0.5980 -0.1710
  189SLPC    HA21794   0.592   3.413   6.258  0.8275 -0.9225 -0.8051
  189SLPC    HB21795   0.411   3.417   6.249 -0.4388 -1.7445  0.9164
  189SLPC    C221796   0.473   3.345   6.431  0.4386 -0.3173  0.0514
  189SLPC    HS21797   0.375   3.297   6.454  0.7845  0.8085  4.8712
  189SLPC   O2121798   0.468   3.478   6.490  0.1799 -0.1887 -0.1411
  189SLPC   C2121799   0.345   3.540   6.478 -0.4316  1.0994  0.0561
  189SLPC   O2221800   0.249   3.487   6.421 -0.0743 -0.5980 -0.1160
  189SLPC   C2221801   0.354   3.686   6.525 -0.6484  0.0760 -0.0219
  189SLPC   H2R21802   0.442   3.692   6.592 -0.4595 -1.4126 -0.1015
  189SLPC   H2S21803   0.370   3.742   6.431 -0.8490 -0.1806 -0.2111
  189SLPC    C321804   0.589   3.257   6.502  0.3042 -0.1147  0.3339
  189SLPC    HX21805   0.684   3.312   6.488  0.3334 -0.2074  0.1762
  189SLPC    HY21806   0.596   3.169   6.435  2.5399 -0.3766  0.8421
  189SLPC   O3121807   0.562   3.218   6.640 -0.4929  0.5251  0.6153
  189SLPC   C3121808   0.623   3.108   6.681 -0.0606 -0.1460 -0.8699
  189SLPC   O3221809   0.698   3.038   6.619 -0.7725 -0.8094  0.3107
  189SLPC   C3221810   0.581   3.087   6.831  0.2932  0.0512 -0.8626
  189SLPC   H2X21811   0.479   3.127   6.847 -0.9579 -2.9164 -0.7297
  189SLPC   H2Y21812   0.652   3.149   6.889 -1.5734  4.0113 -2.4669
  189SLPC   C2321813   0.221   3.732   6.581  0.4016  0.2424 -0.4028
  189SLPC   H3R21814   0.140   3.715   6.507  3.1208 -0.5044 -3.4388
  189SLPC   H3S21815   0.230   3.842   6.592  0.6264  0.2397 -0.5410
  189SLPC   C2421816   0.189   3.685   6.720 -0.0062  0.7424 -0.3740
  189SLPC   H4R21817   0.269   3.730   6.783  1.5192 -0.5404 -1.3291
  189SLPC   H4S21818   0.194   3.574   6.729  1.0895  0.7630 -0.5502
  189SLPC   C2521819   0.050   3.727   6.775  0.3437  0.1465  0.0817
  189SLPC   H5R21820  -0.036   3.708   6.708  0.7689  2.3792 -1.1996
  189SLPC   H5S21821   0.052   3.837   6.790  1.6126  0.2475 -0.7263
  189SLPC   C2621822   0.028   3.665   6.916 -0.0508  0.2227  0.3937
  189SLPC   H6R21823   0.097   3.579   6.930 -1.0341 -0.6082  0.3181
  189SLPC   H6S21824  -0.076   3.626   6.922  0.3558 -0.9758 -0.0430
  189SLPC   C2721825   0.044   3.761   7.035  1.0273  0.0192  0.3568
  189SLPC   H7R21826  -0.058   3.802   7.047  1.2609  0.8779 -0.4827
  189SLPC   H7S21827   0.111   3.844   7.003 -2.2218  2.7142  0.0452
  189SLPC   C2821828   0.094   3.697   7.166 -0.1072 -0.1441  0.6508
  189SLPC   H8R21829   0.102   3.782   7.237 -0.3061  0.9329 -0.5857
  189SLPC   H8S21830   0.199   3.661   7.153  0.0797  0.5187  0.2558
  189SLPC   C2921831   0.001   3.587   7.204  0.6269 -0.4549  0.5794
  189SLPC   H9R21832  -0.081   3.553   7.140  0.7684 -0.3756  0.3579
  189SLPC  C21021833   0.004   3.523   7.323  0.2385 -0.3556  0.4668
  189SLPC  H10R21834  -0.073   3.446   7.337  1.5760 -1.5614  1.4619
  189SLPC  C21121835   0.098   3.540   7.445  0.2957  0.5576  0.4650
  189SLPC  H11R21836   0.072   3.638   7.490 -3.8807 -0.1621  0.0246
  189SLPC  H11S21837   0.202   3.546   7.405  0.6853 -1.0871  1.1376
  189SLPC  C21221838   0.086   3.426   7.543  0.3415 -0.9538 -0.1927
  189SLPC  H12R21839   0.136   3.331   7.519  2.7409  0.0264  0.5604
  189SLPC  C21321840   0.013   3.427   7.662  0.2771  0.6531  0.1297
  189SLPC  H13R21841   0.019   3.340   7.729 -1.0017 -0.2860 -0.9351
  189SLPC  C21421842  -0.059   3.546   7.717  0.6798  0.0126  0.3812
  189SLPC  H14R21843  -0.131   3.502   7.790 -1.6469  2.4415 -0.3235
  189SLPC  H14S21844  -0.111   3.594   7.632  0.0197  0.2882  0.9274
  189SLPC  C21521845   0.044   3.637   7.789 -0.2937 -0.3240 -0.1641
  189SLPC  H15R21846   0.127   3.667   7.720 -1.4665 -2.7949 -2.8361
  189SLPC  H15S21847   0.091   3.577   7.870  1.6808  0.5971 -0.5636
  189SLPC  C21621848  -0.010   3.774   7.837  0.0909 -0.9001  0.1634
  189SLPC  H16R21849  -0.020   3.841   7.749 -1.0670 -0.1770  0.8193
  189SLPC  H16S21850   0.066   3.823   7.902  0.2027 -0.4522 -0.2980
  189SLPC  C21721851  -0.134   3.786   7.925 -0.0041 -0.0344 -0.3908
  189SLPC  H17R21852  -0.230   3.783   7.868  0.7733  2.8109 -2.0466
  189SLPC  H17S21853  -0.131   3.886   7.972  1.1554 -0.2726  0.0586
  189SLPC  C21821854  -0.137   3.688   8.045 -0.1651  0.0229  0.4454
  189SLPC  H18R21855  -0.228   3.695   8.108 -1.3077 -1.5573 -0.9580
  189SLPC  H18S21856  -0.047   3.684   8.110 -0.3861 -1.1813  0.6885
  189SLPC  H18T21857  -0.134   3.584   8.007 -0.5672  0.6359 -1.3651
  189SLPC   C3321858   0.583   2.935   6.871 -0.0359  0.0575  0.3744
  189SLPC   H3X21859   0.685   2.895   6.851  0.8936  2.9647 -1.2356
  189SLPC   H3Y21860   0.511   2.868   6.820  1.3513 -1.6310  0.5088
  189SLPC   C3421861   0.557   2.901   7.019 -0.0503 -0.0641 -0.0742
  189SLPC   H4X21862   0.448   2.903   7.041  0.0207 -0.5615  0.3247
  189SLPC   H4Y21863   0.603   2.986   7.075 -1.7874 -1.1045  3.2058
  189SLPC   C3521864   0.625   2.782   7.082 -0.3109 -0.3853  0.2980
  189SLPC   H5X21865   0.725   2.770   7.035 -1.0109 -2.8254 -0.7477
  189SLPC   H5Y21866   0.569   2.693   7.046  2.6046 -2.3079  0.1480
  189SLPC   C3621867   0.624   2.778   7.236 -1.0145 -0.3700  0.7568
  189SLPC   H6X21868   0.519   2.780   7.273 -0.6894 -1.7765  1.8398
  189SLPC   H6Y21869   0.678   2.861   7.287 -2.2533  0.1135  1.3203
  189SLPC   C3721870   0.682   2.655   7.308 -0.4792  0.5370  0.1081
  189SLPC   H7X21871   0.793   2.657   7.299 -0.3744 -0.9343  0.7685
  189SLPC   H7Y21872   0.646   2.558   7.270  0.8222 -0.6983  1.8536
  189SLPC   C3821873   0.652   2.662   7.455  0.1268  0.4565  0.2269
  189SLPC   H8X21874   0.688   2.564   7.493  0.5903  1.4551  2.5516
  189SLPC   H8Y21875   0.544   2.651   7.477  0.2848  1.1406  1.4573
  189SLPC   C3921876   0.734   2.747   7.548  0.2440 -0.0751 -0.0754
  189SLPC   H9X21877   0.733   2.856   7.527 -2.3953  0.0399  0.2599
  189SLPC   H9Y21878   0.837   2.707   7.553 -0.4630 -1.8846  3.1297
  189SLPC  C31021879   0.689   2.732   7.694  0.2331  0.1025  0.2798
  189SLPC  H10X21880   0.725   2.630   7.720  1.1295  0.4509  0.4384
  189SLPC  H10Y21881   0.580   2.754   7.701 -0.0284 -0.9915 -0.2315
  189SLPC  C31121882   0.759   2.830   7.787  0.2217 -0.3450  0.3295
  189SLPC  H11X21883   0.709   2.820   7.886 -0.4312  1.3033  0.1925
  189SLPC  H11Y21884   0.743   2.933   7.748  0.6293 -0.6227 -0.5978
  189SLPC  C31221885   0.904   2.794   7.815  0.2291 -0.2449 -0.4648
  189SLPC  H12X21886   0.962   2.834   7.729 -1.1531 -1.3748 -1.9860
  189SLPC  H12Y21887   0.904   2.683   7.817 -1.6982 -0.2760 -0.5174
  189SLPC  C31321888   0.955   2.854   7.949  0.1716 -0.6098 -0.0116
  189SLPC  H13X21889   0.928   2.800   8.042 -0.5617 -0.3119 -0.0447
  189SLPC  H13Y21890   0.916   2.957   7.966  2.0868 -0.0625  1.4901
  189SLPC  C31421891   1.115   2.867   7.944  0.0554  0.4229 -0.3730
  189SLPC  H14X21892   1.161   2.916   7.856 -2.7635  0.4762 -1.9395
  189SLPC  H14Y21893   1.141   2.759   7.939  0.6234  0.4988  0.6314
  189SLPC  C31521894   1.176   2.937   8.061  0.3287 -0.1369  0.2284
  189SLPC  H15X21895   1.160   3.047   8.067  2.1342  0.1765 -0.0642
  189SLPC  H15Y21896   1.287   2.924   8.060  0.0998 -2.2974 -0.2941
  189SLPC  C31621897   1.154   2.881   8.204  0.1480  0.0249 -0.0218
  189SLPC  H16X21898   1.160   2.772   8.188 -0.7391 -0.2542  1.3401
  189SLPC  H16Y21899   1.055   2.912   8.243  0.7027  0.8439  0.8017
  189SLPC  C31721900   1.267   2.909   8.300  0.8449  0.1175 -0.2996
  189SLPC  H17X21901   1.254   3.017   8.319 -1.6626 -0.0263 -0.7302
  189SLPC  H17Y21902   1.369   2.885   8.263  1.1333  0.1822  0.4370
  189SLPC  C31821903   1.265   2.828   8.431  0.3432 -0.3793 -0.5688
  189SLPC  H18X21904   1.309   2.730   8.401  0.2852 -0.7932  0.6406
  189SLPC  H18Y21905   1.157   2.812   8.453  0.3795  0.2221  0.0797
  189SLPC  H18Z21906   1.315   2.880   8.515 -2.9600  1.3419  0.4898
  190SLPC     N21907   0.591   1.875   6.519  0.0230  0.4465 -0.5309
  190SLPC   C1321908   0.714   1.826   6.443  0.1983 -0.2591  0.8356
  190SLPC  H13A21909   0.723   1.883   6.351  2.1443 -2.3243 -0.3517
  190SLPC  H13B21910   0.801   1.833   6.507  0.6770 -1.9557  0.4226
  190SLPC  H13C21911   0.701   1.726   6.404  1.2801  0.1022 -0.5593
  190SLPC   C1421912   0.585   1.778   6.636 -0.5088  1.0993  0.9377
  190SLPC  H14A21913   0.569   1.676   6.602  2.2687  0.1602  2.1880
  190SLPC  H14B21914   0.675   1.776   6.695 -1.0253  1.0438  1.7300
  190SLPC  H14C21915   0.502   1.804   6.700 -0.3980  1.5143  0.9149
  190SLPC   C1521916   0.477   1.861   6.421 -0.9019 -0.0811 -0.3376
  190SLPC  H15A21917   0.494   1.941   6.350  1.0717  1.9053  2.1420
  190SLPC  H15B21918   0.472   1.768   6.367  2.0726 -0.3756 -0.3089
  190SLPC  H15C21919   0.385   1.882   6.473 -1.6475 -0.4000 -1.5052
  190SLPC   C1221920   0.616   2.021   6.561 -0.4934 -0.4973 -0.2978
  190SLPC  H12A21921   0.687   2.016   6.643 -0.9027 -1.0930  0.0245
  190SLPC  H12B21922   0.518   2.044   6.598 -1.1844 -2.1733 -0.9627
  190SLPC   C1121923   0.656   2.129   6.453 -0.4556 -0.7794  0.0733
  190SLPC  H11A21924   0.650   2.229   6.501  2.5990 -0.2364 -0.4925
  190SLPC  H11B21925   0.581   2.118   6.372 -0.2888 -2.7582  0.1389
  190SLPC     P21926   0.911   2.169   6.487  0.2297  0.1702  0.8387
  190SLPC   O1321927   1.034   2.092   6.458  0.5970  0.5934  0.2684
  190SLPC   O1421928   0.911   2.310   6.450 -0.1965  0.3662 -0.4038
  190SLPC   O1221929   0.785   2.099   6.409 -0.2902 -0.2672 -0.5022
  190SLPC   O1121930   0.868   2.150   6.640 -0.3437  0.5760  0.7837
  190SLPC    C121931   0.901   2.254   6.726 -0.0331  0.1812 -0.1163
  190SLPC    HA21932   0.882   2.357   6.689  2.1396  1.3740  1.8433
  190SLPC    HB21933   0.842   2.256   6.820  1.1751  0.5690  0.6416
  190SLPC    C221934   1.050   2.249   6.778 -0.1863 -0.0601 -0.5205
  190SLPC    HS21935   1.113   2.259   6.687  0.7615  1.4086  0.2471
  190SLPC   O2121936   1.081   2.128   6.854 -0.5224 -0.3593 -0.5261
  190SLPC   C2121937   1.202   2.121   6.885  0.2994 -0.0658 -0.4680
  190SLPC   O2221938   1.295   2.193   6.841 -0.4050  0.0101 -0.0152
  190SLPC   C2221939   1.225   2.007   6.983  0.4142  0.0160  0.1064
  190SLPC   H2R21940   1.261   1.934   6.907 -0.9268 -0.8766  0.2986
  190SLPC   H2S21941   1.309   2.037   7.050 -0.9552  2.8497  0.6940
  190SLPC    C321942   1.063   2.378   6.865  0.3349 -0.0007  1.0925
  190SLPC    HX21943   1.025   2.468   6.812 -1.1971 -1.3967 -0.2709
  190SLPC    HY21944   1.173   2.388   6.878  0.4268  1.1402 -0.3880
  190SLPC   O3121945   0.992   2.361   6.993  0.2884  0.0628  0.4448
  190SLPC   C3121946   1.053   2.377   7.104  0.6894  0.0169  0.4982
  190SLPC   O3221947   1.174   2.391   7.118  0.2155 -0.0239 -0.3970
  190SLPC   C3221948   0.955   2.385   7.210 -0.2833  0.1612  0.0684
  190SLPC   H2X21949   0.877   2.460   7.183  0.4810  0.4790 -1.3467
  190SLPC   H2Y21950   1.012   2.441   7.287  4.6114 -0.8425 -2.4069
  190SLPC   C2321951   1.105   1.948   7.062  0.4285 -0.1076 -0.0932
  190SLPC   H3R21952   1.022   1.917   6.995  1.4355  1.2664 -2.0966
  190SLPC   H3S21953   1.072   2.024   7.137 -0.0886 -0.7737  0.3705
  190SLPC   C2421954   1.144   1.819   7.137 -0.3242 -0.1461 -0.3595
  190SLPC   H4R21955   1.226   1.844   7.208 -0.1238 -0.1462 -0.5904
  190SLPC   H4S21956   1.181   1.750   7.058  1.7353  2.2143 -1.6234
  190SLPC   C2521957   1.021   1.765   7.209  0.2352  0.7251 -0.6381
  190SLPC   H5R21958   0.935   1.750   7.140 -0.3879  2.0324 -0.1844
  190SLPC   H5S21959   0.971   1.844   7.269 -0.2836 -0.2161  0.1980
  190SLPC   C2621960   1.043   1.641   7.303 -0.4784 -0.3774 -0.5480
  190SLPC   H6R21961   0.952   1.625   7.364 -1.1115  0.7413 -1.1451
  190SLPC   H6S21962   1.122   1.672   7.373  0.9127 -0.6387 -1.9387
  190SLPC   C2721963   1.093   1.514   7.235 -0.3145  0.1997 -0.5561
  190SLPC   H7R21964   1.189   1.530   7.182  0.2267  0.5113  0.4978
  190SLPC   H7S21965   1.010   1.479   7.169 -2.8475  1.4629  1.7503
  190SLPC   C2821966   1.131   1.405   7.346  0.3244 -0.3971  0.4010
  190SLPC   H8R21967   1.230   1.436   7.387 -0.0166 -1.2471  1.9429
  190SLPC   H8S21968   1.134   1.309   7.289  3.2282 -0.0064 -0.2876
  190SLPC   C2921969   1.031   1.387   7.458 -0.1507 -0.1460 -0.1501
  190SLPC   H9R21970   0.931   1.369   7.416 -0.6537 -0.0457  0.9737
  190SLPC  C21021971   1.045   1.415   7.591 -0.8518  0.1534 -0.1423
  190SLPC  H10R21972   0.954   1.411   7.652 -0.9867 -0.3033 -0.3668
  190SLPC  C21121973   1.175   1.455   7.661 -0.4502 -0.5532  0.2172
  190SLPC  H11R21974   1.250   1.505   7.596 -1.1403 -1.7434 -1.5878
  190SLPC  H11S21975   1.223   1.365   7.704 -1.6742 -1.0017  0.7064
  190SLPC  C21221976   1.139   1.551   7.772 -0.1026 -0.3705 -0.8419
  190SLPC  H12R21977   1.123   1.511   7.873 -0.6602  0.3233 -0.6514
  190SLPC  C21321978   1.134   1.688   7.751 -0.6133  0.5989 -0.5685
  190SLPC  H13R21979   1.112   1.753   7.838 -0.1360 -1.8596  1.4972
  190SLPC  C21421980   1.160   1.769   7.623  0.7499  0.2766  0.1714
  190SLPC  H14R21981   1.059   1.780   7.580  0.9747  1.4948 -0.0665
  190SLPC  H14S21982   1.223   1.708   7.553  1.5006  0.8324  0.3472
  190SLPC  C21521983   1.216   1.916   7.637 -0.3303 -0.2803  0.2518
  190SLPC  H15R21984   1.317   1.910   7.682 -0.1271 -0.0446 -0.1636
  190SLPC  H15S21985   1.148   1.979   7.698 -0.4724 -0.5201  0.3447
  190SLPC  C21621986   1.236   1.985   7.505 -0.3941 -0.6969  0.0442
  190SLPC  H16R21987   1.138   2.001   7.454  0.2157  0.0499 -0.9220
  190SLPC  H16S21988   1.300   1.924   7.437 -0.7281  0.3545 -1.2691
  190SLPC  C21721989   1.300   2.126   7.526  0.2529 -0.3975 -0.4265
  190SLPC  H17R21990   1.399   2.115   7.575  0.4102  0.5164 -0.5265
  190SLPC  H17S21991   1.237   2.185   7.596  0.3733 -0.8288  0.0597
  190SLPC  C21821992   1.308   2.212   7.406 -0.8859 -0.4625 -0.2770
  190SLPC  H18R21993   1.396   2.192   7.342  0.7267  0.0279  1.6943
  190SLPC  H18S21994   1.309   2.319   7.433  1.6887 -0.4483 -0.2187
  190SLPC  H18T21995   1.217   2.190   7.345 -2.0381 -0.7319  1.4660
  190SLPC   C3321996   0.906   2.249   7.263 -0.2494  0.9191  0.2559
  190SLPC   H3X21997   0.992   2.179   7.272 -1.9555 -1.3848 -0.6135
  190SLPC   H3Y21998   0.841   2.203   7.187  2.1208 -2.5890  0.1048
  190SLPC   C3421999   0.823   2.252   7.388 -0.7413  0.3210  0.2202
  190SLPC   H4X22000   0.760   2.165   7.417  1.5565 -1.0638  1.3349
  190SLPC   H4Y22001   0.742   2.327   7.374 -0.3658  0.9573  1.3641
  190SLPC   C3522002   0.916   2.287   7.507  0.3350 -0.3538  0.1570
  190SLPC   H5X22003   0.969   2.382   7.484  0.1563 -0.7270 -2.0473
  190SLPC   H5Y22004   0.996   2.210   7.519  1.9142  1.2067  0.0448
  190SLPC   C3622005   0.856   2.315   7.646 -0.4603  0.0537 -0.0887
  190SLPC   H6X22006   0.818   2.216   7.678 -1.2164  0.7494  1.2394
  190SLPC   H6Y22007   0.775   2.389   7.624 -0.2845  0.5395  0.8540
  190SLPC   C3722008   0.956   2.370   7.749  0.5229 -0.6237  0.8188
  190SLPC   H7X22009   0.911   2.454   7.805  1.5177  1.2526 -1.0482
  190SLPC   H7Y22010   1.040   2.427   7.703  1.5899 -3.5082 -1.1267
  190SLPC   C3822011   1.012   2.272   7.845 -0.5283 -0.2022 -0.6009
  190SLPC   H8X22012   1.089   2.213   7.790  1.5913  1.2050  0.7118
  190SLPC   H8Y22013   0.925   2.205   7.863 -0.5678 -0.1036 -0.4225
  190SLPC   C3922014   1.074   2.328   7.979 -0.0149 -0.7964 -0.0444
  190SLPC   H9X22015   1.075   2.242   8.050  0.7373  0.1283  1.0895
  190SLPC   H9Y22016   0.990   2.396   8.007  0.2810 -1.2633  2.1986
  190SLPC  C31022017   1.212   2.390   7.964 -0.5838 -0.3142  0.3428
  190SLPC  H10X22018   1.206   2.465   7.882  2.0207 -1.0785 -0.6435
  190SLPC  H10Y22019   1.282   2.308   7.936  1.2415  1.1000  0.5980
  190SLPC  C31122020   1.267   2.450   8.093 -0.0639  0.2415  0.2321
  190SLPC  H11X22021   1.204   2.537   8.118 -0.3948 -0.3293  1.4079
  190SLPC  H11Y22022   1.366   2.498   8.073 -0.3441  1.8705  2.4101
  190SLPC  C31222023   1.266   2.345   8.210 -0.2157 -0.0326 -0.3159
  190SLPC  H12X22024   1.340   2.271   8.172  0.1414 -0.2635  0.7805
  190SLPC  H12Y22025   1.169   2.295   8.225  0.0768 -0.5220 -0.0209
  190SLPC  C31322026   1.314   2.394   8.349  0.1561  0.6541  0.0933
  190SLPC  H13X22027   1.277   2.496   8.374  0.6591  0.3498  2.2932
  190SLPC  H13Y22028   1.425   2.394   8.351  0.1521  1.4766  0.9525
  190SLPC  C31422029   1.278   2.291   8.463  0.1132  0.0868  0.3230
  190SLPC  H14X22030   1.325   2.191   8.448  1.4352  0.7791 -0.2688
  190SLPC  H14Y22031   1.171   2.274   8.438  0.7711 -0.5730 -2.3476
  190SLPC  C31522032   1.304   2.347   8.603  0.9205  0.8660 -0.6800
  190SLPC  H15X22033   1.242   2.438   8.617  0.2999  0.4139 -0.4441
  190SLPC  H15Y22034   1.407   2.386   8.598  2.1334 -1.7868  1.2580
  190SLPC  C31622035   1.291   2.246   8.723 -0.4866 -0.3373 -0.4098
  190SLPC  H16X22036   1.347   2.297   8.804  0.3318  0.3272 -1.3605
  190SLPC  H16Y22037   1.353   2.156   8.702  1.9294  1.0021  0.6101
  190SLPC  C31722038   1.154   2.202   8.770  0.3661 -0.1291  0.8404
  190SLPC  H17X22039   1.156   2.120   8.846  2.4108 -0.2682  0.6792
  190SLPC  H17Y22040   1.110   2.159   8.677 -0.1353  2.0295  0.0323
  190SLPC  C31822041   1.071   2.321   8.820  0.4784 -0.1560 -0.5002
  190SLPC  H18X22042   0.962   2.301   8.819  0.5155 -0.3646 -0.5073
  190SLPC  H18Y22043   1.089   2.419   8.771  0.8533 -0.5644 -1.1856
  190SLPC  H18Z22044   1.087   2.337   8.929 -0.1749  2.5740 -0.7337
  191SLPC     N22045   0.243   3.430   5.749 -0.7320 -0.1781  0.3676
  191SLPC   C1322046   0.253   3.545   5.650 -1.1059 -0.0485  0.0117
  191SLPC  H13A22047   0.228   3.633   5.707 -1.1891 -1.2464  1.9247
  191SLPC  H13B22048   0.353   3.558   5.614 -1.5206  2.1575 -0.4881
  191SLPC  H13C22049   0.184   3.547   5.567 -0.1364  1.4337 -0.7891
  191SLPC   C1422050   0.368   3.437   5.841 -1.0773  0.6304  0.1474
  191SLPC  H14A22051   0.450   3.453   5.771 -0.6312 -1.8236  0.0308
  191SLPC  H14B22052   0.356   3.514   5.915 -0.4630  0.8144  0.0680
  191SLPC  H14C22053   0.393   3.349   5.899 -0.7466  0.8085  0.2817
  191SLPC   C1522054   0.253   3.302   5.671  0.2781  0.8996  0.8438
  191SLPC  H15A22055   0.162   3.295   5.613 -0.1899 -0.4875  1.7003
  191SLPC  H15B22056   0.337   3.302   5.602 -1.3533  1.4766 -1.2711
  191SLPC  H15C22057   0.252   3.211   5.729 -1.8155 -0.9750 -1.8461
  191SLPC   C1222058   0.115   3.438   5.823  0.0058 -0.2716 -0.4071
  191SLPC  H12A22059   0.101   3.355   5.891 -1.0097  1.0021  0.9965
  191SLPC  H12B22060   0.035   3.423   5.751 -1.8290  2.0528  0.9842
  191SLPC   C1122061   0.094   3.553   5.917 -0.1669 -0.0607  0.3598
  191SLPC  H11A22062   0.179   3.547   5.989  0.6298 -1.2529 -0.6341
  191SLPC  H11B22063  -0.004   3.539   5.966 -1.4748  0.8908 -1.8609
  191SLPC     P22064   0.152   3.815   5.889  0.3564 -0.4685  0.0763
  191SLPC   O1322065   0.261   3.788   5.987  0.0593  0.2172  0.1801
  191SLPC   O1422066   0.179   3.893   5.766 -0.4320  0.0457 -0.5390
  191SLPC   O1222067   0.080   3.677   5.847 -0.1367  0.5028 -0.0974
  191SLPC   O1122068   0.049   3.897   5.982  0.0651 -0.2035  0.0978
  191SLPC    C122069  -0.052   3.819   6.059  0.2767 -0.5670  0.8467
  191SLPC    HA22070  -0.134   3.782   5.994 -0.2739 -1.0189  1.7806
  191SLPC    HB22071  -0.009   3.732   6.114  0.6380  0.3237  1.9985
  191SLPC    C222072  -0.127   3.906   6.159  0.1050  0.5705 -0.0672
  191SLPC    HS22073  -0.180   3.983   6.098  0.8248  1.8375  0.8436
  191SLPC   O2122074  -0.026   3.968   6.242 -0.3176  0.6106  0.2771
  191SLPC   C2122075  -0.066   4.031   6.353 -0.9701  0.3653  0.2440
  191SLPC   O2222076  -0.177   4.074   6.361  0.2117  0.3418 -0.2510
  191SLPC   C2222077   0.044   4.036   6.467 -1.1669  0.3633  0.1115
  191SLPC   H2R22078   0.124   3.961   6.448  1.5570  2.2383  3.0482
  191SLPC   H2S22079   0.103   4.130   6.459 -1.2288  0.3760 -0.1867
  191SLPC    C322080  -0.241   3.823   6.228 -0.7228 -0.6439  0.2432
  191SLPC    HX22081  -0.323   3.821   6.153  0.1613  0.5499 -0.8095
  191SLPC    HY22082  -0.267   3.866   6.327 -0.1917  0.8825 -0.2528
  191SLPC   O3122083  -0.191   3.700   6.263  0.0069 -0.1851  0.4459
  191SLPC   C3122084  -0.160   3.661   6.394 -0.4933 -0.0735 -0.4458
  191SLPC   O3222085  -0.163   3.729   6.491  0.5726 -0.0137 -0.2333
  191SLPC   C3222086  -0.106   3.515   6.399  0.4633  0.2002 -0.5518
  191SLPC   H2X22087  -0.010   3.506   6.454 -0.2787  2.5338  1.2840
  191SLPC   H2Y22088  -0.095   3.485   6.292 -0.3777  0.3868 -0.7012
  191SLPC   C2322089  -0.015   4.021   6.607 -0.1530 -0.1181 -0.4233
  191SLPC   H3R22090   0.079   4.006   6.664  1.0610  1.7633 -1.8285
  191SLPC   H3S22091  -0.075   3.928   6.617  0.1882 -0.3738 -0.7058
  191SLPC   C2422092  -0.084   4.150   6.659 -0.0204 -0.2586 -0.2727
  191SLPC   H4R22093  -0.154   4.201   6.589  0.0133 -0.0493 -0.1571
  191SLPC   H4S22094  -0.003   4.225   6.676  0.1564 -0.9395  2.1799
  191SLPC   C2522095  -0.167   4.120   6.787 -0.0573 -0.6401 -0.3735
  191SLPC   H5R22096  -0.238   4.037   6.770 -0.6294 -0.8685  2.5908
  191SLPC   H5S22097  -0.227   4.213   6.800  1.8642  0.9474 -2.0791
  191SLPC   C2622098  -0.095   4.102   6.919  0.3179 -0.0238 -0.1489
  191SLPC   H6R22099  -0.044   4.196   6.952  2.0176 -1.2753  0.9719
  191SLPC   H6S22100  -0.011   4.031   6.903  0.6956  0.0896  1.1861
  191SLPC   C2722101  -0.184   4.063   7.040  0.2565 -0.3551  0.0798
  191SLPC   H7R22102  -0.215   3.957   7.032  2.6917 -1.1663  0.6571
  191SLPC   H7S22103  -0.275   4.128   7.034  0.2101 -0.5154 -1.4583
  191SLPC   C2822104  -0.116   4.077   7.177  0.0602  0.3626 -0.3586
  191SLPC   H8R22105  -0.007   4.070   7.153 -0.0875  1.1995 -1.3439
  191SLPC   H8S22106  -0.127   3.986   7.239  0.0651  0.6392  0.0474
  191SLPC   C2922107  -0.149   4.204   7.250  0.0336  0.3663 -0.7069
  191SLPC   H9R22108  -0.147   4.290   7.182 -0.7015  0.4249 -0.6615
  191SLPC  C21022109  -0.164   4.231   7.380 -0.2332 -0.1090  0.0726
  191SLPC  H10R22110  -0.179   4.336   7.409  2.4901  1.3882 -3.3093
  191SLPC  C21122111  -0.161   4.132   7.492 -0.2373  0.3139  0.0841
  191SLPC  H11R22112  -0.059   4.139   7.536 -0.1364 -1.4406  0.2103
  191SLPC  H11S22113  -0.164   4.027   7.456 -0.7421 -0.4892  2.2825
  191SLPC  C21222114  -0.262   4.150   7.601  0.1218 -0.4575  0.5164
  191SLPC  H12R22115  -0.365   4.171   7.569 -0.0370  1.4765  2.0684
  191SLPC  C21322116  -0.242   4.168   7.734 -0.1482  0.6203 -0.2500
  191SLPC  H13R22117  -0.334   4.175   7.794  0.1395 -1.1011  0.4592
  191SLPC  C21422118  -0.116   4.171   7.814 -0.8094 -0.4040  0.1693
  191SLPC  H14R22119  -0.039   4.220   7.752  0.2239 -1.1951  0.7813
  191SLPC  H14S22120  -0.081   4.066   7.825 -0.0699 -0.0812  1.0157
  191SLPC  C21522121  -0.138   4.216   7.965 -0.5296  0.4722 -0.0989
  191SLPC  H15R22122  -0.232   4.166   7.999  1.9344 -2.5288  3.0482
  191SLPC  H15S22123  -0.151   4.326   7.963  0.1126  0.5580  0.1856
  191SLPC  C21622124  -0.029   4.159   8.056 -0.1986  0.2434  0.0451
  191SLPC  H16R22125   0.064   4.206   8.014 -0.0478  0.6429  0.8041
  191SLPC  H16S22126  -0.042   4.051   8.035 -1.0486 -0.3150  3.0218
  191SLPC  C21722127  -0.036   4.198   8.203  0.1245  0.9512  0.2136
  191SLPC  H17R22128   0.067   4.184   8.244  0.4223  1.9593 -0.1496
  191SLPC  H17S22129  -0.107   4.134   8.259  1.3316 -0.4520  0.2088
  191SLPC  C21822130  -0.057   4.348   8.227  0.4673 -0.2739 -0.4193
  191SLPC  H18R22131   0.017   4.406   8.168 -0.4282 -1.6964 -3.0580
  191SLPC  H18S22132  -0.044   4.368   8.336  0.1214 -1.7023 -0.0994
  191SLPC  H18T22133  -0.157   4.382   8.194 -0.3336 -0.1782  1.8942
  191SLPC   C3322134  -0.209   3.423   6.473  0.0624  0.2046  0.4344
  191SLPC   H3X22135  -0.183   3.319   6.443  3.8875  1.0188  0.4887
  191SLPC   H3Y22136  -0.309   3.423   6.423  0.9044  0.7493 -1.3148
  191SLPC   C3422137  -0.235   3.440   6.621  0.4361 -0.1904 -0.9626
  191SLPC   H4X22138  -0.320   3.505   6.652  1.8781  1.7405 -0.8884
  191SLPC   H4Y22139  -0.149   3.478   6.679  0.5083 -1.6638 -0.0401
  191SLPC   C3522140  -0.271   3.315   6.701  0.1785  0.2732  0.2879
  191SLPC   H5X22141  -0.198   3.233   6.683 -1.0134 -1.5054  2.8786
  191SLPC   H5Y22142  -0.376   3.295   6.669  0.7376  0.1647 -1.5851
  191SLPC   C3622143  -0.259   3.336   6.858 -0.5855  0.7305  0.5900
  191SLPC   H6X22144  -0.337   3.408   6.890 -0.0954  1.0667  1.0423
  191SLPC   H6Y22145  -0.155   3.371   6.874 -0.0860 -0.9052  1.2139
  191SLPC   C3722146  -0.265   3.203   6.944  0.2429  0.2943  0.4369
  191SLPC   H7X22147  -0.207   3.116   6.905 -3.1587 -0.6975 -2.9907
  191SLPC   H7Y22148  -0.373   3.181   6.932 -0.0670  2.3211 -0.8303
  191SLPC   C3822149  -0.250   3.233   7.094 -0.3751  0.9477  0.3195
  191SLPC   H8X22150  -0.331   3.294   7.141 -2.3276 -1.1154 -0.1804
  191SLPC   H8Y22151  -0.160   3.299   7.097  1.0607 -0.9111 -0.1809
  191SLPC   C3922152  -0.225   3.113   7.181  0.3077  0.3937  0.6296
  191SLPC   H9X22153  -0.124   3.075   7.156 -0.4057 -1.7697  0.7776
  191SLPC   H9Y22154  -0.293   3.032   7.145 -0.0761  0.6444  0.7827
  191SLPC  C31022155  -0.244   3.138   7.324 -0.3270  0.0002  0.1466
  191SLPC  H10X22156  -0.345   3.183   7.338 -0.5533 -0.4863  0.0948
  191SLPC  H10Y22157  -0.162   3.208   7.350  1.3058 -1.8934  0.3178
  191SLPC  C31122158  -0.228   3.005   7.403 -0.5064  0.1265  0.1890
  191SLPC  H11X22159  -0.128   2.961   7.380 -0.5826 -1.7626  3.0957
  191SLPC  H11Y22160  -0.314   2.942   7.372  0.3325 -0.7949 -0.3231
  191SLPC  C31222161  -0.241   3.029   7.556 -0.5634  0.1003  0.7771
  191SLPC  H12X22162  -0.188   3.122   7.587 -0.3252 -0.6278  2.7133
  191SLPC  H12Y22163  -0.194   2.946   7.615  0.1079 -0.2070 -0.1637
  191SLPC  C31322164  -0.385   3.046   7.603 -0.2050 -0.0568  0.4201
  191SLPC  H13X22165  -0.458   2.998   7.534  1.1453 -1.4905 -0.0630
  191SLPC  H13Y22166  -0.418   3.151   7.620 -3.5215 -0.9588  0.3214
  191SLPC  C31422167  -0.399   2.986   7.741 -0.2857 -0.3295  0.1668
  191SLPC  H14X22168  -0.353   2.885   7.745  0.4995  0.0535  2.6680
  191SLPC  H14Y22169  -0.506   2.971   7.767 -0.8946  1.5179 -1.0538
  191SLPC  C31522170  -0.346   3.074   7.858  0.2212  1.3074 -0.5594
  191SLPC  H15X22171  -0.405   3.169   7.858 -0.1732  1.1459 -3.0561
  191SLPC  H15Y22172  -0.244   3.113   7.834  0.2896  2.3160  1.1898
  191SLPC  C31622173  -0.341   3.001   7.988 -0.6089  0.3751 -0.1777
  191SLPC  H16X22174  -0.278   2.910   7.977  0.2239  1.1047 -1.9177
  191SLPC  H16Y22175  -0.445   2.965   8.005  0.4118 -2.2456  0.9895
  191SLPC  C31722176  -0.289   3.092   8.096  0.0417 -0.3208 -0.6647
  191SLPC  H17X22177  -0.376   3.154   8.125  0.5580 -0.7301  1.9603
  191SLPC  H17Y22178  -0.212   3.169   8.078 -0.3869  1.1908  3.0681
  191SLPC  C31822179  -0.262   3.028   8.230 -0.2348  1.0253  0.3438
  191SLPC  H18X22180  -0.277   3.092   8.319  1.7647 -1.9014  3.0000
  191SLPC  H18Y22181  -0.159   2.989   8.244 -0.9229 -0.1146  2.7141
  191SLPC  H18Z22182  -0.333   2.946   8.254  1.4515 -0.4531  0.5595
  192SLPC     N22183   5.883   4.389   6.248  0.6326 -0.2643 -0.5298
  192SLPC   C1322184   5.767   4.418   6.339 -0.3443 -0.0841  0.2790
  192SLPC  H13A22185   5.770   4.349   6.423 -0.8150  1.0882  1.2917
  192SLPC  H13B22186   5.769   4.516   6.383  0.3966  0.7622 -1.5379
  192SLPC  H13C22187   5.671   4.398   6.293 -0.7998  0.1429  1.1115
  192SLPC   C1422188   5.884   4.477   6.130 -0.3765  0.7242  0.3012
  192SLPC  H14A22189   5.800   4.454   6.066 -0.5029 -0.0981  0.7438
  192SLPC  H14B22190   5.874   4.581   6.156  0.4932  0.7587  0.5152
  192SLPC  H14C22191   5.985   4.487   6.092 -0.5242  0.5446 -0.1424
  192SLPC   C1522192   5.879   4.252   6.192  0.0770 -0.1884 -0.0153
  192SLPC  H15A22193   5.958   4.243   6.118  0.2304 -1.0806  0.2428
  192SLPC  H15B22194   5.890   4.180   6.272  2.2165  1.1549  0.9858
  192SLPC  H15C22195   5.788   4.219   6.144 -0.2694 -2.6044  2.0832
  192SLPC   C1222196   6.022   4.409   6.323  0.4157  0.2776  0.4115
  192SLPC  H12A22197   6.026   4.344   6.409 -2.4653 -0.0324  0.4186
  192SLPC  H12B22198   6.027   4.510   6.361  0.5188  0.5242 -0.2369
  192SLPC   C1122199   6.150   4.380   6.234 -0.8391 -0.7560  0.0777
  192SLPC  H11A22200   6.135   4.279   6.191 -0.7689 -0.8050  0.1707
  192SLPC  H11B22201   6.237   4.371   6.302 -0.2542 -0.1441 -0.5678
  192SLPC     P22202   6.252   4.604   6.169  0.3689 -0.0479 -0.8631
  192SLPC   O1322203   6.385   4.562   6.220 -0.4033 -0.0684  0.2781
  192SLPC   O1422204   6.254   4.694   6.053 -0.1130 -0.1451 -0.7546
  192SLPC   O1222205   6.169   4.477   6.130 -0.3627 -0.9852  0.1408
  192SLPC   O1122206   6.169   4.667   6.283  0.0540  0.0214 -0.9186
  192SLPC    C122207   6.225   4.758   6.382  0.3632  0.0660  0.4644
  192SLPC    HA22208   6.336   4.765   6.382  0.4847 -1.5178  1.5344
  192SLPC    HB22209   6.186   4.857   6.349 -0.9853 -0.1717  1.2829
  192SLPC    C222210   6.183   4.727   6.529  0.5066  0.1374 -0.0592
  192SLPC    HS22211   6.221   4.805   6.597 -0.8879  1.8942 -1.2047
  192SLPC   O2122212   6.228   4.595   6.558 -0.3516  0.4800 -0.2956
  192SLPC   C2122213   6.334   4.578   6.625  0.2473 -0.2564 -1.0295
  192SLPC   O2222214   6.396   4.675   6.674 -0.0311 -0.3440  0.7600
  192SLPC   C2222215   6.385   4.429   6.624  0.3449  0.7867 -0.6056
  192SLPC   H2R22216   6.402   4.392   6.521  2.3831 -1.2880  0.3690
  192SLPC   H2S22217   6.489   4.431   6.663 -1.0612  0.5277  3.6634
  192SLPC    C322218   6.026   4.732   6.528  0.6995  0.8038 -0.4599
  192SLPC    HX22219   5.992   4.653   6.457 -0.4380  0.6624  0.2100
  192SLPC    HY22220   5.994   4.837   6.507 -1.9617  0.0899 -0.3862
  192SLPC   O3122221   5.985   4.702   6.671 -0.0073  0.4515  0.4259
  192SLPC   C3122222   5.905   4.595   6.695 -0.1588 -0.7140  0.0621
  192SLPC   O3222223   5.867   4.518   6.616  0.3145  0.0302  0.2082
  192SLPC   C3222224   5.880   4.587   6.850  0.1388 -0.2137 -0.1275
  192SLPC   H2X22225   5.789   4.652   6.859  0.4279  0.2084 -0.2009
  192SLPC   H2Y22226   5.969   4.625   6.905  0.2163 -1.7498  0.8444
  192SLPC   C2322227   6.301   4.328   6.706  0.3106 -0.1663  0.2114
  192SLPC   H3R22228   6.330   4.225   6.678  0.1272 -0.2391  0.2887
  192SLPC   H3S22229   6.194   4.339   6.678  0.0997 -0.6823  0.7843
  192SLPC   C2422230   6.304   4.358   6.858  0.0570  0.7335  0.3501
  192SLPC   H4R22231   6.243   4.450   6.871 -2.8629 -1.1699  1.3669
  192SLPC   H4S22232   6.408   4.359   6.897  0.6300  2.8576 -1.0503
  192SLPC   C2522233   6.246   4.239   6.941 -0.0890  0.4722  0.7369
  192SLPC   H5R22234   6.307   4.147   6.936 -1.2845 -0.3351  0.4097
  192SLPC   H5S22235   6.143   4.218   6.905 -0.0056 -1.4857  1.4965
  192SLPC   C2622236   6.253   4.273   7.093 -0.0333  0.0369  0.3372
  192SLPC   H6R22237   6.202   4.372   7.096  1.0093  0.6512 -0.9728
  192SLPC   H6S22238   6.358   4.294   7.124  0.6614  1.5681 -2.6713
  192SLPC   C2722239   6.190   4.164   7.182  0.2229  0.4500 -0.7046
  192SLPC   H7R22240   6.114   4.118   7.115  2.7635 -2.5646 -1.7969
  192SLPC   H7S22241   6.156   4.214   7.275  0.8671  2.5066 -1.5248
  192SLPC   C2822242   6.268   4.044   7.230  0.7898 -0.2122  0.1363
  192SLPC   H8R22243   6.351   4.085   7.292  0.8862 -0.5878  0.2619
  192SLPC   H8S22244   6.310   4.007   7.133 -3.3877 -1.4446 -1.4279
  192SLPC   C2922245   6.189   3.935   7.296 -0.2894  0.2638 -0.2799
  192SLPC   H9R22246   6.117   3.881   7.233 -0.9136  1.6344 -0.7784
  192SLPC  C21022247   6.211   3.887   7.422 -0.5290 -0.2577  0.9798
  192SLPC  H10R22248   6.152   3.799   7.454 -0.2222 -0.5063  0.8607
  192SLPC  C21122249   6.311   3.949   7.513 -0.6242 -0.6895  0.0436
  192SLPC  H11R22250   6.289   4.057   7.524 -0.6206 -0.2231 -3.3333
  192SLPC  H11S22251   6.407   3.954   7.458 -0.4850  2.6103  0.3869
  192SLPC  C21222252   6.341   3.889   7.644 -0.6009 -0.1959  0.4522
  192SLPC  H12R22253   6.444   3.851   7.649  0.7006  2.8528 -0.8770
  192SLPC  C21322254   6.263   3.869   7.750 -0.1182 -0.3931  0.1603
  192SLPC  H13R22255   6.314   3.837   7.842 -0.6686 -0.9580  0.2744
  192SLPC  C21422256   6.119   3.905   7.771  0.0848  0.2294  0.1119
  192SLPC  H14R22257   6.061   3.813   7.791  0.1025 -0.4576 -2.6424
  192SLPC  H14S22258   6.078   3.965   7.687  1.3574  0.6151 -0.2679
  192SLPC  C21522259   6.106   3.991   7.902 -0.1442  0.2542 -0.1823
  192SLPC  H15R22260   6.156   4.090   7.906 -0.2600  0.3498 -1.0659
  192SLPC  H15S22261   6.168   3.941   7.980 -1.6637  1.7796  2.1471
  192SLPC  C21622262   5.971   4.003   7.975 -0.3317  0.4648  0.1740
  192SLPC  H16R22263   5.900   3.918   7.979 -0.6039  0.6736 -0.1612
  192SLPC  H16S22264   5.922   4.068   7.901 -0.3939  0.2061 -0.0127
  192SLPC  C21722265   5.977   4.075   8.112 -0.0230 -0.0404  0.3519
  192SLPC  H17R22266   6.044   4.163   8.108 -0.5458  0.3374 -0.1840
  192SLPC  H17S22267   5.875   4.119   8.122 -0.3607 -0.2887 -1.5806
  192SLPC  C21822268   5.995   3.981   8.234  0.2589  0.0808 -0.2451
  192SLPC  H18R22269   5.985   4.032   8.332  0.5005 -0.9026  0.3016
  192SLPC  H18S22270   6.085   3.917   8.241 -0.7009 -1.3969 -0.9275
  192SLPC  H18T22271   5.915   3.905   8.242 -1.8606  2.2738  0.9652
  192SLPC   C3322272   5.829   4.450   6.889  0.0310  0.2717  0.2473
  192SLPC   H3X22273   5.918   4.385   6.902 -1.2251 -1.0603  3.2159
  192SLPC   H3Y22274   5.773   4.399   6.808  1.4762 -1.7786  0.4587
  192SLPC   C3422275   5.748   4.437   7.022 -0.0169 -0.7380  0.0609
  192SLPC   H4X22276   5.730   4.333   7.056 -0.1550  0.0930  2.7020
  192SLPC   H4Y22277   5.654   4.497   7.012  1.5047  1.6411 -0.9538
  192SLPC   C3522278   5.817   4.502   7.145 -0.3015  0.3974  0.3901
  192SLPC   H5X22279   5.748   4.495   7.231 -0.8700 -2.2848 -0.1973
  192SLPC   H5Y22280   5.830   4.611   7.131  0.4524  1.0750  4.9632
  192SLPC   C3622281   5.945   4.437   7.191  0.1409  0.1858  0.2104
  192SLPC   H6X22282   6.028   4.498   7.149  0.7640 -0.1246  0.9692
  192SLPC   H6Y22283   5.964   4.333   7.156 -1.1992  0.8185 -2.7049
  192SLPC   C3722284   5.965   4.445   7.336  0.2275  0.3183 -0.9927
  192SLPC   H7X22285   5.921   4.536   7.382 -0.2438 -0.3269 -0.1525
  192SLPC   H7Y22286   6.075   4.445   7.352 -0.1451  1.3330  2.5006
  192SLPC   C3822287   5.911   4.316   7.413 -0.3611 -0.3703  0.5014
  192SLPC   H8X22288   5.973   4.226   7.393 -0.9893 -1.2315  2.1745
  192SLPC   H8Y22289   5.802   4.298   7.398 -1.3591  0.1139  5.3606
  192SLPC   C3922290   5.920   4.344   7.564  0.2859 -0.7741 -0.3409
  192SLPC   H9X22291   5.838   4.278   7.598 -0.8742 -0.6014 -2.6098
  192SLPC   H9Y22292   5.897   4.451   7.581  1.1676 -0.6243 -0.0232
  192SLPC  C31022293   6.054   4.293   7.624  0.0463 -0.2444 -0.1109
  192SLPC  H10X22294   6.140   4.318   7.559 -0.8915 -0.9725 -1.7055
  192SLPC  H10Y22295   6.038   4.183   7.615  1.1339 -0.4579  0.4528
  192SLPC  C31122296   6.049   4.332   7.766 -0.3549 -0.0617 -0.2454
  192SLPC  H11X22297   6.153   4.308   7.798 -0.1800 -0.1593 -0.8775
  192SLPC  H11Y22298   5.989   4.267   7.833  0.1985 -0.5602 -0.2251
  192SLPC  C31222299   6.016   4.480   7.793  0.1148 -0.1119  0.0672
  192SLPC  H12X22300   6.040   4.515   7.896  0.1427  3.3658 -0.9912
  192SLPC  H12Y22301   5.907   4.489   7.774  0.0884  0.4847  0.4712
  192SLPC  C31322302   6.094   4.582   7.709 -0.2445  0.3396  0.0541
  192SLPC  H13X22303   6.068   4.578   7.601  1.3343 -0.4496 -0.3365
  192SLPC  H13Y22304   6.198   4.544   7.715 -0.1936  0.3255 -0.8140
  192SLPC  C31422305   6.098   4.729   7.762 -0.0494 -0.0660  0.2187
  192SLPC  H14X22306   6.115   4.719   7.871 -0.1127 -0.8471  0.1647
  192SLPC  H14Y22307   5.997   4.773   7.754  0.4492  1.5995  2.2059
  192SLPC  C31522308   6.208   4.814   7.702 -0.2585  0.3591  0.2288
  192SLPC  H15X22309   6.200   4.815   7.591 -0.5629  0.5805  0.2515
  192SLPC  H15Y22310   6.304   4.763   7.723  0.9336  1.2799 -2.4746
  192SLPC  C31622311   6.203   4.962   7.746 -0.1996 -0.4857 -0.1527
  192SLPC  H16X22312   6.202   4.960   7.858  1.0075 -2.1382 -0.1473
  192SLPC  H16Y22313   6.115   5.024   7.719  1.2297  2.2644  1.0452
  192SLPC  C31722314   6.331   5.051   7.706  0.8984 -0.1046 -0.3422
  192SLPC  H17X22315   6.419   5.020   7.766  1.4295 -0.2432 -1.1934
  192SLPC  H17Y22316   6.311   5.157   7.734  2.3302 -0.1955  1.1959
  192SLPC  C31822317   6.356   5.052   7.555 -0.0624 -0.2124 -0.7657
  192SLPC  H18X22318   6.370   4.946   7.523 -1.3779 -0.6195 -0.0599
  192SLPC  H18Y22319   6.451   5.104   7.530 -0.6264  0.7793 -0.9098
  192SLPC  H18Z22320   6.274   5.090   7.491  0.2184  1.0594 -0.3927
  193SOD    SOD22321   4.633   4.218  10.933 -0.0475 -0.4333 -0.0554
  194SOD    SOD22322   0.976   2.785  11.231  0.3305  0.2276  0.0209
  195SOD    SOD22323   5.971   3.391  15.787  0.1817 -0.0122 -0.4623
  196SOD    SOD22324   5.771   1.566   2.497 -0.2300  0.3077 -0.4182
  197SOD    SOD22325   5.727   1.056  16.494 -0.0460 -0.2844  0.5368
  198SOD    SOD22326   6.273   4.602   3.512  0.0352 -0.2039  0.4256
  199SOD    SOD22327   2.253   3.899  16.701  0.0936  0.1464  0.0253
  200SOD    SOD22328   3.295   6.650   3.524  0.2274 -0.0570 -0.3548
  201SOD    SOD22329   4.877   6.428  12.140  0.2192 -0.1474  0.1067
  202SOD    SOD22330   1.745   2.523   3.848 -0.0116 -0.1679  0.2680
  203SOD    SOD22331   4.718   4.093  15.700  0.1105  0.0383  0.1695
  204SOD    SOD22332   1.597   0.534  16.362 -0.0473 -0.4773 -0.5079
  205SOD    SOD22333   1.111   5.622   1.992 -0.1364 -0.2845 -0.3449
  206SOD    SOD22334   0.388   5.212  11.309  0.0921  0.5813  0.3803
  207SOD    SOD22335   5.123   6.460   4.436  0.1534  0.1756  0.5582
  208SOD    SOD22336   5.835   3.044  11.641  0.1030  0.4154 -0.6765
  209SOD    SOD22337   3.680   4.225   3.669 -0.3886  0.6316 -0.1885
  210SOD    SOD22338   4.516   3.117  12.633 -0.0722  0.6835 -0.0696
  211SOD    SOD22339   1.234   3.179   4.090  0.1142  0.0957  0.5282
  212SOD    SOD22340   6.280   2.360   5.343 -0.1263  0.1977  0.3325
  213SOD    SOD22341   5.664   4.305   2.975 -0.7317  0.2766  0.0190
  214SOD    SOD22342   4.228   2.709  10.661 -0.0681 -0.3686 -0.0321
  215SOD    SOD22343   6.332   3.631  11.465  0.8615  0.4800  0.1731
  216SOD    SOD22344   3.521   1.435  12.574  0.5910  0.4419 -0.0993
  217SOD    SOD22345   5.808   3.953  17.153 -0.0828 -0.1090 -0.1150
  218SOD    SOD22346   4.059   6.571   4.748 -0.0092  0.4378 -0.1295
  219SOD    SOD22347   4.044   1.524  10.902  0.0535 -0.6848 -0.1436
  220SOD    SOD22348   5.867   0.114   1.179 -0.3296  0.6096 -0.3046
  221SOD    SOD22349   1.175   4.449  14.483  0.1612  0.2072  0.2585
  222SOD    SOD22350   1.102   6.156  12.477  0.2443 -0.0360 -0.3170
  223SOD    SOD22351   3.920   6.784   0.108  0.2638  0.3748  0.3273
  224SOD    SOD22352   3.937   3.680   4.742 -0.3906  0.1203 -0.1348
  225SOD    SOD22353   2.052   1.198  11.094  0.2156 -0.2291 -0.4804
  226SOD    SOD22354   2.755   3.166   3.980  0.4229 -0.3026 -0.4709
  227SOD    SOD22355   2.085   1.802   1.619  0.1852 -0.3976  0.2855
  228SOD    SOD22356   4.303   5.356  12.635  0.1843  0.0639  0.5185
  229SOD    SOD22357   1.431   4.120   5.003 -0.0264  0.4865  0.2016
  230SOD    SOD22358   1.934   5.763   1.302 -0.0891 -0.0378 -0.0935
  231SOD    SOD22359   1.862   4.370  15.327 -0.0924  0.3857 -0.2899
  232SOD    SOD22360   6.234   3.623   3.649  0.0893 -0.5130  0.1706
  233SOD    SOD22361   6.069   1.717  10.792  0.1914  0.4939  0.2794
  234SOD    SOD22362   4.554   2.756  15.464 -0.1859 -0.4410 -0.0541
  235SOD    SOD22363   0.208   5.048   5.537 -0.2663 -0.2303  0.6079
  236SOD    SOD22364   4.418   3.483  15.321  0.4347 -0.2611  0.7409
  237SOD    SOD22365   5.500   4.409  15.991  0.0662  0.2171 -0.0456
  238SOD    SOD22366   4.486   1.713  11.561  0.0714  0.0000  0.0993
  239SOD    SOD22367   4.624   0.521   5.971 -0.1972  0.4532 -0.3039
  240SOD    SOD22368   6.213   4.303   5.204  0.0263 -0.0295 -0.1360
  241SOD    SOD22369   5.085   0.069   1.557 -0.5423  0.3937  0.1928
  242SOD    SOD22370   0.678   4.196  13.576 -0.2067 -0.8292  0.1111
  243SOD    SOD22371   1.345   4.819  13.514  0.3847  0.6704  0.1603
  244SOD    SOD22372   5.988   2.048   0.016  0.2235  0.1307 -0.1108
  245SOD    SOD22373   6.581   4.204  11.476 -0.6157 -0.4554 -0.3533
  246SOD    SOD22374   0.967   4.026  17.039 -0.6270 -0.0122 -0.0234
  247SOD    SOD22375   4.401   4.255   3.597  0.1069  0.0755  0.2595
  248SOD    SOD22376   3.365   6.151  13.570 -0.3782 -0.2338  0.5048
  249SOD    SOD22377   0.982   0.261   3.666  0.3867 -0.1557 -0.2077
  250SOD    SOD22378   1.831   1.455  12.392  0.3679  0.2654  0.2568
  251SOD    SOD22379   1.540   6.414  11.859  0.0389 -0.1423  0.0559
  252SOD    SOD22380   2.092   1.789  12.857  0.1578 -0.0964 -0.0642
  253SOD    SOD22381   5.036   4.079   5.339  0.2164  0.4515  0.2346
  254SOD    SOD22382   1.186   6.505  14.705 -0.1468 -0.0670  0.1494
  255SOD    SOD22383   2.672   3.462  13.263  0.3925 -0.0767  0.0696
  256SOD    SOD22384   2.306   0.096   1.481  0.5309  0.4017  0.1784
  257SOD    SOD22385   4.657   2.165   0.058  0.2838 -0.2267  0.2145
  258SOD    SOD22386   5.232   6.188  16.966 -0.1192 -0.4139 -0.4831
  259SOD    SOD22387   1.544   3.849   6.454 -0.1081 -0.1391  0.2842
  260SOD    SOD22388   6.035   6.140   5.117  0.3802  0.1772 -0.2173
  261SOD    SOD22389   0.931   3.674   4.048 -0.0734  0.1238  0.0756
  262SOD    SOD22390   6.538   5.563   2.332  0.0618  0.2062  0.0908
  263SOD    SOD22391   4.689   2.386   6.242  0.0487  0.0451 -0.3978
  264SOD    SOD22392   2.278   5.096   6.167  0.1448  0.0813 -0.4287
  265SOD    SOD22393   1.382   1.679  11.104  0.2605 -0.2284 -0.7535
  266CLA    CLA22394   4.837   1.440  13.501 -0.2708  0.0537  0.2675
  267CLA    CLA22395   3.548   2.199  17.028 -0.1668  0.2775 -0.3065
  268CLA    CLA22396   5.280   1.720  15.887 -0.2024 -0.1107  0.4251
  269CLA    CLA22397   4.748   3.253   4.236 -0.0103 -0.2096 -0.0073
  270CLA    CLA22398   4.575   4.272   5.429 -0.3315 -0.2198 -0.6044
  271CLA    CLA22399   2.097   5.111  15.163  0.2386  0.3172  0.1312
  272CLA    CLA22400   5.668   0.223   0.817  0.3230  0.2045 -0.1680
  273CLA    CLA22401   6.134   5.199   3.822 -0.1689  0.1343 -0.2577
  274CLA    CLA22402   2.253   1.463  13.169  0.0376  0.0714  0.0766
  275CLA    CLA22403   4.133   1.968  11.391 -0.1840  0.2238 -0.0952
  276CLA    CLA22404   6.095   0.186  14.510  0.3251 -0.5424 -0.1667
  277CLA    CLA22405   2.750   0.998   1.801  0.1540 -0.1651 -0.1887
  278CLA    CLA22406   6.668   6.253  11.394  0.4030  0.2318 -0.3270
  279CLA    CLA22407   3.407   2.226  12.846 -0.0711  0.0269  0.0525
  280CLA    CLA22408   6.518   4.284   0.889 -0.2713 -0.2575 -0.0647
  281CLA    CLA22409   1.610   4.053   4.507  0.1475  0.1917  0.0172
  282CLA    CLA22410   3.067   2.727  15.140 -0.1765 -0.2263 -0.0343
  283CLA    CLA22411   5.089   0.645  13.515  0.1654 -0.0833  0.2583
  284CLA    CLA22412   1.947   4.529   3.682 -0.1714 -0.1047  0.2798
  285CLA    CLA22413   6.390   5.110  12.766 -0.1303  0.1027 -0.6231
  286CLA    CLA22414   5.204   5.934   4.902  0.4174  0.0720 -0.2515
  287CLA    CLA22415   4.817   5.989   2.981 -0.0944  0.0776  0.4080
  288CLA    CLA22416   5.861   5.175   0.410 -0.1026 -0.3997 -0.0285
  289CLA    CLA22417   0.068   5.553   1.314 -0.4952 -0.0640 -0.0473
  290CLA    CLA22418   2.294   1.313  16.084  0.0154 -0.4083 -0.2628
  291CLA    CLA22419   6.109   0.121   3.922  0.0424  0.2469  0.1327
  292CLA    CLA22420   3.617   5.586   4.527  0.1991 -0.3687 -0.5795
  293CLA    CLA22421   0.365   2.165   1.532 -0.0275 -0.2746  0.0185
  294CLA    CLA22422   4.765   6.019  11.817  0.0302  0.3763  0.0660
  295CLA    CLA22423   4.038   1.856   0.292  0.4570 -0.1283 -0.1013
  296CLA    CLA22424   4.480   6.093  13.413  0.2191 -0.1885 -0.0230
  297CLA    CLA22425   2.553   3.144  13.718 -0.2205 -0.1232  0.0924
  298CLA    CLA22426   2.096   1.197   0.827 -0.3527  0.0590 -0.0582
  299CLA    CLA22427   3.784   0.121   2.903 -0.1496 -0.3928 -0.2505
  300CLA    CLA22428   3.497   4.878   1.801  0.0382  0.6392  0.0103
  301CLA    CLA22429   1.702   1.968   4.735  0.1990 -0.2114 -0.0778
  302CLA    CLA22430   4.625   2.393   1.962 -0.0470 -0.1653 -0.3647
  303CLA    CLA22431   4.408   4.390  16.759  0.1629 -0.0150 -0.0475
  304CLA    CLA22432   1.501   5.436  12.759 -0.1777  0.3464 -0.1791
  305CLA    CLA22433   6.565   3.272  15.257  0.1547  0.0194  0.1145
  306CLA    CLA22434   5.192   6.266  11.182  0.1612 -0.2064 -0.1370
  307CLA    CLA22435   0.155   2.838  16.712  0.1394  0.3125  0.3525
  308CLA    CLA22436   1.401   5.456   1.568  0.3894 -0.2801 -0.1973
  309CLA    CLA22437   2.953   4.782  13.442 -0.0437 -0.3502 -0.2243
  310CLA    CLA22438   4.379   5.137   3.381  0.6972  0.0097 -0.0533
  311CLA    CLA22439   5.696   3.260  11.216  0.3713  0.1551 -0.2112
  312CLA    CLA22440   2.143   2.838   3.548 -0.1540  0.0348  0.2210
  313CLA    CLA22441   4.248   3.637  16.497 -0.0691  0.1893 -0.1677
  314CLA    CLA22442   5.394   6.275  17.172 -0.1533  0.0576 -0.3801
  315CLA    CLA22443   4.721   3.151  15.324 -0.1871 -0.3161  0.1411
  316CLA    CLA22444   2.778   6.204  14.763  0.3692  0.2067  0.2261
  317CLA    CLA22445   6.196   5.771  16.511 -0.0490 -0.6034  0.5422
  318CLA    CLA22446   1.883   4.518  16.469  0.1367 -0.0906 -0.0941
  319TIP3   OH222447   1.424   6.226  12.263 -0.7182  0.7197 -0.5071
  319TIP3    H122448   1.408   6.320  12.269 -0.3718  0.6827  1.2964
  319TIP3    H222449   1.357   6.195  12.202 -1.2332  2.0353 -0.6488
  320TIP3   OH222450   3.701   1.291   3.307  0.3028  0.0984  0.1731
  320TIP3    H122451   3.616   1.296   3.351 -0.3254  1.9911 -1.1099
  320TIP3    H222452   3.712   1.198   3.288 -1.7127 -0.1729  0.0152
  321TIP3   OH222453   1.331   0.375  11.003 -0.0319  0.3484 -0.4260
  321TIP3    H122454   1.300   0.439  10.938  0.1956  1.4685  0.5227
  321TIP3    H222455   1.380   0.428  11.067  1.1922 -0.9551 -0.2426
  322TIP3   OH222456   0.343   0.482   2.215  0.1914 -0.4348  0.1708
  322TIP3    H122457   0.362   0.568   2.178  0.3244 -0.2926  0.5766
  322TIP3    H222458   0.396   0.422   2.163 -2.2666 -0.6874 -2.2936
  323TIP3   OH222459   0.163   5.485   0.329 -0.3643  0.0814 -0.1743
  323TIP3    H122460   0.141   5.392   0.332 -0.3104  0.0144 -1.2954
  323TIP3    H222461   0.239   5.490   0.271  1.8850  0.4585  2.5910
  324TIP3   OH222462   2.750   3.486   2.636  0.3431  0.1629 -0.2395
  324TIP3    H122463   2.832   3.449   2.606  1.8094  0.4715  2.9492
  324TIP3    H222464   2.762   3.581   2.629 -0.4382  0.1977 -1.3292
  325TIP3   OH222465   5.026   5.702   1.542 -0.5747 -0.0951 -0.5738
  325TIP3    H122466   5.098   5.758   1.571  1.6294 -3.6662  1.7244
  325TIP3    H222467   5.041   5.690   1.448  1.9373 -0.6367 -0.1963
  326TIP3   OH222468   4.504   1.345  14.648  0.2722 -0.3211 -0.0462
  326TIP3    H122469   4.576   1.407  14.654  0.9784 -1.0184 -0.9080
  326TIP3    H222470   4.547   1.259  14.640 -0.5575 -1.5903  5.4085
  327TIP3   OH222471   0.751   1.699   2.009  0.5405 -0.0279 -0.1306
  327TIP3    H122472   0.709   1.780   1.982 -0.0369 -0.0917  0.5805
  327TIP3    H222473   0.681   1.635   2.012  0.7252 -0.1934  0.8197
  328TIP3   OH222474   4.451   0.257   3.908  0.3773 -0.2939  0.1660
  328TIP3    H122475   4.520   0.303   3.954 -0.4215  0.1719  0.9285
  328TIP3    H222476   4.485   0.245   3.819  0.9537  0.9788  0.1974
  329TIP3   OH222477   4.777   4.106   1.399 -0.6154 -0.1943 -0.9345
  329TIP3    H122478   4.807   4.153   1.478  1.4966  0.4029 -1.9961
  329TIP3    H222479   4.693   4.069   1.423 -1.1239  1.8959  0.8694
  330TIP3   OH222480   6.189   6.178   4.177  0.0592 -0.3393 -0.0016
  330TIP3    H122481   6.233   6.111   4.228 -0.5968 -0.6661  0.1440
  330TIP3    H222482   6.111   6.201   4.228 -0.9396 -1.1150 -1.1161
  331TIP3   OH222483   1.468   5.568  17.074  0.3778 -0.2131  0.5547
  331TIP3    H122484   1.453   5.518  17.155 -1.2959  0.2231  0.5628
  331TIP3    H222485   1.462   5.502  17.004 -1.4649 -0.1278  0.5881
  332TIP3   OH222486   2.160   5.170   2.942  0.0463  0.0856  0.3887
  332TIP3    H122487   2.173   5.087   2.988  0.5713  0.3906  0.8110
  332TIP3    H222488   2.243   5.186   2.897  0.9507  1.6759  2.4686
  333TIP3   OH222489   5.392   5.397   2.791  0.0116 -0.7089 -0.3213
  333TIP3    H122490   5.368   5.484   2.759  1.7699 -0.7090 -1.8190
  333TIP3    H222491   5.480   5.408   2.826 -0.4608 -1.5287  1.1872
  334TIP3   OH222492   1.767   2.562   4.671 -0.3926  0.5447  0.8054
  334TIP3    H122493   1.798   2.512   4.746 -0.3769  0.8996  1.0406
  334TIP3    H222494   1.840   2.620   4.649 -0.0312 -0.2457 -0.1114
  335TIP3   OH222495   6.110   6.526  12.422 -0.3922 -0.2908 -0.3946
  335TIP3    H122496   6.121   6.598  12.484  0.1956  0.7561 -1.6789
  335TIP3    H222497   6.021   6.493  12.439 -0.0563 -0.3750  1.3317
  336TIP3   OH222498   0.594   6.289   6.027  0.3464  0.0255 -0.1646
  336TIP3    H122499   0.601   6.194   6.028  0.0622 -0.0023  0.9304
  336TIP3    H222500   0.683   6.320   6.012  0.7091 -0.4139  0.9614
  337TIP3   OH222501   6.473   1.350  12.566 -0.3103  0.8975 -0.0020
  337TIP3    H122502   6.465   1.255  12.577  1.1096  0.8737  1.1684
  337TIP3    H222503   6.441   1.367  12.478 -1.2517 -0.5735  0.0247
  338TIP3   OH222504   0.413   5.856  11.598 -0.3574  0.6434 -0.5800
  338TIP3    H122505   0.360   5.900  11.532  0.1095  3.0844  0.5476
  338TIP3    H222506   0.351   5.834  11.668 -0.6828 -1.0649 -1.3636
  339TIP3   OH222507   2.616   3.376   4.605 -0.1350  0.3454  0.1109
  339TIP3    H122508   2.646   3.427   4.680 -0.4670  1.1816 -0.3134
  339TIP3    H222509   2.521   3.387   4.605 -0.0828  0.9139 -0.8199
  340TIP3   OH222510   4.145   1.020   2.953  0.7709  0.1767 -0.1925
  340TIP3    H122511   4.146   1.031   2.858  1.6046  0.9529 -0.1034
  340TIP3    H222512   4.132   1.108   2.988 -1.4645 -0.3159  0.4176
  341TIP3   OH222513   4.160   2.332  13.748  0.0432 -0.5108 -0.4461
  341TIP3    H122514   4.235   2.374  13.705  0.0680 -2.1606 -2.1907
  341TIP3    H222515   4.200   2.269  13.808  0.0091  0.6265  0.8061
  342TIP3   OH222516   0.384   1.159   4.572  0.1894  0.4037 -0.2679
  342TIP3    H122517   0.417   1.200   4.492 -0.2031  4.5848  1.4558
  342TIP3    H222518   0.303   1.117   4.545  0.3384  1.2029 -2.1955
  343TIP3   OH222519   3.353   4.531   3.301 -0.0143 -0.5081 -0.1690
  343TIP3    H122520   3.330   4.562   3.389  0.3563  1.5121 -0.7384
  343TIP3    H222521   3.383   4.441   3.315 -0.6708 -0.4959  1.6549
  344TIP3   OH222522   5.801   2.594  15.769 -0.4274 -0.3626  0.3543
  344TIP3    H122523   5.788   2.522  15.707  0.6131 -1.2567  1.1281
  344TIP3    H222524   5.757   2.565  15.849 -0.2552  0.0004  0.5840
  345TIP3   OH222525   4.128   4.250  16.850 -0.0208  0.0145  0.5106
  345TIP3    H122526   4.124   4.217  16.940 -0.1076 -1.0995  0.1196
  345TIP3    H222527   4.212   4.295  16.845 -0.3289  0.7398  1.3427
  346TIP3   OH222528   3.919   1.266   5.523  0.8762 -0.1347 -0.2678
  346TIP3    H122529   3.855   1.195   5.531  0.2003  0.5921  1.4110
  346TIP3    H222530   3.874   1.333   5.471  1.0973 -0.4741 -0.9066
  347TIP3   OH222531   3.673   2.438  15.585  0.1432  0.4797 -0.6510
  347TIP3    H122532   3.589   2.480  15.605  0.4320  1.4971 -1.4990
  347TIP3    H222533   3.649   2.351  15.551 -0.5317  0.5163 -0.2821
  348TIP3   OH222534   3.059   3.316  14.904 -0.6836 -0.0225  0.1622
  348TIP3    H122535   3.038   3.400  14.863 -2.2074  0.4735  1.8063
  348TIP3    H222536   3.055   3.253  14.832 -1.0287  1.0971 -0.8462
  349TIP3   OH222537   5.255   4.617   0.346  0.1030 -0.2529  0.5669
  349TIP3    H122538   5.310   4.601   0.423 -0.1246 -1.4335  0.5016
  349TIP3    H222539   5.165   4.606   0.378 -0.0566  0.5494  0.4166
  350TIP3   OH222540   2.085   1.692  14.219  0.0711 -0.3896  0.1034
  350TIP3    H122541   2.166   1.660  14.259  0.0055 -2.1741 -1.1168
  350TIP3    H222542   2.028   1.712  14.293  1.1924 -0.2187  0.9521
  351TIP3   OH222543   0.267   6.482   5.706  0.6823 -0.1472 -0.2173
  351TIP3    H122544   0.337   6.438   5.754 -0.3373  0.1126  1.5888
  351TIP3    H222545   0.211   6.520   5.774 -0.3723  0.9713 -1.6454
  352TIP3   OH222546   0.309   1.882   1.270 -0.3083 -0.2030  0.0345
  352TIP3    H122547   0.244   1.924   1.325 -0.3615 -0.4755  0.1807
  352TIP3    H222548   0.258   1.835   1.203 -0.2720 -0.5935  0.2773
  353TIP3   OH222549   1.732   5.545  15.946 -0.0289  0.0511 -0.7742
  353TIP3    H122550   1.697   5.560  15.858 -2.6028 -0.5059  0.0765
  353TIP3    H222551   1.655   5.544  16.003  1.0597 -3.7325  0.9299
  354TIP3   OH222552   5.988   3.479   5.125 -0.2424  0.4096 -0.9368
  354TIP3    H122553   6.068   3.434   5.153 -1.1806 -0.3388  0.7160
  354TIP3    H222554   5.955   3.426   5.053  0.0322 -0.0744 -0.7137
  355TIP3   OH222555   4.589   6.646   5.472  0.4135  0.2072 -0.0328
  355TIP3    H122556   4.631   6.613   5.551  0.3549  0.3920  0.0764
  355TIP3    H222557   4.525   6.578   5.448  0.6708 -0.0064 -0.1178
  356TIP3   OH222558   3.300   2.380   0.063 -0.2424  0.1563 -0.0475
  356TIP3    H122559   3.376   2.429   0.030 -0.5361  0.6602  0.0120
  356TIP3    H222560   3.303   2.296   0.016  1.4191 -0.6082  1.3076
  357TIP3   OH222561   2.136   5.458   0.533 -0.5030  0.2395  0.3110
  357TIP3    H122562   2.075   5.413   0.474 -1.7271  1.0410  0.9322
  357TIP3    H222563   2.082   5.522   0.578  1.0849  1.9272 -0.0939
  358TIP3   OH222564   4.543   5.549   3.478  0.3362  0.0465 -0.1466
  358TIP3    H122565   4.592   5.473   3.447 -1.2199 -0.3923 -1.7590
  358TIP3    H222566   4.604   5.623   3.471  1.9800 -1.0499  1.7846
  359TIP3   OH222567   5.649   6.734  11.556  0.0239  0.4665 -0.2410
  359TIP3    H122568   5.670   6.666  11.491 -0.1862 -0.5421  0.7062
  359TIP3    H222569   5.644   6.686  11.639  1.1215  1.8393  0.6688
  360TIP3   OH222570   1.890   4.362   2.183  0.1299 -0.1257 -0.8427
  360TIP3    H122571   1.823   4.428   2.202  1.4040  0.6987  1.1794
  360TIP3    H222572   1.884   4.301   2.257  2.5829  0.8494  0.2588
  361TIP3   OH222573   2.311   5.506   0.827  0.8094 -0.0971 -0.3192
  361TIP3    H122574   2.371   5.444   0.870  0.1700 -0.4325  0.1066
  361TIP3    H222575   2.297   5.574   0.893  2.0893  0.9119 -1.0453
  362TIP3   OH222576   2.876   4.704  13.030  0.2009  0.5083 -0.4506
  362TIP3    H122577   2.799   4.695  12.975 -0.6094  0.6704  0.6122
  362TIP3    H222578   2.861   4.784  13.080  0.8958  0.3646  0.0114
  363TIP3   OH222579   5.913   6.585   5.354  1.0104 -0.2506 -0.0227
  363TIP3    H122580   5.906   6.656   5.418 -1.0038  0.1476 -0.6257
  363TIP3    H222581   5.934   6.629   5.271  0.9354 -0.4708 -0.1607
  364TIP3   OH222582   2.331   6.284   0.658 -0.0929  0.3046 -0.0160
  364TIP3    H122583   2.348   6.233   0.578  0.2278 -3.1185  2.0078
  364TIP3    H222584   2.416   6.289   0.702 -0.3475  1.7450  0.3630
  365TIP3   OH222585   2.445   3.403   4.865  0.4685  0.1276 -0.4819
  365TIP3    H122586   2.388   3.479   4.878 -0.6024 -0.6128 -0.7891
  365TIP3    H222587   2.534   3.440   4.868  0.0033  1.2495  0.2882
  366TIP3   OH222588   0.384   3.017   3.462 -0.2202  0.2681  0.8646
  366TIP3    H122589   0.412   2.926   3.451  0.3685  0.5279  0.1491
  366TIP3    H222590   0.347   3.020   3.551 -1.8369 -1.0736  0.2943
  367TIP3   OH222591   4.294   2.372   1.320 -0.1921 -0.1896  0.9370
  367TIP3    H122592   4.275   2.334   1.234  0.8080  0.4497  0.4026
  367TIP3    H222593   4.247   2.455   1.320 -0.6762 -0.4614  1.2542
  368TIP3   OH222594   3.941   2.363   1.620  0.0971  0.3096  0.1964
  368TIP3    H122595   3.858   2.368   1.668  0.1007 -0.1674  0.2499
  368TIP3    H222596   3.916   2.363   1.528 -0.1874 -3.0381  0.1688
  369TIP3   OH222597   4.936   3.389  11.836 -0.5456  0.0176 -0.1269
  369TIP3    H122598   4.996   3.448  11.792  0.5911 -0.0727  1.2492
  369TIP3    H222599   4.855   3.395  11.786  0.6803 -0.0917 -2.2097
  370TIP3   OH222600   6.237   4.808   2.208  0.1636  0.3347  0.2848
  370TIP3    H122601   6.216   4.715   2.221 -1.2323  0.6531  0.5364
  370TIP3    H222602   6.204   4.828   2.121 -1.8105  1.1536  1.1658
  371TIP3   OH222603   4.548   1.010  17.106 -0.7697 -0.5656 -0.6893
  371TIP3    H122604   4.581   1.085  17.058  0.5824 -0.1961  0.7188
  371TIP3    H222605   4.626   0.957  17.125 -0.9569  0.0339  2.2602
  372TIP3   OH222606   4.499   5.187   0.920  0.3719 -0.5269 -0.3235
  372TIP3    H122607   4.435   5.179   0.849  0.0323 -1.8695  0.0929
  372TIP3    H222608   4.515   5.097   0.947  0.6607 -0.0570  1.1525
  373TIP3   OH222609   2.818   0.063   0.865 -0.5760 -0.5751 -0.3801
  373TIP3    H122610   2.842   0.144   0.910 -0.2407 -0.1458 -1.3100
  373TIP3    H222611   2.752   0.089   0.801 -0.4487 -1.0316 -0.7000
  374TIP3   OH222612   0.677   0.261  13.392  0.3132 -0.3829  0.1442
  374TIP3    H122613   0.673   0.250  13.297 -0.2490  1.0830 -0.0272
  374TIP3    H222614   0.638   0.181  13.427 -1.1687 -0.1601 -0.9117
  375TIP3   OH222615   6.434   3.779   4.730  0.5398  0.8496  0.4604
  375TIP3    H122616   6.431   3.857   4.786  2.4401  0.0453  1.7833
  375TIP3    H222617   6.343   3.750   4.726  0.2082  1.3943  2.5206
  376TIP3   OH222618   0.898   2.151  12.513  0.3973  0.3506  0.1740
  376TIP3    H122619   0.866   2.186  12.430  0.8728 -1.6645 -0.9285
  376TIP3    H222620   0.819   2.129  12.562  0.0499 -0.8474 -0.8548
  377TIP3   OH222621   0.274   5.373  15.950  0.0270 -0.4850 -0.2080
  377TIP3    H122622   0.186   5.335  15.946 -0.0864 -0.1225 -1.8670
  377TIP3    H222623   0.261   5.465  15.973  0.0480 -0.6318  0.4060
  378TIP3   OH222624   2.061   4.174  13.100 -0.1996 -0.7993  0.0387
  378TIP3    H122625   1.971   4.157  13.071 -0.6794  3.6357 -2.0553
  378TIP3    H222626   2.115   4.131  13.034 -1.0113  0.2069 -1.3495
  379TIP3   OH222627   2.117   0.207   4.887 -0.2786  0.7470 -0.0926
  379TIP3    H122628   2.052   0.145   4.855 -0.7974  1.5433 -0.6113
  379TIP3    H222629   2.201   0.163   4.872 -0.6129  0.3495 -0.8701
  380TIP3   OH222630   2.648   4.153  16.859  0.1342 -0.2472 -0.0372
  380TIP3    H122631   2.594   4.230  16.876  1.2473  0.7148 -0.6594
  380TIP3    H222632   2.735   4.189  16.838  1.9073 -1.7675  3.8002
  381TIP3   OH222633   1.539   6.225   2.503  0.3025 -0.0332  0.3739
  381TIP3    H122634   1.535   6.316   2.530 -1.1702  0.4008 -1.1820
  381TIP3    H222635   1.539   6.176   2.586  0.2166  1.3408  1.2170
  382TIP3   OH222636   6.670   1.386   4.506  0.3656  0.5094  0.1551
  382TIP3    H122637   6.728   1.359   4.577  0.6325  1.1860  0.1994
  382TIP3    H222638   6.602   1.318   4.504  3.2551 -2.6819 -2.5754
  383TIP3   OH222639   0.938   5.314   4.603 -0.2603  0.0642 -0.0498
  383TIP3    H122640   0.974   5.251   4.540 -1.2405 -0.5106 -0.0576
  383TIP3    H222641   0.924   5.263   4.682  0.5438  0.6855  0.5095
  384TIP3   OH222642   1.709   2.839  15.375  0.0292 -0.3301  0.3174
  384TIP3    H122643   1.684   2.792  15.295  1.8571 -0.4070 -0.2634
  384TIP3    H222644   1.635   2.826  15.435 -0.9293 -1.1511 -0.9853
  385TIP3   OH222645   6.351   1.646   5.905 -0.0601 -0.2677  0.0586
  385TIP3    H122646   6.288   1.717   5.915 -1.0255 -1.2994  1.8011
  385TIP3    H222647   6.380   1.627   5.994  2.1605 -0.3608 -0.6220
  386TIP3   OH222648   3.330   3.029   1.750  0.2860  0.2022 -0.7968
  386TIP3    H122649   3.263   2.974   1.708 -1.3179  0.8321  0.8087
  386TIP3    H222650   3.372   2.971   1.814 -0.5463  0.4765  0.0183
  387TIP3   OH222651   6.142   0.477   3.573 -0.0976  0.3320 -0.3209
  387TIP3    H122652   6.207   0.433   3.628 -1.3144 -1.2165 -0.0557
  387TIP3    H222653   6.061   0.473   3.624 -0.4477  2.1341 -0.6909
  388TIP3   OH222654   6.276   2.226  13.272  0.3446  0.3689 -0.3994
  388TIP3    H122655   6.318   2.278  13.341  3.1717 -0.6079 -1.2585
  388TIP3    H222656   6.298   2.271  13.191 -0.2303 -0.2276 -0.8956
  389TIP3   OH222657   2.289   3.173   2.929  0.5893 -0.1065  0.0276
  389TIP3    H122658   2.317   3.168   2.837  1.5946  1.2749  0.2291
  389TIP3    H222659   2.351   3.118   2.976  1.5734  1.0664  0.1593
  390TIP3   OH222660   5.373   2.204   3.629  0.2296  0.0082 -0.2341
  390TIP3    H122661   5.430   2.186   3.554 -0.6450 -0.3885 -0.8306
  390TIP3    H222662   5.292   2.235   3.589  0.3055  1.3701  0.6329
  391TIP3   OH222663   4.378   3.995   0.830 -0.0648 -0.1230  0.0153
  391TIP3    H122664   4.334   3.997   0.745 -0.4890 -0.3567  0.2239
  391TIP3    H222665   4.324   3.937   0.884 -0.2940  0.7099  0.7124
  392TIP3   OH222666   2.320   4.748  12.716 -0.5530 -0.2844 -0.8237
  392TIP3    H122667   2.319   4.689  12.641  2.2289  0.7064 -1.7791
  392TIP3    H222668   2.313   4.835  12.678  0.7301  0.2271  0.0297
  393TIP3   OH222669   4.242   6.217  16.211  0.0155  0.2114  0.3725
  393TIP3    H122670   4.269   6.261  16.292 -0.4544  2.5486 -0.6414
  393TIP3    H222671   4.167   6.163  16.237  1.3679 -1.0170  1.9080
  394TIP3   OH222672   5.661   1.235   3.064 -0.0566 -0.3853 -0.3197
  394TIP3    H122673   5.598   1.295   3.104 -0.8625 -0.1914 -1.8173
  394TIP3    H222674   5.661   1.258   2.971  1.1197 -1.3829 -0.5986
  395TIP3   OH222675   6.401   1.932   1.664  0.2859  0.4080  0.2823
  395TIP3    H122676   6.403   1.985   1.585 -0.7128  0.3900  0.2346
  395TIP3    H222677   6.493   1.913   1.683  0.5132 -0.2140 -1.2970
  396TIP3   OH222678   5.470   2.136  14.472  0.5486 -0.1218 -0.4739
  396TIP3    H122679   5.545   2.082  14.499  0.1516 -1.2434 -1.5035
  396TIP3    H222680   5.395   2.078  14.483  0.1303  0.1314 -1.8230
  397TIP3   OH222681   6.082   1.552   1.542 -0.6649  0.2413 -0.4500
  397TIP3    H122682   6.070   1.597   1.625 -0.2971 -0.0149 -0.2535
  397TIP3    H222683   6.009   1.580   1.488 -2.5591 -1.7205  0.9042
  398TIP3   OH222684   2.998   0.028   0.587 -0.7321 -0.2646 -0.0595
  398TIP3    H122685   2.920   0.067   0.626 -0.4645  0.0528  0.1633
  398TIP3    H222686   3.007  -0.057   0.631  0.1896  0.5454  1.3946
  399TIP3   OH222687   0.177   3.231   2.109  0.2960  0.2096  0.2902
  399TIP3    H122688   0.246   3.172   2.078  0.0115  0.5604 -1.0721
  399TIP3    H222689   0.100   3.207   2.058 -0.6162 -0.1657  1.7804
  400TIP3   OH222690   2.953   5.977   2.303  0.6078  0.3925 -0.0623
  400TIP3    H122691   2.906   5.894   2.305 -0.6142  1.0523  1.4461
  400TIP3    H222692   2.890   6.040   2.339  1.2877  2.0855 -1.6901
  401TIP3   OH222693   0.329   1.843  12.236  0.0461 -0.3914 -0.1989
  401TIP3    H122694   0.261   1.872  12.297 -0.2715  0.5040 -0.9365
  401TIP3    H222695   0.306   1.887  12.153  0.8348 -1.0447 -0.7775
  402TIP3   OH222696   5.103   3.607   1.098 -0.2186  0.1963  0.3617
  402TIP3    H122697   5.095   3.659   1.178  0.4092 -0.0982  0.6249
  402TIP3    H222698   5.197   3.589   1.090 -0.2913  0.1029 -0.3662
  403TIP3   OH222699   1.667   3.564  16.908  0.0587 -0.0223 -0.2580
  403TIP3    H122700   1.656   3.635  16.844  1.5679  1.4603  1.0164
  403TIP3    H222701   1.733   3.597  16.969 -0.0198 -2.1006  1.0523
  404TIP3   OH222702   1.094   5.830  15.882 -0.0409  0.0481 -0.7473
  404TIP3    H122703   1.006   5.832  15.920 -0.1383 -2.7993 -0.5857
  404TIP3    H222704   1.152   5.814  15.956  0.5874  1.3082 -0.9399
  405TIP3   OH222705   1.422   0.297   0.973 -0.4601 -0.4574 -0.2977
  405TIP3    H122706   1.513   0.270   0.963 -0.3058  0.4024 -1.4478
  405TIP3    H222707   1.422   0.355   1.050 -0.1514 -0.9268  0.0572
  406TIP3   OH222708   0.233   0.195  12.539 -0.1848  0.7558  0.3201
  406TIP3    H122709   0.211   0.113  12.496 -1.3756  1.6798 -0.9220
  406TIP3    H222710   0.224   0.176  12.632 -0.1311 -0.5998  0.0719
  407TIP3   OH222711   3.942   3.691   2.014  0.1823 -0.0644  0.3568
  407TIP3    H122712   3.927   3.693   1.919 -1.0500  1.1607  0.5505
  407TIP3    H222713   4.019   3.747   2.026  0.0636  0.1524  0.1263
  408TIP3   OH222714   2.271   4.107  15.031 -0.0463 -0.5088 -0.0100
  408TIP3    H122715   2.320   4.086  14.951 -0.4074  0.1165 -0.4031
  408TIP3    H222716   2.276   4.202  15.038  0.5807 -0.6071  1.1066
  409TIP3   OH222717   6.076   0.716  13.235  0.5435 -0.0469 -0.3029
  409TIP3    H122718   6.005   0.700  13.297 -0.0819 -0.2041 -1.0475
  409TIP3    H222719   6.044   0.681  13.152  0.6429  1.7154 -1.1357
  410TIP3   OH222720   3.540   5.078   3.822  0.3691  0.5620  0.1986
  410TIP3    H122721   3.537   5.138   3.896 -0.2665  0.5997  0.1508
  410TIP3    H222722   3.468   5.016   3.838 -0.7167  1.4205 -1.0784
  411TIP3   OH222723   6.263   5.792   5.330  0.2178  0.4506  0.5620
  411TIP3    H122724   6.350   5.766   5.361 -0.0705 -0.9637  0.2590
  411TIP3    H222725   6.205   5.721   5.359 -0.6414  0.8027 -0.2310
  412TIP3   OH222726   2.847   5.080  11.018 -0.2681  0.0907  0.0279
  412TIP3    H122727   2.809   4.995  10.993  0.3160 -0.6627  1.5562
  412TIP3    H222728   2.772   5.140  11.021 -0.8682 -0.6387  0.0110
  413TIP3   OH222729   2.849   2.348   1.665 -0.0978  0.0930  0.0375
  413TIP3    H122730   2.905   2.356   1.743 -0.7425  0.3165  0.4803
  413TIP3    H222731   2.844   2.253   1.650  0.6492  0.0828 -0.1903
  414TIP3   OH222732   2.552   6.805   3.865 -0.1391  0.0054 -0.2700
  414TIP3    H122733   2.567   6.737   3.931 -0.5568 -0.4856 -0.6688
  414TIP3    H222734   2.636   6.849   3.856  0.4463 -1.1806 -0.7958
  415TIP3   OH222735   1.471   3.745  12.894 -0.6927  0.2058  0.0523
  415TIP3    H122736   1.504   3.828  12.860  0.7737 -0.5130 -0.3806
  415TIP3    H222737   1.420   3.709  12.821  1.3638 -0.7267 -1.0130
  416TIP3   OH222738   1.263   1.250   1.319 -0.6865  0.2253 -0.0461
  416TIP3    H122739   1.323   1.203   1.377  0.9595  1.7360 -0.4449
  416TIP3    H222740   1.280   1.213   1.232  0.4577  1.3406 -0.3255
  417TIP3   OH222741   3.262   6.764  14.257  0.0494  0.2016 -0.2348
  417TIP3    H122742   3.178   6.739  14.218  0.2555  1.4255 -1.5390
  417TIP3    H222743   3.290   6.686  14.305 -1.4415 -0.4975 -0.4450
  418TIP3   OH222744   4.709   6.553   1.269 -0.8214  0.4410 -0.1632
  418TIP3    H122745   4.744   6.535   1.181 -1.4228 -0.8250 -0.1670
  418TIP3    H222746   4.698   6.466   1.308  1.0532  1.0205  1.8335
  419TIP3   OH222747   2.301   6.658  12.496  0.4634 -0.5876 -0.3914
  419TIP3    H122748   2.349   6.658  12.414  1.9198  1.3783  0.3945
  419TIP3    H222749   2.364   6.629  12.561  0.2097  0.6591  0.4496
  420TIP3   OH222750   2.949   2.661  16.534  0.0598  0.3326 -0.1290
  420TIP3    H122751   3.006   2.737  16.523  0.6913  0.7134  4.2389
  420TIP3    H222752   3.008   2.586  16.538 -0.0487  0.3016  0.9769
  421TIP3   OH222753   2.750   3.757  15.771 -0.0810 -0.2947  0.3716
  421TIP3    H122754   2.709   3.738  15.856 -3.5179  1.0158 -0.8472
  421TIP3    H222755   2.786   3.845  15.781  1.0142 -0.7782  0.9098
  422TIP3   OH222756   0.682   3.702   4.771 -0.3143 -0.2534 -0.7454
  422TIP3    H122757   0.604   3.649   4.783 -0.7487  0.6187  0.4578
  422TIP3    H222758   0.713   3.679   4.684 -0.2540 -2.7461 -0.1381
  423TIP3   OH222759   4.277   0.873  15.979 -0.1104 -0.3671 -0.7466
  423TIP3    H122760   4.200   0.920  16.011  0.4671 -0.4503  0.8102
  423TIP3    H222761   4.277   0.790  16.027  0.8620 -0.4348 -0.8486
  424TIP3   OH222762   4.298   0.481   5.483  0.6384  0.5567 -0.5453
  424TIP3    H122763   4.212   0.487   5.524  0.6591 -1.3785 -0.1392
  424TIP3    H222764   4.286   0.522   5.397 -0.2355  1.7900  0.1387
  425TIP3   OH222765   4.703   0.941  15.897  0.3006  0.4290  0.2771
  425TIP3    H122766   4.649   0.998  15.842  0.5784  0.3473 -0.0891
  425TIP3    H222767   4.659   0.857  15.895  1.3075 -0.1010 -1.3976
  426TIP3   OH222768   6.242   0.282  15.909 -0.2557  0.4372 -0.5534
  426TIP3    H122769   6.292   0.281  15.827 -2.3939 -0.6375 -1.9345
  426TIP3    H222770   6.282   0.214  15.963  0.7800  0.7244 -0.9418
  427TIP3   OH222771   3.071   3.472  12.359  0.1479 -0.9946 -0.6004
  427TIP3    H122772   3.161   3.442  12.373 -0.4378 -2.9932 -0.7979
  427TIP3    H222773   3.060   3.472  12.264  0.7980  2.1655 -0.7857
  428TIP3   OH222774   1.305   5.384   6.084 -0.0312  0.4591 -0.0745
  428TIP3    H122775   1.326   5.364   5.993  1.9175 -0.3226  0.4859
  428TIP3    H222776   1.216   5.351   6.096  0.0828 -0.4092 -1.4165
  429TIP3   OH222777   0.222   3.906  16.290 -0.4179  0.3456 -0.3979
  429TIP3    H122778   0.173   3.956  16.224 -0.3378  0.8302 -0.0973
  429TIP3    H222779   0.206   3.815  16.267 -0.0877  0.5068 -1.3144
  430TIP3   OH222780   6.244   1.928   2.588 -0.5480 -0.1552  0.1012
  430TIP3    H122781   6.294   1.878   2.524  1.0550  1.8565 -0.3562
  430TIP3    H222782   6.312   1.970   2.642 -1.8081  0.9148  0.9046
  431TIP3   OH222783   4.286   5.306   0.711  0.0643  0.1000  0.2106
  431TIP3    H122784   4.233   5.275   0.785  0.9412 -0.4984  0.6035
  431TIP3    H222785   4.297   5.399   0.726 -0.0205  0.0367  0.6744
  432TIP3   OH222786   1.301   2.907  10.365 -0.1501 -0.0225 -0.2644
  432TIP3    H122787   1.345   2.948  10.439  0.9187  0.7478 -1.3023
  432TIP3    H222788   1.265   2.980  10.314 -0.3452 -0.5036 -0.8362
  433TIP3   OH222789   0.762   5.324  16.716  0.3434  0.0696 -0.3519
  433TIP3    H122790   0.751   5.230  16.733  1.4316 -0.2870 -1.4816
  433TIP3    H222791   0.804   5.328  16.630 -0.1437  1.6165 -0.5379
  434TIP3   OH222792   1.649   6.571  11.996 -0.2582  0.2111  0.4646
  434TIP3    H122793   1.595   6.631  12.047 -1.6556 -2.0200  1.7487
  434TIP3    H222794   1.734   6.615  11.989 -0.6021  1.4471  3.0823
  435TIP3   OH222795   4.311   1.189   1.259  0.3112  0.0185  0.2422
  435TIP3    H122796   4.359   1.130   1.318 -0.1384  0.0191  0.6169
  435TIP3    H222797   4.222   1.188   1.293 -0.0558 -0.3114 -0.7019
  436TIP3   OH222798   6.394   4.568  15.151  0.3921 -0.1394  0.8350
  436TIP3    H122799   6.312   4.604  15.115  1.5282  0.0388 -1.7323
  436TIP3    H222800   6.371   4.480  15.179 -0.2672 -0.9089 -1.8618
  437TIP3   OH222801   4.062   0.282   0.396 -0.3627  0.0062  0.1457
  437TIP3    H122802   4.114   0.295   0.475  0.3254 -0.9451 -0.1331
  437TIP3    H222803   3.994   0.349   0.401 -0.1514  0.1532  1.3913
  438TIP3   OH222804   2.608   2.823   0.931 -0.0088 -0.4644  0.6656
  438TIP3    H122805   2.649   2.744   0.966 -0.8920 -0.6161  1.3903
  438TIP3    H222806   2.579   2.871   1.009 -2.5650 -1.0889  0.1818
  439TIP3   OH222807   2.327   6.676   1.388 -0.2006 -0.4556  0.5229
  439TIP3    H122808   2.355   6.669   1.296  1.4551 -1.0609  1.0399
  439TIP3    H222809   2.274   6.599   1.403 -1.3601  0.1707 -0.1909
  440TIP3   OH222810   4.840   3.614   5.084 -0.3400  0.3503 -0.3583
  440TIP3    H122811   4.821   3.525   5.054  1.3124  0.0693 -0.6655
  440TIP3    H222812   4.823   3.612   5.178  1.9170 -1.0041  0.0876
  441TIP3   OH222813   5.669   6.612  11.805  0.7130 -0.3323 -0.2021
  441TIP3    H122814   5.630   6.656  11.880  0.6441  0.6876 -0.8115
  441TIP3    H222815   5.643   6.520  11.814 -3.3505  0.5062 -1.4569
  442TIP3   OH222816   1.490   5.845   2.860  0.3998  0.5653 -0.0344
  442TIP3    H122817   1.474   5.774   2.798 -1.0093  0.2456  0.6534
  442TIP3    H222818   1.496   5.801   2.945  0.3620  1.1910  0.2959
  443TIP3   OH222819   2.350   4.313   5.165 -0.1357  0.2668  0.3222
  443TIP3    H122820   2.303   4.353   5.238 -0.4122  0.1404  0.2163
  443TIP3    H222821   2.293   4.327   5.090 -1.1346 -1.9048  0.5831
  444TIP3   OH222822   3.505   2.416  13.969 -0.4707 -0.3536 -0.0523
  444TIP3    H122823   3.550   2.438  13.887 -0.8293  0.3907 -0.0480
  444TIP3    H222824   3.413   2.438  13.953 -0.6299 -0.6844  0.3827
  445TIP3   OH222825   5.449   2.195  11.980  0.8177 -0.3289 -0.0540
  445TIP3    H122826   5.458   2.290  11.973  0.7162 -0.3986 -1.4604
  445TIP3    H222827   5.532   2.166  12.019  1.6557  0.1840 -1.3715
  446TIP3   OH222828   5.389   2.967   3.716 -0.2140 -0.2704  0.0767
  446TIP3    H122829   5.343   3.036   3.763 -1.8514 -1.9174  1.0425
  446TIP3    H222830   5.447   3.013   3.656  0.7018  1.9398  2.4709
  447TIP3   OH222831   4.820   0.663   0.934  0.3568  0.2085 -0.2529
  447TIP3    H122832   4.733   0.637   0.967  0.8121  2.4557  3.3494
  447TIP3    H222833   4.804   0.690   0.844 -2.4329 -0.5750 -0.1018
  448TIP3   OH222834   1.221   6.848   5.422 -0.4976 -0.7054  0.2781
  448TIP3    H122835   1.222   6.918   5.357 -1.1190 -1.5277 -0.6394
  448TIP3    H222836   1.237   6.893   5.505 -1.4573  0.5993 -0.2086
  449TIP3   OH222837   6.387   0.811  17.144  0.5674 -0.1342  0.2263
  449TIP3    H122838   6.315   0.766  17.100  0.9147  0.1329 -0.6177
  449TIP3    H222839   6.381   0.781  17.235  0.8805 -1.9969 -0.3362
  450TIP3   OH222840   4.682   4.742  11.318  0.6750  0.4247  0.0668
  450TIP3    H122841   4.617   4.765  11.251  2.2722  1.0692 -1.3210
  450TIP3    H222842   4.708   4.826  11.356  0.7272  0.1728  0.5932
  451TIP3   OH222843   6.400   4.663   1.622 -0.7196 -0.1988  0.0487
  451TIP3    H122844   6.307   4.648   1.640 -0.9373  0.5503 -0.4123
  451TIP3    H222845   6.439   4.575   1.626 -1.0064 -0.2796  2.5858
  452TIP3   OH222846   6.453   5.168   3.837 -0.5225 -0.3448 -0.0690
  452TIP3    H122847   6.499   5.140   3.916  1.2088 -0.7633 -1.1761
  452TIP3    H222848   6.362   5.178   3.865 -0.6184 -3.5705  1.2710
  453TIP3   OH222849   4.347   3.310  16.749  0.4879  0.4876  0.2078
  453TIP3    H122850   4.385   3.233  16.706 -0.5818 -0.3022  0.6247
  453TIP3    H222851   4.356   3.380  16.685  3.0108  0.4874  0.4425
  454TIP3   OH222852   5.082   2.365  11.778  0.5583  0.4886 -0.2362
  454TIP3    H122853   4.995   2.342  11.747  0.0251  1.5868  0.3797
  454TIP3    H222854   5.074   2.457  11.805  2.1347  0.8881 -1.0180
  455TIP3   OH222855   2.984   2.735   3.776 -0.2840 -0.2029 -0.1316
  455TIP3    H122856   3.060   2.677   3.778  0.6092  0.8884 -0.7778
  455TIP3    H222857   2.954   2.740   3.867  0.8068 -0.1776  0.2365
  456TIP3   OH222858   1.918   2.942   3.757  0.0098  0.2130 -0.0543
  456TIP3    H122859   1.974   2.902   3.690 -0.7505  0.6412 -0.9790
  456TIP3    H222860   1.973   3.009   3.798  0.8397 -0.8088  0.5341
  457TIP3   OH222861   2.994   1.409   3.683 -0.4012  0.0403 -0.7108
  457TIP3    H122862   2.919   1.399   3.625 -1.0481  2.2564 -0.3432
  457TIP3    H222863   3.003   1.504   3.695  0.4427 -0.2914  1.8655
  458TIP3   OH222864   0.238   0.943  11.510 -0.2037  0.4428  0.0230
  458TIP3    H122865   0.159   0.992  11.488 -0.1903  0.6091  0.3444
  458TIP3    H222866   0.291   1.004  11.561 -0.8193 -0.3480  1.6816
  459TIP3   OH222867   4.750   0.581  12.256 -0.1412 -0.5305 -0.4137
  459TIP3    H122868   4.748   0.571  12.351  0.9436 -3.1775 -0.5933
  459TIP3    H222869   4.842   0.574  12.232  0.0058  2.9150 -1.5444
  460TIP3   OH222870   4.405   4.927   0.719 -0.3179 -0.0886  0.5131
  460TIP3    H122871   4.324   4.881   0.696  0.9936 -2.3778  0.1530
  460TIP3    H222872   4.433   4.968   0.638 -0.1673 -0.8830  0.1507
  461TIP3   OH222873   6.052   6.321   5.913 -0.2189 -0.3100  0.1328
  461TIP3    H122874   5.973   6.281   5.949 -2.2762  1.2780 -2.2759
  461TIP3    H222875   6.076   6.388   5.977  1.3911 -3.0189  2.6041
  462TIP3   OH222876   0.020   4.590  14.351  0.6989  0.1116  0.2103
  462TIP3    H122877   0.020   4.617  14.442  0.8182 -0.0458  0.2569
  462TIP3    H222878   0.063   4.505  14.351  0.8416  0.1817 -0.0129
  463TIP3   OH222879   1.404   0.059  14.537 -0.0399 -0.4345  0.5335
  463TIP3    H122880   1.481   0.057  14.594 -0.7622  1.5050  1.6877
  463TIP3    H222881   1.394  -0.031  14.506  2.2349 -0.8764  0.9360
  464TIP3   OH222882   4.959   4.683   5.404  0.2745 -0.3213  1.0754
  464TIP3    H122883   4.940   4.591   5.424  2.8683 -1.6151 -1.6221
  464TIP3    H222884   5.039   4.701   5.452 -1.3882  1.4052  3.4107
  465TIP3   OH222885   0.965   2.924  10.732 -0.0719 -0.3338  0.4120
  465TIP3    H122886   0.997   2.907  10.643  1.4879 -0.0034  0.9004
  465TIP3    H222887   0.869   2.918  10.723  0.0625 -0.6753 -1.2064
  466TIP3   OH222888   5.392   5.241  13.090  0.7986 -0.2201  0.0876
  466TIP3    H122889   5.313   5.260  13.040  0.2469  0.1053  1.0489
  466TIP3    H222890   5.367   5.168  13.147  1.6594 -1.1262 -0.6646
  467TIP3   OH222891   5.675   6.174  15.044 -0.4829 -0.2061 -0.1359
  467TIP3    H122892   5.619   6.123  15.103 -0.5307  2.1972  2.0250
  467TIP3    H222893   5.702   6.250  15.095  1.5453  0.7510 -2.4381
  468TIP3   OH222894   1.234   5.876   3.060 -0.0206 -0.2337  0.3987
  468TIP3    H122895   1.287   5.802   3.088  0.2580 -0.3656 -0.4512
  468TIP3    H222896   1.220   5.862   2.966 -0.6892  0.3375  0.4072
  469TIP3   OH222897   4.317   3.325   2.982  0.0621  0.0436  0.0164
  469TIP3    H122898   4.360   3.386   3.041  0.1434 -0.1855  0.1940
  469TIP3    H222899   4.350   3.239   3.007 -0.0856 -0.0790 -0.2026
  470TIP3   OH222900   3.893   3.514  17.072  0.1101  0.0577 -0.1013
  470TIP3    H122901   3.916   3.600  17.036 -3.2129  0.3727 -1.8664
  470TIP3    H222902   3.877   3.459  16.995 -2.1407 -0.8074  0.9089
  471TIP3   OH222903   1.381   2.341  11.797  0.3397 -0.0907  0.0984
  471TIP3    H122904   1.456   2.372  11.847  0.5768 -1.3171  0.5554
  471TIP3    H222905   1.420   2.296  11.721  0.1655 -2.1114  1.1528
  472TIP3   OH222906   5.469   5.808   5.569 -0.1782  0.6327  0.0895
  472TIP3    H122907   5.380   5.819   5.537 -0.3727  1.8718  0.9469
  472TIP3    H222908   5.471   5.720   5.605  0.0240 -0.7776 -3.0770
  473TIP3   OH222909   3.065   3.277   5.464  0.0923  0.1052 -0.1807
  473TIP3    H122910   3.078   3.310   5.553 -1.0253  0.1358 -0.0055
  473TIP3    H222911   3.120   3.332   5.409 -0.0132  0.7809  0.3819
  474TIP3   OH222912   2.111   5.377   3.139  0.6227 -0.5936 -0.1869
  474TIP3    H122913   2.034   5.359   3.194  1.8838  0.2660  1.9960
  474TIP3    H222914   2.103   5.316   3.066 -2.6546  0.1566 -0.6206
  475TIP3   OH222915   3.287   6.488   2.066 -0.2712  0.1435  0.5477
  475TIP3    H122916   3.210   6.504   2.120  0.2981  0.0243  1.4199
  475TIP3    H222917   3.285   6.394   2.049  0.4230 -0.1072  1.7565
  476TIP3   OH222918   2.326   5.052   3.428 -0.4727  0.0222  0.0955
  476TIP3    H122919   2.253   5.040   3.367 -0.6110 -2.1975  0.5864
  476TIP3    H222920   2.285   5.040   3.515  0.1734  0.4798  0.4649
  477TIP3   OH222921   2.316   0.588   4.561 -0.0151  0.2338 -0.7091
  477TIP3    H122922   2.262   0.514   4.590 -0.8691  1.3679  0.7029
  477TIP3    H222923   2.393   0.586   4.618  1.1005 -0.8537 -2.1466
  478TIP3   OH222924   5.361   1.341   0.716  0.5815  0.0557  0.0947
  478TIP3    H122925   5.343   1.433   0.735  1.3777  0.1688  0.3201
  478TIP3    H222926   5.412   1.311   0.791  0.6708 -0.4606 -0.1739
  479TIP3   OH222927   4.456   1.482  12.527 -0.4080  0.0662 -0.0408
  479TIP3    H122928   4.495   1.399  12.553 -0.9042 -0.8544 -2.0458
  479TIP3    H222929   4.409   1.512  12.605  0.6124 -1.0083  1.0331
  480TIP3   OH222930   1.135   6.587   2.013 -0.0781  0.1210 -0.0000
  480TIP3    H122931   1.153   6.623   1.926 -0.2721  2.1878  0.7579
  480TIP3    H222932   1.193   6.510   2.019  0.7200  0.5529 -1.5422
  481TIP3   OH222933   0.858   1.267  12.513 -0.1760  0.0596  0.1115
  481TIP3    H122934   0.848   1.183  12.557  1.0005 -0.1324  0.0382
  481TIP3    H222935   0.790   1.267  12.446  0.9214 -1.6182 -1.0747
  482TIP3   OH222936   5.608   1.451   1.695  0.5206  0.6152 -0.5855
  482TIP3    H122937   5.583   1.394   1.768  1.4617  1.2881  0.2810
  482TIP3    H222938   5.646   1.392   1.630 -1.0438 -0.1013 -0.9070
  483TIP3   OH222939   2.259   5.667  16.282  0.1115 -0.2854  0.4849
  483TIP3    H122940   2.204   5.719  16.340  0.0926 -0.0602  0.2672
  483TIP3    H222941   2.201   5.599  16.248 -0.0845  0.0682  0.1049
  484TIP3   OH222942   5.817   1.594   6.398 -0.6679 -0.4900  0.7088
  484TIP3    H122943   5.838   1.686   6.413  0.1317 -0.8109  1.7007
  484TIP3    H222944   5.889   1.561   6.344 -0.5089 -0.7283  1.0617
  485TIP3   OH222945   3.776   4.830   1.899 -0.0419  0.0555  0.0316
  485TIP3    H122946   3.684   4.834   1.873 -0.0810  1.6994  0.3642
  485TIP3    H222947   3.798   4.919   1.927  1.2100 -0.6628  1.4836
  486TIP3   OH222948   1.855   2.048   4.187  0.6951 -0.1158 -0.7357
  486TIP3    H122949   1.949   2.062   4.201  0.4830 -0.1477  1.0098
  486TIP3    H222950   1.824   2.012   4.270 -1.1303  1.2048 -0.7783
  487TIP3   OH222951   3.006   2.464   4.262 -0.5890 -0.6338  0.4052
  487TIP3    H122952   3.015   2.407   4.338  1.2608 -0.1716  0.5981
  487TIP3    H222953   2.954   2.538   4.293  0.0055 -0.5319  1.1973
  488TIP3   OH222954   1.002   4.679   1.211  0.2443 -0.3089 -0.1194
  488TIP3    H122955   1.058   4.750   1.177  0.7224 -0.6993 -0.1584
  488TIP3    H222956   1.056   4.634   1.275 -0.3930 -0.0614  0.6010
  489TIP3   OH222957   1.325   4.115  12.856 -0.2388 -0.0303  1.0341
  489TIP3    H122958   1.395   4.053  12.839  1.1559  1.1557  2.1748
  489TIP3    H222959   1.307   4.106  12.950 -0.3876  0.9124  1.1083
  490TIP3   OH222960   3.064   5.949   4.326 -0.3120 -0.5982 -0.2823
  490TIP3    H122961   3.000   5.968   4.394 -0.2630  1.2847 -0.7027
  490TIP3    H222962   3.148   5.976   4.364 -0.3958  1.3403 -1.3530
  491TIP3   OH222963   6.444   5.388  11.947 -0.4673  0.1731 -0.6719
  491TIP3    H122964   6.420   5.413  12.036  1.4902  1.0307 -0.3430
  491TIP3    H222965   6.364   5.400  11.896 -1.5154  0.0404  0.8754
  492TIP3   OH222966   2.963   2.069  16.287 -0.1661 -0.2695 -0.5794
  492TIP3    H122967   2.927   1.990  16.327 -1.6368  0.1803 -0.9678
  492TIP3    H222968   2.913   2.079  16.206  0.5390  0.6355 -0.9162
  493TIP3   OH222969   6.025   5.804  16.256  0.5806 -0.0483 -0.3299
  493TIP3    H122970   5.959   5.855  16.303  0.3460  0.9184 -1.6256
  493TIP3    H222971   6.096   5.792  16.319 -1.3458 -2.4005  1.6071
  494TIP3   OH222972   4.877   2.473  15.843 -0.1404  0.2230  0.6244
  494TIP3    H122973   4.965   2.466  15.878 -0.1587  1.5849  0.9756
  494TIP3    H222974   4.888   2.464  15.748  0.4364  0.8590  0.6259
  495TIP3   OH222975   1.439   2.699   4.077  0.8932 -0.0520  0.3945
  495TIP3    H122976   1.419   2.760   4.006  0.8575 -0.0676  0.3911
  495TIP3    H222977   1.498   2.635   4.037 -0.3836 -0.9986 -0.0665
  496TIP3   OH222978   2.397   3.926   2.029  0.2556  0.2250  0.5584
  496TIP3    H122979   2.372   3.948   2.119 -0.0450  3.0975 -0.1384
  496TIP3    H222980   2.336   3.974   1.974 -0.0433 -2.0388 -1.2690
  497TIP3   OH222981   3.545   2.364  11.852  0.1843  0.3194  0.1028
  497TIP3    H122982   3.570   2.326  11.936 -0.1594  0.5930  0.3333
  497TIP3    H222983   3.617   2.341  11.793 -0.5270 -1.6423 -0.0642
  498TIP3   OH222984   1.072   0.990  13.806  0.2531 -0.3631 -0.3355
  498TIP3    H122985   1.078   1.066  13.865 -1.2256 -1.5401  1.4473
  498TIP3    H222986   1.163   0.965  13.790  0.7801 -0.7731  2.6153
  499TIP3   OH222987   4.199   4.960   0.540 -0.1873 -0.2844 -0.4487
  499TIP3    H122988   4.203   5.056   0.533 -1.0235 -0.1077  1.0265
  499TIP3    H222989   4.111   4.942   0.574 -0.4408 -1.6701 -1.7511
  500TIP3   OH222990   2.013   0.502  16.223 -0.0292 -0.3132  0.1796
  500TIP3    H122991   2.040   0.583  16.178 -0.7790 -0.2707 -0.2027
  500TIP3    H222992   1.918   0.508  16.229 -0.0172 -0.7216  1.0248
  501TIP3   OH222993   6.844   4.625  15.369 -0.3913  0.0312 -0.4641
  501TIP3    H122994   6.756   4.597  15.393 -0.6777  1.1010 -0.2278
  501TIP3    H222995   6.901   4.556  15.404 -1.0484 -0.0652  0.4608
  502TIP3   OH222996   1.221   6.400   0.774 -0.0966  0.5694  0.0277
  502TIP3    H122997   1.185   6.312   0.783 -0.9399  0.8925 -0.0912
  502TIP3    H222998   1.248   6.424   0.863  1.7558 -0.4554 -0.2030
  503TIP3   OH222999   4.720   4.546   2.726 -0.6299 -0.1234 -0.2463
  503TIP3    H123000   4.657   4.514   2.662 -1.1630 -0.3243  0.3747
  503TIP3    H223001   4.698   4.639   2.736 -1.2749 -0.3510  0.4813
  504TIP3   OH223002   4.624   2.768   4.529 -0.0250 -0.8722  0.5084
  504TIP3    H123003   4.554   2.780   4.464 -0.0210  0.1920  0.6919
  504TIP3    H223004   4.594   2.817   4.606  1.3116  0.3510  0.2879
  505TIP3   OH223005   3.516   0.921   1.939 -0.2012 -1.1009  0.1230
  505TIP3    H123006   3.521   0.829   1.964  0.6775 -0.8171  1.0435
  505TIP3    H223007   3.570   0.967   2.004 -2.1623  0.2981  0.8983
  506TIP3   OH223008   4.484   5.094  13.618 -0.3230 -0.1730 -0.2245
  506TIP3    H123009   4.534   5.014  13.634  0.2738  0.5821  1.9832
  506TIP3    H223010   4.398   5.062  13.589  0.0351 -1.6070  0.1923
  507TIP3   OH223011   6.824   2.160  12.129  0.1777 -0.0784  0.2772
  507TIP3    H123012   6.888   2.170  12.200  1.4070  1.0593 -0.9327
  507TIP3    H223013   6.875   2.127  12.055 -1.2591 -2.1581  0.1341
  508TIP3   OH223014   5.019   0.430  10.748 -0.3031  0.3760  0.5448
  508TIP3    H123015   5.105   0.430  10.792 -0.9186  0.1023  1.7806
  508TIP3    H223016   4.978   0.512  10.775  0.3484  1.5110 -1.6935
  509TIP3   OH223017   1.110   4.630   3.054 -0.4048 -0.3272 -0.0232
  509TIP3    H123018   1.127   4.718   3.088 -1.3625 -0.6686  1.4446
  509TIP3    H223019   1.063   4.586   3.125  3.9128 -3.5987  1.2448
  510TIP3   OH223020   3.111   2.315   5.000 -0.3902 -0.2508  0.0912
  510TIP3    H123021   3.155   2.375   5.060  1.9089 -1.6598 -0.0219
  510TIP3    H223022   3.037   2.281   5.050 -0.9016  1.5724  0.6386
  511TIP3   OH223023   4.274   5.873  15.454  0.3306 -0.7600 -0.2222
  511TIP3    H123024   4.260   5.925  15.375 -1.6508 -0.3923  0.3236
  511TIP3    H223025   4.348   5.916  15.498  0.4268 -0.0169 -1.0770
  512TIP3   OH223026   2.737   4.960  13.615 -0.0769  0.2760  0.7207
  512TIP3    H123027   2.705   5.041  13.575 -0.8194  0.2525  1.2671
  512TIP3    H223028   2.800   4.927  13.551 -1.5750  0.0029 -0.6766
  513TIP3   OH223029   0.244   2.005   0.886  1.0909  0.3344  0.1265
  513TIP3    H123030   0.186   2.037   0.956 -0.0453 -0.4662 -0.4202
  513TIP3    H223031   0.244   2.075   0.821  2.4234  1.2370  1.0295
  514TIP3   OH223032   5.488   6.776   3.348  0.2059  0.1354  0.2192
  514TIP3    H123033   5.491   6.846   3.282  0.2740 -1.1174 -1.1678
  514TIP3    H223034   5.443   6.704   3.304  1.2945 -1.1614  1.1484
  515TIP3   OH223035   6.036   5.677  11.476  0.1391  0.0572  0.4689
  515TIP3    H123036   6.104   5.736  11.507  0.7629 -0.8776  0.8991
  515TIP3    H223037   6.055   5.666  11.382 -1.5426  2.5987 -0.2903
  516TIP3   OH223038   3.645   3.321   6.010  0.2446  0.5952  0.2736
  516TIP3    H123039   3.648   3.371   6.091 -1.1892  0.4912  0.4199
  516TIP3    H223040   3.599   3.240   6.032 -0.0222  0.4904 -0.6014
  517TIP3   OH223041   4.985   5.923  14.157 -0.0263  0.2118 -0.1510
  517TIP3    H123042   4.971   6.012  14.189 -3.2874  0.0645 -0.8047
  517TIP3    H223043   5.066   5.928  14.107  0.1911  2.6659  0.3206
  518TIP3   OH223044   1.739   2.510  10.682  0.0562  0.4815  0.2992
  518TIP3    H123045   1.775   2.467  10.759  1.0524 -0.4890 -0.6563
  518TIP3    H223046   1.645   2.492  10.685  0.2110 -0.2671  0.8360
  519TIP3   OH223047   6.294   1.578  13.594  0.1892  0.6864 -0.2253
  519TIP3    H123048   6.285   1.544  13.505 -1.3842 -1.4050  0.6512
  519TIP3    H223049   6.346   1.512  13.639 -2.1445 -0.2226  1.2987
  520TIP3   OH223050   0.024   4.639   1.249  0.5479 -0.2522 -0.2537
  520TIP3    H123051   0.026   4.559   1.195 -0.6324  0.4087 -1.3390
  520TIP3    H223052   0.057   4.707   1.191  0.0732  0.3159  0.1329
  521TIP3   OH223053   6.224   4.417  13.083 -0.5030  0.2182 -0.1948
  521TIP3    H123054   6.264   4.481  13.024 -0.2266  1.1210  0.9316
  521TIP3    H223055   6.131   4.417  13.059 -0.3157  0.1704 -0.9705
  522TIP3   OH223056   3.187   3.685   5.225 -0.9092 -0.0425  0.6121
  522TIP3    H123057   3.254   3.668   5.290 -1.0293  0.1057  0.7754
  522TIP3    H223058   3.206   3.773   5.194  1.0110 -1.1639 -1.7705
  523TIP3   OH223059   3.741   6.702   3.044 -0.0117 -0.0300  0.5458
  523TIP3    H123060   3.646   6.698   3.052 -0.2768 -0.3469 -1.9906
  523TIP3    H223061   3.758   6.792   3.016 -0.0435 -1.0052 -3.0113
  524TIP3   OH223062   0.756   0.548   5.641  0.3548 -0.0817  0.6319
  524TIP3    H123063   0.745   0.620   5.703 -2.1985 -0.4921  0.7557
  524TIP3    H223064   0.669   0.535   5.604  1.4211 -1.0686 -1.7143
  525TIP3   OH223065   5.857   6.167   3.217  0.3333 -0.5374  0.4201
  525TIP3    H123066   5.887   6.154   3.127  0.1194  0.5353  0.1778
  525TIP3    H223067   5.921   6.226   3.255 -0.4372  0.2875  0.4670
  526TIP3   OH223068   0.365   6.138  16.948 -0.7275 -0.4911 -0.8629
  526TIP3    H123069   0.398   6.108  16.863  1.6211  0.3496 -0.3222
  526TIP3    H223070   0.373   6.062  17.005  0.2566 -0.3223 -0.7618
  527TIP3   OH223071   4.683   0.693   3.841  0.4080  0.2761  0.3963
  527TIP3    H123072   4.597   0.730   3.863  1.0995  1.7699  0.6825
  527TIP3    H223073   4.682   0.685   3.745 -0.4072 -0.6984  0.4630
  528TIP3   OH223074   1.178   0.231   5.286  0.3602 -0.1944  0.0648
  528TIP3    H123075   1.236   0.227   5.210 -0.0644 -2.0003 -0.2002
  528TIP3    H223076   1.191   0.319   5.321  0.7836  0.5779 -1.9135
  529TIP3   OH223077   0.806   0.123   3.616 -0.2348  0.2209  0.6014
  529TIP3    H123078   0.729   0.126   3.672 -0.5443  0.2273  0.1801
  529TIP3    H223079   0.784   0.060   3.548 -1.1292  2.4494 -1.3393
  530TIP3   OH223080   4.690   6.252   0.763 -0.2555  0.2716  0.3947
  530TIP3    H123081   4.613   6.196   0.768  0.2710 -0.5041 -0.0482
  530TIP3    H223082   4.757   6.204   0.812  0.6680 -0.2877 -1.3491
  531TIP3   OH223083   3.249   5.380   6.031  0.6386 -0.4291 -0.0848
  531TIP3    H123084   3.320   5.341   5.980  1.1258  1.1609 -0.7062
  531TIP3    H223085   3.293   5.426   6.103  0.4429  1.7105 -1.2337
  532TIP3   OH223086   5.072   5.466   1.319  0.4312  0.1707  0.0173
  532TIP3    H123087   5.079   5.393   1.257  1.6572  1.5849 -1.6017
  532TIP3    H223088   5.120   5.436   1.396  0.1370 -1.0683 -0.2491
  533TIP3   OH223089   4.796   4.769  12.273 -0.1781 -0.2559 -0.7362
  533TIP3    H123090   4.876   4.751  12.321 -0.6904  1.0154  0.6807
  533TIP3    H223091   4.801   4.714  12.195  1.6434 -0.8453 -0.2361
  534TIP3   OH223092   0.679   1.698   2.669  0.1149  0.4135 -0.2387
  534TIP3    H123093   0.730   1.618   2.679 -0.2575 -0.0423 -1.7922
  534TIP3    H223094   0.708   1.735   2.586  0.7115  2.2290  0.7196
  535TIP3   OH223095   1.539   2.564   3.732  0.2663 -0.6471  0.3033
  535TIP3    H123096   1.528   2.516   3.650  0.8776 -1.5291  0.7136
  535TIP3    H223097   1.450   2.584   3.761  0.0385 -0.6565 -0.3825
  536TIP3   OH223098   6.551   2.742   2.941 -0.2820  0.3134 -0.6030
  536TIP3    H123099   6.528   2.833   2.922  0.2113  0.3336 -1.1374
  536TIP3    H223100   6.552   2.737   3.036  1.1587  1.2681 -0.5382
  537TIP3   OH223101   2.424   6.362   6.562  0.2444  0.0097 -0.2405
  537TIP3    H123102   2.387   6.450   6.552 -0.2491 -0.4400 -4.5152
  537TIP3    H223103   2.351   6.303   6.544  0.7350 -1.3235  1.8439
  538TIP3   OH223104   3.188   4.661  12.187  0.4209 -0.3790 -0.3511
  538TIP3    H123105   3.252   4.615  12.242 -1.0778 -1.6784  0.3857
  538TIP3    H223106   3.217   4.752  12.188  1.1658 -0.5895  1.5746
  539TIP3   OH223107   3.911   5.446   3.130 -0.1159  0.0074 -0.2208
  539TIP3    H123108   3.971   5.452   3.056 -1.0857 -1.1535 -1.1338
  539TIP3    H223109   3.887   5.354   3.134  1.1783 -0.3121  2.5912
  540TIP3   OH223110   0.052   4.731  14.903 -0.0297  0.8019 -0.8550
  540TIP3    H123111   0.028   4.666  14.970  1.3489  0.0018 -1.0939
  540TIP3    H223112   0.119   4.687  14.851  0.4619  2.1981 -1.4287
  541TIP3   OH223113   1.150   6.155   1.826  0.1448  0.4675  0.2592
  541TIP3    H123114   1.073   6.108   1.857 -0.8063  0.4078 -1.9896
  541TIP3    H223115   1.214   6.086   1.808 -0.7999  0.0289 -1.8092
  542TIP3   OH223116   1.462   6.673  12.701 -0.6703 -0.2613 -0.1514
  542TIP3    H123117   1.395   6.741  12.703 -0.0269  0.4038 -0.6183
  542TIP3    H223118   1.487   6.667  12.608  1.3546  0.9729  0.2441
  543TIP3   OH223119   1.271   3.837   0.494 -0.1475  0.1523  0.6616
  543TIP3    H123120   1.180   3.807   0.500 -0.0336 -0.4388 -0.3584
  543TIP3    H223121   1.274   3.886   0.411  0.5559 -0.1692  0.4961
  544TIP3   OH223122   0.454   1.265   0.863  0.3473  0.3859  0.4033
  544TIP3    H123123   0.516   1.208   0.818 -0.7647 -0.9251  0.4543
  544TIP3    H223124   0.495   1.351   0.862  2.3306 -0.5090  0.7867
  545TIP3   OH223125   0.677   4.682   2.049 -0.4755 -0.2934 -0.0567
  545TIP3    H123126   0.722   4.767   2.048 -1.4098  0.2824  1.6604
  545TIP3    H223127   0.593   4.699   2.007  0.2234 -0.9886 -1.8420
  546TIP3   OH223128   3.677   2.211   0.997 -0.3430  0.3291 -0.1100
  546TIP3    H123129   3.699   2.161   0.919  1.0638  0.4307  0.2004
  546TIP3    H223130   3.662   2.301   0.965  1.3070  0.6111 -0.1459
  547TIP3   OH223131   6.482   4.968  15.738 -0.4189  0.8441  0.1424
  547TIP3    H123132   6.519   4.947  15.652 -0.6933  2.1624 -0.3268
  547TIP3    H223133   6.515   4.900  15.796  0.5672  0.4858 -0.8112
  548TIP3   OH223134   3.521   4.473   4.914 -0.4334  0.0965 -0.5514
  548TIP3    H123135   3.562   4.558   4.931 -0.1339 -0.3266  1.0234
  548TIP3    H223136   3.477   4.484   4.830 -0.8516  2.0010 -0.1363
  549TIP3   OH223137   4.143   6.848  14.125 -0.0043  0.4295  0.2068
  549TIP3    H123138   4.167   6.805  14.207 -2.2483  1.3438  1.4526
  549TIP3    H223139   4.203   6.922  14.117  0.4950  0.0972  0.8252
  550TIP3   OH223140   1.214   1.074   2.408  0.1201  0.6572  0.3275
  550TIP3    H123141   1.226   1.160   2.449 -1.1877  1.4056 -0.7803
  550TIP3    H223142   1.245   1.086   2.318 -0.7755  0.1929 -0.0464
  551TIP3   OH223143   6.023   1.800  10.587  0.1760  0.2797 -0.4921
  551TIP3    H123144   6.070   1.795  10.504 -1.0537  0.2413 -1.2213
  551TIP3    H223145   5.965   1.876  10.577 -0.4083 -0.0770  0.0792
  552TIP3   OH223146   2.818   3.813   5.084  0.1251 -0.5354  0.0535
  552TIP3    H123147   2.900   3.836   5.040  0.2440  1.3497  1.1386
  552TIP3    H223148   2.839   3.816   5.177 -1.3825  1.0590  0.4020
  553TIP3   OH223149   1.522   5.446   0.447 -0.0039  0.2181  0.4063
  553TIP3    H123150   1.535   5.483   0.534  0.3315 -2.1002  1.4195
  553TIP3    H223151   1.484   5.359   0.463  0.4612 -0.4466 -1.7306
  554TIP3   OH223152   3.621   5.235   3.443  0.0897 -0.4753 -0.9728
  554TIP3    H123153   3.558   5.237   3.371 -1.9092 -1.4772  0.6596
  554TIP3    H223154   3.653   5.325   3.449 -3.3904  0.8596 -0.0435
  555TIP3   OH223155   2.717   1.292   6.629 -0.8302  0.7592 -0.2551
  555TIP3    H123156   2.809   1.315   6.637 -0.0203 -2.3059  0.7601
  555TIP3    H223157   2.670   1.368   6.662  1.4129  1.7013  0.9774
  556TIP3   OH223158   3.921   5.488   5.863 -0.1549 -0.5714 -0.1738
  556TIP3    H123159   4.011   5.458   5.853  0.1302 -0.1133  0.9210
  556TIP3    H223160   3.885   5.434   5.933 -1.1393 -1.5853 -1.3903
  557TIP3   OH223161   4.708   2.116  17.040  0.3183  0.4552 -0.0032
  557TIP3    H123162   4.797   2.091  17.013 -0.3778 -1.3243 -0.7804
  557TIP3    H223163   4.667   2.146  16.959  0.5614  2.5453  0.5858
  558TIP3   OH223164   5.689   3.770  17.078 -0.0200 -0.5320  0.0507
  558TIP3    H123165   5.594   3.757  17.077 -0.0898 -0.0703  0.4241
  558TIP3    H223166   5.725   3.687  17.046 -0.5126 -1.0925  0.9261
  559TIP3   OH223167   5.596   1.238   1.875  0.5569 -0.1822 -0.0231
  559TIP3    H123168   5.663   1.189   1.827  1.8108  0.6135  0.8276
  559TIP3    H223169   5.560   1.175   1.937  1.5407 -0.2875  0.4707
  560TIP3   OH223170   1.459   4.369   3.905 -0.0651 -0.6859 -0.5397
  560TIP3    H123171   1.491   4.391   3.993  2.8868 -0.2860 -1.6102
  560TIP3    H223172   1.444   4.454   3.863 -0.1408 -0.8657 -0.8754
  561TIP3   OH223173   0.004   3.328  15.748 -0.0878  0.5082 -0.1094
  561TIP3    H123174   0.069   3.302  15.814  1.1944 -1.3648 -1.9803
  561TIP3    H223175  -0.004   3.252  15.691 -1.1587  2.0184 -2.1036
  562TIP3   OH223176   3.615   3.811   5.526  0.5715  0.3819  0.4642
  562TIP3    H123177   3.699   3.778   5.493  0.5990  1.4198 -0.5982
  562TIP3    H223178   3.635   3.899   5.558  0.1314  0.1355  1.4425
  563TIP3   OH223179   5.973   5.087  16.688  0.1029 -0.3815 -0.7970
  563TIP3    H123180   5.907   5.115  16.626  0.2941 -0.2433 -0.9418
  563TIP3    H223181   6.007   5.169  16.726  0.0866 -0.4572 -0.6175
  564TIP3   OH223182   3.937   0.625  14.610 -0.3608 -0.5858 -0.0857
  564TIP3    H123183   3.862   0.655  14.558 -1.0429  0.2205  1.2858
  564TIP3    H223184   4.012   0.672  14.574 -0.5934 -0.9701 -1.1116
  565TIP3   OH223185   2.080   2.834   1.875  0.8943  0.3920  0.1421
  565TIP3    H123186   2.005   2.889   1.854  2.6093  1.6191 -3.4067
  565TIP3    H223187   2.124   2.880   1.947 -1.8315 -0.6401  2.6965
  566TIP3   OH223188   6.468   0.055   0.476  0.1978  0.4969  0.5289
  566TIP3    H123189   6.380   0.083   0.503 -0.1043 -0.0861  0.1671
  566TIP3    H223190   6.453  -0.007   0.405  0.8905  0.0975  0.7195
  567TIP3   OH223191   6.221   6.799   6.575  0.5453 -0.0475  0.2206
  567TIP3    H123192   6.186   6.716   6.542  0.1622  0.2300 -0.0819
  567TIP3    H223193   6.314   6.796   6.556  0.1209  0.8073 -2.4406
  568TIP3   OH223194   2.429   3.153   2.664  0.0942 -0.1020  0.3779
  568TIP3    H123195   2.484   3.231   2.667 -1.2626  0.8653  1.9754
  568TIP3    H223196   2.392   3.153   2.575  0.1054  1.0982  0.3596
  569TIP3   OH223197   4.605   3.732   1.416 -0.3652  0.7006 -0.1573
  569TIP3    H123198   4.685   3.681   1.422 -1.1084 -0.3386  1.6488
  569TIP3    H223199   4.581   3.729   1.323 -0.2331 -2.0097 -0.1633
  570TIP3   OH223200   2.161   2.085  11.794 -0.2750 -0.0572 -0.3322
  570TIP3    H123201   2.151   2.167  11.746 -0.5503 -0.7986 -1.5970
  570TIP3    H223202   2.243   2.095  11.843 -0.9719  1.4592  0.6082
  571TIP3   OH223203   6.060   0.896  16.408  0.5121 -0.2048  0.5824
  571TIP3    H123204   5.986   0.836  16.400 -0.5382  0.5454  3.4936
  571TIP3    H223205   6.119   0.853  16.470  1.0368  0.5692  0.6344
  572TIP3   OH223206   5.588   0.770   2.866  0.0526  0.0010  0.3189
  572TIP3    H123207   5.605   0.812   2.951  0.6497 -0.2178  0.3149
  572TIP3    H223208   5.494   0.755   2.865  0.2334 -1.4325  1.6181
  573TIP3   OH223209   4.496   1.321  16.606  0.5995  0.3865 -0.2004
  573TIP3    H123210   4.500   1.376  16.528  0.4370 -0.3550 -0.7483
  573TIP3    H223211   4.509   1.232  16.573 -2.0534 -0.2577  0.2188
  574TIP3   OH223212   4.007   3.781  14.732  0.3796  0.1886 -1.1537
  574TIP3    H123213   3.916   3.813  14.731  0.6653  1.2204  0.9087
  574TIP3    H223214   3.999   3.686  14.724 -1.0576  0.0654  0.9016
  575TIP3   OH223215   6.460   5.295  13.508 -0.0984 -0.5730 -0.5294
  575TIP3    H123216   6.493   5.283  13.419 -0.3319 -1.0065 -0.5635
  575TIP3    H223217   6.532   5.335  13.556 -0.8354  2.1828 -1.5614
  576TIP3   OH223218   6.574   1.430  16.897 -0.3277 -0.1877  0.2597
  576TIP3    H123219   6.490   1.409  16.858 -1.6142  0.2728  2.6166
  576TIP3    H223220   6.617   1.345  16.909  0.0952 -0.3399 -1.9855
  577TIP3   OH223221   1.529   3.093   3.347  0.0546  0.4785  0.4434
  577TIP3    H123222   1.525   3.131   3.435  0.1132 -0.6642  0.9663
  577TIP3    H223223   1.591   3.148   3.299 -0.6582  1.6556  0.8367
  578TIP3   OH223224   6.445   3.448   1.908 -0.0268 -0.0532 -0.1049
  578TIP3    H123225   6.410   3.371   1.863 -1.4839  0.8208 -0.5407
  578TIP3    H223226   6.436   3.427   2.001  0.7895 -0.9021 -0.1944
  579TIP3   OH223227   2.869   4.065  15.443  0.3909  0.5488 -0.2791
  579TIP3    H123228   2.849   4.159  15.437 -0.5860  0.2729 -2.0167
  579TIP3    H223229   2.792   4.022  15.406 -0.5437 -1.1361  3.2057
  580TIP3   OH223230   5.823   3.115  16.622  0.4331  0.3611 -0.1406
  580TIP3    H123231   5.918   3.103  16.625  0.3412 -0.4498 -0.2951
  580TIP3    H223232   5.810   3.188  16.561  0.8711 -0.8375 -1.7577
  581TIP3   OH223233   0.606   2.680  15.919 -0.0360  0.2773  0.0101
  581TIP3    H123234   0.623   2.586  15.909 -0.3115  0.2191  0.0839
  581TIP3    H223235   0.691   2.721  15.902  0.8041 -0.1656  2.6507
  582TIP3   OH223236   2.325   0.512  16.668 -0.2173 -0.0083 -0.3773
  582TIP3    H123237   2.303   0.604  16.678 -0.2174  0.0959 -1.2431
  582TIP3    H223238   2.283   0.486  16.586 -0.1767 -0.7641 -0.1691
  583TIP3   OH223239   0.387   2.846   0.817 -0.0690  0.5613 -0.0290
  583TIP3    H123240   0.408   2.931   0.857 -2.0256  2.2951 -2.3712
  583TIP3    H223241   0.451   2.836   0.747 -0.5216  0.6971 -0.4714
  584TIP3   OH223242   2.491   5.306  12.352 -0.0832  0.5178  0.0258
  584TIP3    H123243   2.557   5.374  12.345 -1.2458  1.6367 -0.3705
  584TIP3    H223244   2.503   5.252  12.273 -0.0435  1.0822 -0.3557
  585TIP3   OH223245   2.179   3.097  15.579 -0.0224  0.6438 -0.2710
  585TIP3    H123246   2.132   3.177  15.604  2.2396  2.1899 -0.6168
  585TIP3    H223247   2.163   3.089  15.485  0.2718  1.1127 -0.3698
  586TIP3   OH223248   0.027   2.998   1.377  0.6268  0.2542  0.2064
  586TIP3    H123249  -0.023   3.077   1.396  0.0433  0.7729 -2.9031
  586TIP3    H223250   0.017   2.943   1.455 -1.3314  2.0531  1.3069
  587TIP3   OH223251   3.652   2.968   0.821  0.3557  0.1943  0.0374
  587TIP3    H123252   3.610   3.029   0.759 -1.1330  0.4007  1.2068
  587TIP3    H223253   3.742   3.002   0.829 -0.2813  1.9591  0.2570
  588TIP3   OH223254   2.419   2.224   3.190  0.3449  1.0499 -0.6028
  588TIP3    H123255   2.369   2.306   3.188  0.2445  1.0158  0.1794
  588TIP3    H223256   2.352   2.156   3.195  0.4545  0.9925  0.1928
  589TIP3   OH223257   2.637   4.831  11.421  0.0745 -0.6050 -0.1214
  589TIP3    H123258   2.633   4.805  11.329 -1.0542  0.4034 -0.3803
  589TIP3    H223259   2.724   4.802  11.450 -0.3954 -2.9443 -0.8631
  590TIP3   OH223260   0.914   0.820   3.120  0.7788 -0.0429  0.4912
  590TIP3    H123261   0.973   0.777   3.183  0.5919  0.6242  1.1369
  590TIP3    H223262   0.910   0.911   3.150  1.6523  0.5926 -1.2060
  591TIP3   OH223263   1.106   5.491  13.452 -0.3794 -0.2993  0.7160
  591TIP3    H123264   1.102   5.561  13.387  1.3212 -0.7048  0.1128
  591TIP3    H223265   1.196   5.457  13.445 -0.2312 -0.5513  3.0801
  592TIP3   OH223266   6.669   1.268   2.817  0.1637 -0.2473  0.2631
  592TIP3    H123267   6.697   1.243   2.729  1.4463  1.6705  0.0722
  592TIP3    H223268   6.595   1.328   2.802  0.8114  0.6175  0.4200
  593TIP3   OH223269   6.417   1.969   2.822  0.1902 -0.3495  0.1056
  593TIP3    H123270   6.369   1.898   2.865 -1.1102 -0.0122 -0.7346
  593TIP3    H223271   6.509   1.943   2.829 -0.1480 -1.3536  1.1584
  594TIP3   OH223272   0.621   2.344   0.382  0.1455 -0.3003 -0.0617
  594TIP3    H123273   0.636   2.293   0.462  0.7761  0.8394  0.5796
  594TIP3    H223274   0.708   2.371   0.354 -0.0980 -0.4186 -0.9664
  595TIP3   OH223275   6.400   1.848  12.506 -0.0559 -0.0646 -0.4836
  595TIP3    H123276   6.341   1.839  12.581  0.2475 -0.2060 -0.2636
  595TIP3    H223277   6.397   1.941  12.485 -0.9861 -0.1881 -0.9837
  596TIP3   OH223278   2.844   2.728   2.983  0.8341  0.4687 -0.2724
  596TIP3    H123279   2.835   2.633   2.995 -1.8417  0.6507 -0.1392
  596TIP3    H223280   2.810   2.744   2.895  0.0544  1.4008  0.1760
  597TIP3   OH223281   5.635   4.623  16.211 -0.2842  0.4661 -1.3189
  597TIP3    H123282   5.541   4.640  16.212 -0.3848  0.0303  0.7317
  597TIP3    H223283   5.644   4.537  16.252  1.0565  0.8772 -0.6851
  598TIP3   OH223284   6.244   2.957  17.199  0.0840 -0.0552  0.0338
  598TIP3    H123285   6.232   3.028  17.262  0.0162  0.3352 -0.4133
  598TIP3    H223286   6.164   2.905  17.206 -0.1936  0.3350 -0.1575
  599TIP3   OH223287   1.268   5.647  12.737  0.3247 -0.3732 -0.0189
  599TIP3    H123288   1.285   5.688  12.652 -1.0298 -0.1787 -0.2305
  599TIP3    H223289   1.334   5.579  12.745  0.3741 -0.4969 -1.3069
  600TIP3   OH223290   0.637   1.543   4.148  0.0946  0.4433  0.3028
  600TIP3    H123291   0.664   1.480   4.081  2.5935  0.7120  0.9404
  600TIP3    H223292   0.627   1.626   4.100  0.1468  0.2705 -0.0107
  601TIP3   OH223293   2.915   0.810   0.100 -0.4439 -0.1160 -0.4265
  601TIP3    H123294   2.829   0.819   0.142 -0.7208  0.1246 -1.0267
  601TIP3    H223295   2.957   0.895   0.111  0.0867 -0.4994  0.6377
  602TIP3   OH223296   3.817   0.185  15.949  0.3236 -0.1205  0.1898
  602TIP3    H123297   3.821   0.092  15.969 -1.0992  0.0085  1.2121
  602TIP3    H223298   3.876   0.226  16.011  4.9631 -0.6329 -3.3308
  603TIP3   OH223299   4.785   6.348  16.236 -0.2841 -0.5098 -0.5937
  603TIP3    H123300   4.835   6.421  16.274 -0.8533 -0.5070  0.1731
  603TIP3    H223301   4.787   6.280  16.303  0.4176 -1.2889 -1.3897
  604TIP3   OH223302   4.474   2.139   2.034  0.0220  0.1670  0.7069
  604TIP3    H123303   4.397   2.194   2.049 -0.2304  0.2520 -0.7764
  604TIP3    H223304   4.543   2.200   2.007  0.4261  0.0035  1.3169
  605TIP3   OH223305   3.448   6.274  13.775  0.1704  0.4645 -0.3313
  605TIP3    H123306   3.420   6.344  13.717  1.4628  1.0871 -0.2293
  605TIP3    H223307   3.493   6.318  13.847 -0.5739 -0.3552  0.6846
  606TIP3   OH223308   2.701   2.050   0.745  0.4248  0.0490  0.1494
  606TIP3    H123309   2.796   2.055   0.751  0.5563 -0.2342 -1.4057
  606TIP3    H223310   2.679   1.961   0.771  0.8552 -0.7710 -2.1516
  607TIP3   OH223311   3.645   5.974  12.774  0.1029 -0.8451 -0.0877
  607TIP3    H123312   3.588   6.026  12.830  1.2584  1.3914 -0.8593
  607TIP3    H223313   3.628   6.005  12.685  2.4317 -0.0973 -0.3494
  608TIP3   OH223314   5.245   1.274   2.992  0.1738  0.7304  0.0591
  608TIP3    H123315   5.211   1.295   2.905 -2.1044  1.5666  1.0762
  608TIP3    H223316   5.218   1.347   3.047 -1.4127 -1.2730  2.1486
  609TIP3   OH223317   3.625   1.892   1.532 -0.6313 -0.5959 -0.0632
  609TIP3    H123318   3.531   1.904   1.550 -0.4130  0.2207  0.6007
  609TIP3    H223319   3.628   1.872   1.439 -1.3371  1.5373 -0.6168
  610TIP3   OH223320   0.377   1.915  13.995  0.0320  0.2875 -0.2852
  610TIP3    H123321   0.402   1.825  13.975  1.3566  0.2136  1.4694
  610TIP3    H223322   0.450   1.950  14.046 -1.8542  1.2748  1.9180
  611TIP3   OH223323   2.233   2.471  17.017  0.0470  0.6782 -0.5461
  611TIP3    H123324   2.208   2.521  17.095 -0.6373 -0.9933  0.3736
  611TIP3    H223325   2.243   2.381  17.049  2.9619  0.4636 -1.7760
  612TIP3   OH223326   5.754   4.687   5.171  0.1865  0.4364  0.4175
  612TIP3    H123327   5.791   4.611   5.127 -1.3526 -0.9149  1.3458
  612TIP3    H223328   5.664   4.692   5.140 -0.0787  1.1720  1.2461
  613TIP3   OH223329   0.782   5.928   2.771  0.8016  0.2893  0.2473
  613TIP3    H123330   0.814   6.009   2.731 -0.2351 -0.7000 -2.8651
  613TIP3    H223331   0.780   5.865   2.699 -0.8230 -1.8105  2.0030
  614TIP3   OH223332   5.740   5.554   2.297 -0.0117  0.4837 -0.0763
  614TIP3    H123333   5.716   5.534   2.206 -2.4396  0.0583  0.5868
  614TIP3    H223334   5.789   5.636   2.291  2.5479 -1.0540 -2.0038
  615TIP3   OH223335   6.654   5.439   3.695  0.6395  0.0753 -0.7976
  615TIP3    H123336   6.563   5.457   3.674  0.2649  0.4678  1.0239
  615TIP3    H223337   6.665   5.346   3.678  0.5424  0.4120 -3.1039
  616TIP3   OH223338   4.503   5.027   3.002 -0.4149  0.2596  0.0507
  616TIP3    H123339   4.592   5.054   2.979 -0.6839  1.0338 -0.0831
  616TIP3    H223340   4.515   4.960   3.070  0.2845 -0.0294 -0.3538
  617TIP3   OH223341   4.071   0.075   6.115  0.4154  0.8884 -0.3618
  617TIP3    H123342   4.021  -0.003   6.093 -0.1484  0.8151  1.0516
  617TIP3    H223343   4.114   0.054   6.197  4.0040  0.4425 -2.1722
  618TIP3   OH223344   3.244   6.587  13.980 -0.0774 -0.2161  0.7011
  618TIP3    H123345   3.318   6.601  14.040 -0.1071  1.4249  0.3937
  618TIP3    H223346   3.167   6.610  14.033 -0.0658  1.8130 -0.0722
  619TIP3   OH223347   4.320   0.666   4.936  0.0401 -0.5564  0.3715
  619TIP3    H123348   4.373   0.685   4.859 -1.1576 -1.2649 -0.6535
  619TIP3    H223349   4.384   0.645   5.004  1.2404 -5.6069 -1.8509
  620TIP3   OH223350   5.523   0.596   1.220  0.0259  0.2728  0.1701
  620TIP3    H123351   5.566   0.561   1.298 -0.7118  0.3783  0.6283
  620TIP3    H223352   5.585   0.578   1.149 -0.1034 -1.5076  0.4698
  621TIP3   OH223353   6.784   1.375  11.453  0.1041  0.2299  0.8677
  621TIP3    H123354   6.722   1.378  11.381  0.7622  1.7718  0.3326
  621TIP3    H223355   6.734   1.403  11.530 -0.6390 -1.5658  1.1121
  622TIP3   OH223356   6.091   4.277   4.992 -0.1053 -0.4465 -0.1772
  622TIP3    H123357   6.039   4.197   4.985  1.2967 -1.3014 -1.0876
  622TIP3    H223358   6.122   4.294   4.903  0.8980  0.2350  0.2846
  623TIP3   OH223359   2.903   5.063   4.115 -0.1520  0.1057  0.0163
  623TIP3    H123360   2.986   5.047   4.160  0.0320  2.5105  0.6721
  623TIP3    H223361   2.840   5.080   4.185 -0.5585  0.9697 -0.5341
  624TIP3   OH223362   4.581   6.127  16.864 -0.0396 -0.6590 -0.4740
  624TIP3    H123363   4.505   6.082  16.901 -0.5753  0.7815  0.2213
  624TIP3    H223364   4.616   6.180  16.935  0.5722  0.0368 -1.2647
  625TIP3   OH223365   0.894   1.881  15.902 -0.3250  0.0131 -0.2590
  625TIP3    H123366   0.938   1.796  15.894 -0.3340 -0.1124  0.9301
  625TIP3    H223367   0.965   1.944  15.912 -0.3590 -0.0069  0.1177
  626TIP3   OH223368   4.030   2.364   4.406  0.2263 -0.0727  0.0910
  626TIP3    H123369   3.972   2.302   4.361 -1.5795  0.2063  1.8495
  626TIP3    H223370   4.043   2.435   4.344 -0.9912 -0.3573 -0.5251
  627TIP3   OH223371   6.361   4.409   1.255  0.2308 -0.0088  0.0087
  627TIP3    H123372   6.338   4.334   1.200 -0.8988  0.3503 -0.0159
  627TIP3    H223373   6.445   4.439   1.219  0.3500 -0.8214 -0.4272
  628TIP3   OH223374   3.849   5.073   2.594 -0.0076  0.1557 -0.6204
  628TIP3    H123375   3.766   5.043   2.558 -0.5257  0.3953  0.3221
  628TIP3    H223376   3.827   5.103   2.683  1.1390 -0.0452 -0.2494
  629TIP3   OH223377   1.934   5.965   0.325  0.1313 -0.4324 -0.4876
  629TIP3    H123378   2.017   5.966   0.374 -0.0641  0.1049 -0.1540
  629TIP3    H223379   1.960   5.951   0.234  0.7897  1.7674 -0.7039
  630TIP3   OH223380   2.906   0.836   1.593 -0.3332 -0.0866 -0.2011
  630TIP3    H123381   2.994   0.822   1.627 -0.5379  0.6741  0.6865
  630TIP3    H223382   2.856   0.867   1.669 -1.0114  0.8711 -1.0199
  631TIP3   OH223383   0.161   1.474   3.467  0.3859  0.0838 -0.4474
  631TIP3    H123384   0.114   1.417   3.527  2.2217 -0.5518  0.4628
  631TIP3    H223385   0.137   1.443   3.380 -0.9187 -0.1395 -0.0307
  632TIP3   OH223386   6.304   0.818   2.953 -0.2319 -0.3424 -0.4378
  632TIP3    H123387   6.382   0.872   2.944 -0.1855 -0.4869 -0.9828
  632TIP3    H223388   6.291   0.808   3.047  0.0566  0.1832 -0.3393
  633TIP3   OH223389   4.743   4.111  16.229 -0.5822  1.2763 -0.4674
  633TIP3    H123390   4.748   4.052  16.154  1.3839 -0.5264  0.9717
  633TIP3    H223391   4.659   4.091  16.270 -0.2994  0.0199 -0.4630
  634TIP3   OH223392   3.051   5.736   4.700 -0.6083 -0.3851  0.1213
  634TIP3    H123393   2.983   5.805   4.701 -0.2861 -0.0361 -0.9270
  634TIP3    H223394   3.133   5.784   4.713 -0.4400 -0.6541  0.0382
  635TIP3   OH223395   0.838   0.786  14.072  0.2192  0.4712 -0.4678
  635TIP3    H123396   0.812   0.811  13.983 -0.2731 -0.1594 -0.5078
  635TIP3    H223397   0.836   0.691  14.072  0.1116  0.4666  0.2474
  636TIP3   OH223398   3.625   2.159   1.317 -0.2299  0.0811  0.0161
  636TIP3    H123399   3.553   2.149   1.254  0.1498 -4.1904  0.0280
  636TIP3    H223400   3.696   2.198   1.265 -1.3183  0.8900 -0.9361
  637TIP3   OH223401   3.940   3.267  12.452  0.0455  0.1206  0.3841
  637TIP3    H123402   3.954   3.280  12.358  1.8734 -1.2495  0.3981
  637TIP3    H223403   3.862   3.212  12.457 -0.6764  1.0540 -0.2499
  638TIP3   OH223404   4.639   5.421  12.023 -0.1032 -0.0837 -0.3014
  638TIP3    H123405   4.610   5.489  11.961  0.9350 -0.6988 -1.4832
  638TIP3    H223406   4.602   5.450  12.107 -1.5454  0.7749 -1.1695
  639TIP3   OH223407   2.286   4.290   2.255 -0.2574  0.4309  0.7614
  639TIP3    H123408   2.361   4.241   2.222 -0.9865 -0.2381  0.0596
  639TIP3    H223409   2.218   4.224   2.267 -0.6502  0.9853  1.6631
  640TIP3   OH223410   3.604   3.265   1.782 -0.1297 -0.1272  0.1870
  640TIP3    H123411   3.691   3.234   1.805  0.4684  1.9640  0.8826
  640TIP3    H223412   3.601   3.258   1.686  1.8349  2.1742 -0.1351
  641TIP3   OH223413   5.382   1.422  14.952  0.3377 -0.4447 -0.1105
  641TIP3    H123414   5.432   1.390  15.027 -0.7382 -1.9634  0.0020
  641TIP3    H223415   5.335   1.345  14.919 -3.2742  1.1410  0.8411
  642TIP3   OH223416   3.005   5.989   5.567 -0.1620 -0.4497  0.1584
  642TIP3    H123417   2.980   5.900   5.593 -4.2660  0.4111 -0.2473
  642TIP3    H223418   2.986   5.994   5.474  6.0517 -0.8024 -1.5669
  643TIP3   OH223419   4.774   2.683   2.395 -0.4621  0.4548  0.1426
  643TIP3    H123420   4.763   2.743   2.468 -1.2443 -0.0433  0.4459
  643TIP3    H223421   4.835   2.728   2.336 -2.0593  2.1650 -0.2937
  644TIP3   OH223422   5.488   1.035   3.235 -0.0524 -0.5754  0.0286
  644TIP3    H123423   5.464   1.026   3.327 -2.9313 -1.0770 -0.6599
  644TIP3    H223424   5.404   1.042   3.189  1.2989  0.2607 -2.5179
  645TIP3   OH223425   4.409   1.657  10.759 -0.8540 -0.0220 -0.6143
  645TIP3    H123426   4.488   1.617  10.797 -0.5444  0.2422 -0.9729
  645TIP3    H223427   4.441   1.734  10.713 -1.3374  0.1350 -0.6947
  646TIP3   OH223428   0.126   6.425   4.256 -0.2875  0.2901 -0.1715
  646TIP3    H123429   0.147   6.467   4.172 -1.6339  0.7038 -0.3157
  646TIP3    H223430   0.058   6.480   4.294 -0.9464 -0.8754  0.3773
  647TIP3   OH223431   3.598   5.533  16.084  0.4341 -0.1335 -0.1351
  647TIP3    H123432   3.644   5.510  16.003 -0.3136  0.8514 -0.8506
  647TIP3    H223433   3.534   5.462  16.096 -0.7111  0.6416 -1.4205
  648TIP3   OH223434   0.564   2.073   4.878  0.1415  0.4475  0.3481
  648TIP3    H123435   0.491   2.129   4.852  0.2947  0.9670  1.0131
  648TIP3    H223436   0.560   2.070   4.974  0.9887  0.4799  0.3961
  649TIP3   OH223437   5.784   2.139   2.591  0.3443 -0.8122  0.7493
  649TIP3    H123438   5.802   2.218   2.641  0.3325  1.5322 -2.6083
  649TIP3    H223439   5.699   2.109   2.623 -0.1794  1.1879  1.4039
  650TIP3   OH223440   6.731   3.940   5.551  0.4383 -0.2180 -0.5100
  650TIP3    H123441   6.743   3.936   5.646 -0.2561  1.2033 -0.3396
  650TIP3    H223442   6.679   3.863   5.530 -0.9097  0.3864  0.5296
  651TIP3   OH223443   6.277   5.206   1.869  0.8183 -0.0756  0.0014
  651TIP3    H123444   6.280   5.302   1.861  0.8014 -0.0814 -0.0800
  651TIP3    H223445   6.250   5.190   1.959 -1.0021  0.0068 -0.5020
  652TIP3   OH223446   5.145   3.934  12.791 -0.7160 -0.2185 -0.1345
  652TIP3    H123447   5.116   3.877  12.862  2.1426  0.5521  1.8138
  652TIP3    H223448   5.171   3.873  12.722  0.5369 -1.2709  1.1894
  653TIP3   OH223449   5.642   3.382  14.490 -0.1496 -0.3081  0.0906
  653TIP3    H123450   5.670   3.420  14.407  1.0290 -0.9163  0.1979
  653TIP3    H223451   5.557   3.423  14.507 -0.6010 -0.4797 -1.6039
  654TIP3   OH223452   3.453   1.228   0.755 -0.2981  0.0746 -0.1813
  654TIP3    H123453   3.484   1.165   0.691  1.8381  1.0187 -0.1558
  654TIP3    H223454   3.428   1.305   0.704  1.0983  0.7076  0.0337
  655TIP3   OH223455   3.561   6.630   2.495 -0.4010 -0.5203 -0.4549
  655TIP3    H123456   3.652   6.604   2.480 -0.1923  0.6348 -1.3449
  655TIP3    H223457   3.548   6.618   2.589  0.6086 -0.8511 -0.3406
  656TIP3   OH223458   5.438   6.462  14.562 -0.1539  0.3467 -0.4099
  656TIP3    H123459   5.458   6.400  14.632 -1.2845  0.5404  0.0999
  656TIP3    H223460   5.517   6.516  14.554  0.4279 -0.4465 -0.1127
  657TIP3   OH223461   4.485   4.372   4.806  0.1479 -0.0225 -0.1203
  657TIP3    H123462   4.467   4.349   4.715 -0.6481  1.9611 -0.4998
  657TIP3    H223463   4.400   4.375   4.848  0.3213  1.0845  0.1758
  658TIP3   OH223464   3.983   4.694   0.188  0.1249 -0.1358 -0.0317
  658TIP3    H123465   4.033   4.769   0.157  1.7896 -1.7288 -1.4492
  658TIP3    H223466   3.929   4.729   0.260 -0.4434  2.7295 -1.6954
  659TIP3   OH223467   0.546   2.391  12.506 -0.3747 -0.4908  0.0994
  659TIP3    H123468   0.487   2.332  12.458 -1.4627  0.9276 -0.3688
  659TIP3    H223469   0.619   2.406  12.445 -0.3319 -0.9594  0.0296
  660TIP3   OH223470   1.525   0.443   0.276 -0.0742  0.2077  0.2564
  660TIP3    H123471   1.580   0.436   0.354 -2.5147 -1.0183  2.0082
  660TIP3    H223472   1.486   0.530   0.281 -0.6710 -0.0762  0.7842
  661TIP3   OH223473   0.981   5.147  14.623 -0.4503 -0.0560 -0.3881
  661TIP3    H123474   1.013   5.083  14.687 -2.7518 -0.5603  0.3572
  661TIP3    H223475   0.986   5.101  14.539  1.3266  0.1384 -0.4358
  662TIP3   OH223476   2.556   5.670  11.609  0.0016  0.1524  0.4210
  662TIP3    H123477   2.569   5.719  11.690 -0.6964  0.6623  0.2337
  662TIP3    H223478   2.644   5.651  11.578  0.3573 -2.2025  2.5679
  663TIP3   OH223479   6.186   3.666   6.348 -0.6821  0.7160  0.5456
  663TIP3    H123480   6.213   3.643   6.259 -0.8132 -0.3324  0.7739
  663TIP3    H223481   6.098   3.630   6.357 -0.2719 -0.0866  1.4512
  664TIP3   OH223482   4.967   3.273   6.535  0.0337 -0.0386  0.2674
  664TIP3    H123483   4.973   3.324   6.454 -1.5121  1.5127  1.0602
  664TIP3    H223484   4.892   3.310   6.581  0.9814 -0.7346  2.5158
  665TIP3   OH223485   4.689   2.022  12.053  0.0644 -1.0177 -0.0393
  665TIP3    H123486   4.733   2.006  11.969 -2.4534 -1.1574 -1.4305
  665TIP3    H223487   4.718   1.950  12.109  2.1703 -0.6591 -0.5630
  666TIP3   OH223488   3.102   2.717  11.445  0.2506 -0.4989 -0.1872
  666TIP3    H123489   3.024   2.691  11.396  1.6605 -1.2301 -2.2184
  666TIP3    H223490   3.071   2.733  11.534 -2.3172 -0.0108 -1.0781
  667TIP3   OH223491   5.361   4.668   4.743 -0.2137 -0.1549 -0.0865
  667TIP3    H123492   5.327   4.698   4.659  1.0203  0.8045 -0.2714
  667TIP3    H223493   5.307   4.592   4.765 -2.4843  1.2810 -0.3392
  668TIP3   OH223494   1.502   1.688  15.922  0.1514 -0.3108 -0.3953
  668TIP3    H123495   1.521   1.782  15.917  0.1249 -0.1866  1.2374
  668TIP3    H223496   1.581   1.649  15.959 -0.2276 -0.7792 -0.0658
  669TIP3   OH223497   4.082   3.557  15.054  0.0070  0.7773  0.1474
  669TIP3    H123498   4.076   3.490  14.986  2.3419  1.8727 -1.2596
  669TIP3    H223499   3.996   3.600  15.052 -1.8021 -2.4293  1.5385
  670TIP3   OH223500   4.074   2.411   5.311  0.2849  0.6406  0.2149
  670TIP3    H123501   4.071   2.360   5.230 -0.3779  1.5893 -0.3754
  670TIP3    H223502   4.102   2.498   5.283  1.0437  0.7174  1.1572
  671TIP3   OH223503   0.597   1.712  13.437 -0.2949 -0.2518  0.1063
  671TIP3    H123504   0.652   1.707  13.358  0.7555  0.8492  0.7425
  671TIP3    H223505   0.567   1.622  13.449 -0.6537 -0.4161 -1.6615
  672TIP3   OH223506   5.422   5.863  10.926 -0.1396 -0.0641  0.7181
  672TIP3    H123507   5.501   5.841  10.876  0.7451 -0.1504  2.0969
  672TIP3    H223508   5.376   5.927  10.871 -0.4063 -1.8236 -1.2443
  673TIP3   OH223509   2.996   5.022  16.143  0.1043  0.2815  1.0088
  673TIP3    H123510   2.911   5.009  16.186 -0.0873  0.4532  0.6791
  673TIP3    H223511   2.984   5.098  16.087 -0.5523 -1.6350 -1.6545
  674TIP3   OH223512   1.533   2.028   0.749 -0.2382 -0.1158 -0.0946
  674TIP3    H123513   1.616   2.019   0.702 -0.4667 -1.3855 -0.2861
  674TIP3    H223514   1.557   2.023   0.841 -0.1367 -0.9246 -0.1587
  675TIP3   OH223515   4.527   0.682   4.776 -0.0604 -0.4480  0.6065
  675TIP3    H123516   4.536   0.770   4.737  0.4360  0.1109  1.9165
  675TIP3    H223517   4.614   0.644   4.769  1.0706  1.0298  4.1917
  676TIP3   OH223518   0.913   2.724  16.226  0.5969  0.0433  0.4630
  676TIP3    H123519   0.938   2.691  16.140  0.1324  3.0715 -0.9458
  676TIP3    H223520   0.917   2.647  16.283 -2.0175 -2.8187 -2.7888
  677TIP3   OH223521   2.224   0.565   0.749  0.2106  0.2525 -0.5053
  677TIP3    H123522   2.175   0.492   0.711  1.1260  0.2216 -1.7038
  677TIP3    H223523   2.165   0.603   0.814 -0.6248 -0.9903 -0.5021
  678TIP3   OH223524   5.905   4.700  12.469 -0.1613 -0.6265  0.1918
  678TIP3    H123525   5.889   4.693  12.375  0.5577 -0.7196  0.0682
  678TIP3    H223526   5.975   4.765  12.477 -0.9234  0.1422  0.7396
  679TIP3   OH223527   4.404   4.857  16.170 -0.1640  0.6875 -0.0545
  679TIP3    H123528   4.332   4.858  16.233  0.2304 -0.2182  0.4386
  679TIP3    H223529   4.361   4.856  16.084 -0.8501 -1.7139  0.2228
  680TIP3   OH223530   2.651   2.377  13.858 -0.5228 -0.6194 -0.1338
  680TIP3    H123531   2.572   2.430  13.855 -0.8077 -1.0625 -0.5120
  680TIP3    H223532   2.666   2.362  13.952 -0.5117  0.0045 -0.0261
  681TIP3   OH223533   2.879   5.288  16.614  0.0542  0.5529 -0.3378
  681TIP3    H123534   2.966   5.310  16.648 -0.2590  1.5593 -0.1749
  681TIP3    H223535   2.897   5.229  16.541  0.9976  2.3199 -1.5950
  682TIP3   OH223536   4.102   1.162   3.691 -0.4755  0.0151  0.2047
  682TIP3    H123537   4.171   1.219   3.658 -0.3305  0.2804  0.9276
  682TIP3    H223538   4.054   1.217   3.753 -0.3256 -0.6432  0.9266
  683TIP3   OH223539   0.419   3.311  10.744 -0.4021 -0.6976  0.0732
  683TIP3    H123540   0.511   3.291  10.723 -0.2293  1.4316 -1.5392
  683TIP3    H223541   0.369   3.246  10.696  0.1904  0.8824 -2.8779
  684TIP3   OH223542   0.585   4.190   0.645  0.4974  0.0927  0.3765
  684TIP3    H123543   0.628   4.198   0.560  1.1498  1.3150  0.7875
  684TIP3    H223544   0.553   4.278   0.664 -0.7663 -0.4441  0.8368
  685TIP3   OH223545   6.130   3.988  12.829  0.0755  0.0820 -0.7335
  685TIP3    H123546   6.045   4.025  12.806  0.6143  1.7251 -0.2193
  685TIP3    H223547   6.114   3.935  12.907 -0.6418 -0.4638 -1.2425
  686TIP3   OH223548   0.761   5.328  14.522 -0.6072  0.0600 -0.6166
  686TIP3    H123549   0.797   5.254  14.473  0.0662  0.3449 -0.5623
  686TIP3    H223550   0.814   5.403  14.495 -1.3155  0.5377 -0.7089
  687TIP3   OH223551   2.165   6.269  13.967  0.2461  0.4382  0.0822
  687TIP3    H123552   2.221   6.191  13.959 -0.0171  0.1690  0.8320
  687TIP3    H223553   2.103   6.260  13.894 -1.4814 -1.4723  1.6686
  688TIP3   OH223554   0.390   0.973  13.852  0.1179  0.3630  0.1210
  688TIP3    H123555   0.454   1.030  13.810  0.4041  0.1500  0.2557
  688TIP3    H223556   0.371   1.016  13.936 -1.3601  1.4102 -0.7106
  689TIP3   OH223557   1.728   1.664   3.246 -1.1281 -0.0482 -0.1281
  689TIP3    H123558   1.700   1.590   3.300 -0.2857  0.2098  0.6990
  689TIP3    H223559   1.744   1.735   3.309  0.7521 -0.0089 -0.5847
  690TIP3   OH223560   1.238   4.418  13.559  0.6440 -0.1547  0.2176
  690TIP3    H123561   1.272   4.330  13.543 -0.1017 -0.5825  0.9207
  690TIP3    H223562   1.229   4.423  13.654  0.7943  0.7294  0.1903
  691TIP3   OH223563   2.861   1.830  14.021 -0.2008  0.0004 -0.4855
  691TIP3    H123564   2.784   1.824  14.079 -0.7387  0.2446 -1.1605
  691TIP3    H223565   2.928   1.779  14.067 -0.4589  0.5802  0.5861
  692TIP3   OH223566   1.403   3.262   1.746  0.3351  0.3448 -0.4316
  692TIP3    H123567   1.331   3.222   1.794 -1.6303  1.4829 -2.2863
  692TIP3    H223568   1.441   3.190   1.695 -2.1974  0.4146 -2.5881
  693TIP3   OH223569   3.029   2.485   5.368 -0.0918 -0.2231 -0.6231
  693TIP3    H123570   3.071   2.399   5.373 -0.3648 -0.4365 -1.7563
  693TIP3    H223571   2.952   2.477   5.424  1.9056  0.5421  2.4626
  694TIP3   OH223572   0.864   6.743  10.948 -0.0550  0.0967  0.9391
  694TIP3    H123573   0.804   6.673  10.923 -0.3548 -0.1344  2.2293
  694TIP3    H223574   0.938   6.733  10.888 -1.8244  1.2584 -1.6527
  695TIP3   OH223575   5.045   4.915  15.933 -0.0845  0.0526 -0.2774
  695TIP3    H123576   5.068   4.993  15.883  1.0430  0.4216  0.7612
  695TIP3    H223577   4.983   4.945  15.999 -0.8284 -0.2480 -0.8230
  696TIP3   OH223578   2.652   1.827   4.494  0.3961 -0.1344 -0.0542
  696TIP3    H123579   2.675   1.766   4.424  0.1728 -0.1783 -0.0887
  696TIP3    H223580   2.699   1.908   4.471 -1.2176  0.5000 -1.3340
  697TIP3   OH223581   2.638   1.240   2.243  0.1626 -0.1666 -0.3333
  697TIP3    H123582   2.606   1.325   2.215 -0.2624 -0.0599  0.4491
  697TIP3    H223583   2.717   1.225   2.191 -0.2194  0.3272 -1.0681
  698TIP3   OH223584   5.795   0.893   2.723 -0.7370  0.0251 -0.1171
  698TIP3    H123585   5.789   0.859   2.634  1.4107  0.0425 -0.3238
  698TIP3    H223586   5.744   0.831   2.776 -2.1719  0.1038 -1.3358
  699TIP3   OH223587   2.420   1.497  13.973 -0.0143 -0.7820 -0.2177
  699TIP3    H123588   2.405   1.509  13.879  0.2393 -1.2420 -0.3208
  699TIP3    H223589   2.514   1.479  13.979 -0.0808 -1.0160  0.0995
  700TIP3   OH223590   4.660   2.722   5.365  0.1045  0.2704 -0.2933
  700TIP3    H123591   4.622   2.803   5.333  0.1427 -0.4976 -2.4308
  700TIP3    H223592   4.716   2.691   5.294  0.3782 -1.4431  0.6021
  701TIP3   OH223593   1.549   4.628   0.163 -0.0296 -0.2684  0.0951
  701TIP3    H123594   1.598   4.550   0.191  1.3173  0.6899  0.5447
  701TIP3    H223595   1.481   4.594   0.106  0.5368 -1.7800  0.2589
  702TIP3   OH223596   2.794   5.949  13.375 -0.2583 -0.4013  0.5595
  702TIP3    H123597   2.736   5.879  13.408 -1.1611  1.2841  2.7941
  702TIP3    H223598   2.741   5.995  13.310 -0.4261 -0.5398  0.5962
  703TIP3   OH223599   6.311   5.197   3.376 -0.4242 -0.3838  0.3024
  703TIP3    H123600   6.323   5.156   3.291 -0.3477  1.4943 -0.6633
  703TIP3    H223601   6.242   5.147   3.418  1.3223 -2.9871  0.2859
  704TIP3   OH223602   3.877   0.613  15.320 -0.1465 -0.5575 -0.1455
  704TIP3    H123603   3.921   0.603  15.235  0.3199 -0.1226  0.0367
  704TIP3    H223604   3.828   0.694  15.312  0.6877  0.0168  0.3221
  705TIP3   OH223605   4.397   1.486   1.991 -0.7254  0.5481  0.2438
  705TIP3    H123606   4.488   1.494   2.019 -0.7661  1.5136  0.1234
  705TIP3    H223607   4.397   1.515   1.900 -0.6930 -2.0433 -0.6591
  706TIP3   OH223608   0.575   4.555  12.050 -0.3162 -0.3993  0.2730
  706TIP3    H123609   0.494   4.535  12.004 -0.9278 -1.8139  1.8415
  706TIP3    H223610   0.642   4.504  12.005  0.0071  1.6994 -1.7834
  707TIP3   OH223611   4.421   1.726  14.029 -0.0771 -0.0564  0.2235
  707TIP3    H123612   4.440   1.650  14.085 -0.1267 -2.1441 -2.3765
  707TIP3    H223613   4.353   1.694  13.969 -1.6229  2.7593  0.3322
  708TIP3   OH223614   6.782   4.675   1.720 -0.1489  0.2010 -0.1813
  708TIP3    H123615   6.788   4.710   1.632 -0.7611  1.0027  0.0912
  708TIP3    H223616   6.797   4.750   1.778  1.4248 -0.5184  0.4122
  709TIP3   OH223617   6.627   6.258  13.369  0.5802 -0.1395  0.5048
  709TIP3    H123618   6.649   6.280  13.459 -0.5783  0.1164  0.7347
  709TIP3    H223619   6.532   6.270  13.363  0.6919  0.2882 -0.8641
  710TIP3   OH223620   1.550   4.764   3.542  0.7651 -0.2149  0.3130
  710TIP3    H123621   1.571   4.857   3.533 -0.8432  0.1997  0.6752
  710TIP3    H223622   1.501   4.742   3.463  1.1826 -0.7867  0.2030
  711TIP3   OH223623   6.548   5.959   0.375 -0.0008  0.1334 -0.3233
  711TIP3    H123624   6.574   5.868   0.388  1.4430  0.6015  0.2279
  711TIP3    H223625   6.619   5.997   0.322 -0.5631  0.9524 -0.5158
  712TIP3   OH223626   3.636   6.526  13.993  0.2972  0.9943  0.3066
  712TIP3    H123627   3.558   6.526  14.048 -0.0523  1.9284 -0.1669
  712TIP3    H223628   3.693   6.459  14.031 -1.0289 -0.2112  0.2355
  713TIP3   OH223629   5.569   1.390   4.995 -0.1839  0.7167 -0.6314
  713TIP3    H123630   5.512   1.340   4.937  1.5096 -1.6486 -0.4058
  713TIP3    H223631   5.631   1.434   4.936  0.7852 -0.7176 -0.7303
  714TIP3   OH223632   4.414   6.524  13.179 -0.1304  0.2747  0.1198
  714TIP3    H123633   4.433   6.615  13.157  1.0441 -0.1707 -0.8134
  714TIP3    H223634   4.321   6.523  13.201 -0.0942  1.7483  0.4347
  715TIP3   OH223635   0.308   4.972  13.628  0.0626  0.2941 -0.3311
  715TIP3    H123636   0.377   4.968  13.694  0.2442 -2.9831 -0.5682
  715TIP3    H223637   0.353   4.999  13.548  0.4656  1.0911  0.1498
  716TIP3   OH223638   3.853   5.620   1.240 -0.3683 -0.5484 -0.3538
  716TIP3    H123639   3.760   5.599   1.234 -0.4516 -0.0814 -0.8137
  716TIP3    H223640   3.856   5.716   1.234  0.3168 -0.6358 -3.8173
  717TIP3   OH223641   5.736   0.925  13.951 -0.4883  0.2956  0.0385
  717TIP3    H123642   5.800   0.994  13.970 -0.4402  0.2395  0.0794
  717TIP3    H223643   5.788   0.845  13.944 -0.4503  0.3828 -0.7623
  718TIP3   OH223644   0.321   5.709  10.966  0.0807  0.2568 -0.0687
  718TIP3    H123645   0.367   5.659  10.898 -0.2290  0.4623 -0.4303
  718TIP3    H223646   0.265   5.644  11.008 -2.2067  0.7110 -2.1532
  719TIP3   OH223647   4.062   1.063  13.185 -0.0795 -0.3214  0.0532
  719TIP3    H123648   3.978   1.098  13.156 -0.5265 -0.4072  1.1804
  719TIP3    H223649   4.047   0.969  13.194 -0.1113 -0.2291  1.0380
  720TIP3   OH223650   3.686   1.094  14.135 -0.2577  0.3777 -0.0054
  720TIP3    H123651   3.663   1.164  14.074  0.8935 -0.1705 -1.1024
  720TIP3    H223652   3.775   1.114  14.163 -0.2428 -0.1711  0.3562
  721TIP3   OH223653   4.402   1.919  11.527 -0.3096 -0.1214  0.2449
  721TIP3    H123654   4.425   1.991  11.586 -1.1095  0.1796  0.2016
  721TIP3    H223655   4.327   1.952  11.477 -0.0780 -0.6337 -0.4512
  722TIP3   OH223656   0.957   2.228   4.372  0.1069 -0.0364 -0.1773
  722TIP3    H123657   0.982   2.289   4.441 -1.6221  2.5491 -1.6641
  722TIP3    H223658   1.040   2.189   4.343  1.2587  1.4051  1.0220
  723TIP3   OH223659   1.795   5.576   1.335 -0.0208  0.7319  0.2925
  723TIP3    H123660   1.780   5.507   1.271  0.8249 -0.1124  0.9786
  723TIP3    H223661   1.818   5.530   1.416  2.7465  1.7590  0.2278
  724TIP3   OH223662   4.386   6.649   0.656 -0.1486 -0.2774  0.3442
  724TIP3    H123663   4.387   6.627   0.563 -0.3380 -2.5360  0.8275
  724TIP3    H223664   4.477   6.670   0.677  0.0556 -0.6546 -0.1549
  725TIP3   OH223665   5.482   3.610  12.943 -0.0632 -0.2610  0.2601
  725TIP3    H123666   5.427   3.552  12.890  1.4434 -0.8479 -0.7282
  725TIP3    H223667   5.532   3.661  12.880  1.5633 -0.7653  1.0757
  726TIP3   OH223668   6.460   6.611  15.992  0.0987 -0.0964 -0.7214
  726TIP3    H123669   6.530   6.553  15.962  0.5279  0.9893 -1.8570
  726TIP3    H223670   6.380   6.558  15.982  0.6682 -1.1657  0.1201
  727TIP3   OH223671   0.458   4.669   1.902 -0.2207  0.0001 -0.2200
  727TIP3    H123672   0.433   4.676   1.810 -1.6450 -2.7180 -0.1297
  727TIP3    H223673   0.375   4.669   1.950  0.4059 -0.3775  0.9172
  728TIP3   OH223674   4.901   3.948  16.804 -0.4627  0.0565 -0.4202
  728TIP3    H123675   4.958   3.939  16.728  1.3061 -1.4091  0.9567
  728TIP3    H223676   4.924   4.033  16.841  1.9671 -1.0290  0.8452
  729TIP3   OH223677   0.358   5.404  15.020 -1.1728  0.1595  0.2022
  729TIP3    H123678   0.280   5.379  14.971 -0.1637 -1.6101 -0.5726
  729TIP3    H223679   0.418   5.439  14.954 -0.9352  0.6299  0.6552
  730TIP3   OH223680   4.433   4.036   6.246 -0.3619  0.0139  0.3797
  730TIP3    H123681   4.450   4.079   6.330  1.7334 -0.3091  0.1680
  730TIP3    H223682   4.499   4.073   6.186 -1.2003 -0.4709 -0.8829
  731TIP3   OH223683   2.659   4.722  11.134  0.3297 -0.6034  0.4099
  731TIP3    H123684   2.641   4.790  11.069 -0.1379 -1.6590 -0.6034
  731TIP3    H223685   2.755   4.717  11.136  0.4552  1.2946  1.8376
  732TIP3   OH223686   0.937   6.287  12.847  0.0725 -0.1815 -0.2412
  732TIP3    H123687   1.024   6.326  12.842 -0.2403  0.6167  0.3058
  732TIP3    H223688   0.940   6.234  12.927 -0.0193  0.0441 -0.0872
  733TIP3   OH223689   2.199   0.356   2.618 -0.0193 -0.1138  0.3026
  733TIP3    H123690   2.247   0.300   2.557  1.4806  0.4557  0.8975
  733TIP3    H223691   2.129   0.394   2.566 -0.3385 -1.6023 -0.4053
  734TIP3   OH223692   5.676   5.222   3.849 -0.0081  0.0743 -0.1930
  734TIP3    H123693   5.583   5.209   3.832  0.4008 -0.9316 -1.8808
  734TIP3    H223694   5.692   5.313   3.826 -0.5959  0.3332  0.3607
  735TIP3   OH223695   1.324   4.149  13.551  0.2219  0.5958  0.5334
  735TIP3    H123696   1.419   4.136  13.547  0.2214  0.3909  1.1450
  735TIP3    H223697   1.287   4.072  13.508  0.3195  0.3820  0.8294
  736TIP3   OH223698   0.382   6.701  13.420  0.3818  0.4196 -0.1093
  736TIP3    H123699   0.292   6.689  13.451 -0.1111 -2.2386 -2.2268
  736TIP3    H223700   0.436   6.652  13.482  0.2156  0.7351  0.2912
  737TIP3   OH223701   0.307   0.611  17.109  0.2252 -0.4413 -0.4789
  737TIP3    H123702   0.233   0.657  17.070 -0.9504 -0.6210  1.4197
  737TIP3    H223703   0.360   0.681  17.149  0.4518 -0.4214 -0.8092
  738TIP3   OH223704   0.384   5.819  12.967  0.0944  0.0093  0.4845
  738TIP3    H123705   0.361   5.755  12.899  0.3388 -0.7721  1.1196
  738TIP3    H223706   0.409   5.897  12.918 -0.6502 -0.2182 -0.3033
  739TIP3   OH223707   4.638   6.801   1.188  0.0073  0.0625  0.1417
  739TIP3    H123708   4.720   6.754   1.173 -0.5069 -0.9280  0.2886
  739TIP3    H223709   4.576   6.732   1.214 -0.5810  0.9354  1.1328
  740TIP3   OH223710   3.380   5.767   5.688 -0.1869  0.0589  0.1183
  740TIP3    H123711   3.400   5.848   5.641  1.4081 -0.6587 -0.5172
  740TIP3    H223712   3.361   5.704   5.618 -0.8048 -0.2792  0.5829
  741TIP3   OH223713   3.514   3.527  14.350  0.3622 -0.6944  0.2716
  741TIP3    H123714   3.591   3.499  14.300 -0.9166 -2.3260 -0.8939
  741TIP3    H223715   3.541   3.519  14.441  1.7132 -0.7811 -0.1035
  742TIP3   OH223716   2.587   2.030   1.337  0.1693 -0.0467  0.4118
  742TIP3    H123717   2.500   2.019   1.374  0.7251  0.4207  1.9624
  742TIP3    H223718   2.644   1.977   1.393  0.7301 -1.4839 -1.4107
  743TIP3   OH223719   3.868   4.166   2.427 -0.1851  0.3790 -0.7911
  743TIP3    H123720   3.790   4.156   2.372 -0.3827 -0.4805 -0.3706
  743TIP3    H223721   3.901   4.253   2.405 -1.8005  1.1622 -0.3041
  744TIP3   OH223722   4.657   4.355   5.132 -0.0433 -0.4243  0.4794
  744TIP3    H123723   4.626   4.300   5.205 -1.3884  1.0505  1.0766
  744TIP3    H223724   4.596   4.429   5.131  0.1229 -0.2624 -1.9814
  745TIP3   OH223725   3.056   1.491   2.261 -0.0321  0.4296 -0.1922
  745TIP3    H123726   3.072   1.578   2.299  1.6378 -0.5725  1.6126
  745TIP3    H223727   2.998   1.447   2.324  0.4200 -0.2805 -0.2567
  746TIP3   OH223728   5.191   0.608   4.000  0.6823 -0.4107 -0.3043
  746TIP3    H123729   5.170   0.648   4.085 -1.1722  2.5381 -1.9735
  746TIP3    H223730   5.139   0.527   3.999 -2.0608  1.2047  0.1313
  747TIP3   OH223731   3.360   1.546  16.386 -0.4273 -0.4680  0.2660
  747TIP3    H123732   3.305   1.493  16.443 -0.8385 -0.9365 -0.5466
  747TIP3    H223733   3.449   1.530  16.416 -0.6712 -0.3418  1.0687
  748TIP3   OH223734   3.532   4.166  11.662  0.0566  0.1816 -0.0351
  748TIP3    H123735   3.614   4.139  11.703  1.1549  0.8438 -1.6706
  748TIP3    H223736   3.539   4.134  11.572 -2.0535 -0.8459  0.1249
  749TIP3   OH223737   1.736   4.309  14.386 -0.2899  0.1543 -0.2049
  749TIP3    H123738   1.715   4.300  14.293  1.1876  2.0120 -0.7850
  749TIP3    H223739   1.693   4.391  14.411  0.6942  0.5320  0.2977
  750TIP3   OH223740   6.507   2.367  11.762  0.1175  0.2034  0.7855
  750TIP3    H123741   6.496   2.272  11.767 -0.8159  0.1392 -1.3986
  750TIP3    H223742   6.486   2.399  11.849 -2.7542 -1.3430  0.7596
  751TIP3   OH223743   6.107   1.491  10.698 -0.4177  0.5710 -0.6140
  751TIP3    H123744   6.039   1.423  10.701  2.2111 -2.2719  0.3598
  751TIP3    H223745   6.132   1.495  10.605  0.2759 -0.8594 -0.5243
  752TIP3   OH223746   1.145   0.686   3.239 -0.2553 -0.4989 -0.3556
  752TIP3    H123747   1.172   0.640   3.319  0.6057  2.2778  1.0564
  752TIP3    H223748   1.225   0.727   3.206 -0.7183 -1.0795 -2.3725
  753TIP3   OH223749   1.692   0.966  15.004  0.0565 -0.6332  0.1498
  753TIP3    H123750   1.714   0.885  15.048  2.2991 -0.3973 -0.4339
  753TIP3    H223751   1.598   0.978  15.020  0.0305 -2.4766  1.5922
  754TIP3   OH223752   0.944   5.967  13.618  0.4386  0.0621 -0.0998
  754TIP3    H123753   0.941   5.953  13.713  0.9913 -0.3235 -0.1383
  754TIP3    H223754   0.905   5.887  13.582  2.1740 -0.7334 -0.2670
  755TIP3   OH223755   0.928   2.195   5.753  0.3217  0.1352  0.0837
  755TIP3    H123756   0.839   2.225   5.735 -0.4609 -2.5306 -0.8382
  755TIP3    H223757   0.983   2.243   5.690 -0.6564  0.5967 -0.4314
  756TIP3   OH223758   0.670   0.057   0.651 -0.3331 -0.4119  0.1525
  756TIP3    H123759   0.578   0.081   0.659 -0.3777 -0.2085 -0.8992
  756TIP3    H223760   0.716   0.140   0.641 -0.1381 -0.5729 -0.2866
  757TIP3   OH223761   6.158   6.611   0.196  0.0435  0.1084  0.2979
  757TIP3    H123762   6.197   6.525   0.178  0.1371  0.4494 -1.1931
  757TIP3    H223763   6.118   6.601   0.283  1.8819 -0.7886  1.1035
  758TIP3   OH223764   2.034   1.922   2.003  0.2155 -0.0799 -0.6159
  758TIP3    H123765   2.079   2.003   1.976 -0.7907  0.5309 -0.5202
  758TIP3    H223766   1.972   1.905   1.932  0.9092 -1.1830 -0.9815
  759TIP3   OH223767   6.791   2.344  13.374 -0.0069 -0.4260  0.2235
  759TIP3    H123768   6.802   2.268  13.432 -0.2266  0.5369  1.5866
  759TIP3    H223769   6.736   2.312  13.303 -0.7858 -1.3383  1.1972
  760TIP3   OH223770   1.092   5.016   5.643  0.2055 -0.3831  0.5747
  760TIP3    H123771   1.131   5.051   5.563 -0.7090  1.0283  0.7032
  760TIP3    H223772   1.023   4.957   5.612  0.2254 -0.2828  0.3337
  761TIP3   OH223773   4.511   2.095  11.727 -0.0659  0.2221 -0.9200
  761TIP3    H123774   4.494   2.176  11.775 -1.3724  0.4599 -1.7246
  761TIP3    H223775   4.606   2.087  11.725  0.0637  0.4240  1.3155
  762TIP3   OH223776   1.058   6.164   4.319 -0.3396  0.3661 -0.1837
  762TIP3    H123777   1.110   6.161   4.399  0.0149  2.0854 -0.3087
  762TIP3    H223778   0.976   6.205   4.345 -2.1554 -3.1633  0.2189
  763TIP3   OH223779   3.987   6.635  16.643  0.5789  0.1871  0.1717
  763TIP3    H123780   4.054   6.701  16.662  0.0031  0.8409 -0.0275
  763TIP3    H223781   4.037   6.557  16.619  1.2846  0.2729  1.2721
  764TIP3   OH223782   0.219   4.745  10.858  0.4402 -0.2710 -0.3911
  764TIP3    H123783   0.152   4.740  10.790  2.2764  2.1616 -2.6045
  764TIP3    H223784   0.243   4.838  10.861  3.4840 -0.9621  0.3978
  765TIP3   OH223785   4.715   1.860  16.040  0.2758  0.6541  0.0144
  765TIP3    H123786   4.729   1.924  16.109 -0.1644  1.9440 -1.0487
  765TIP3    H223787   4.634   1.888  15.996 -0.5047 -1.2157  0.1413
  766TIP3   OH223788   4.475   2.865   1.482 -0.7322 -0.1086  0.4741
  766TIP3    H123789   4.450   2.930   1.416 -0.0269 -0.9591 -0.6694
  766TIP3    H223790   4.434   2.896   1.563 -0.0723  1.9858  0.0652
  767TIP3   OH223791   1.676   5.313  16.743  0.0549  0.2410 -0.4295
  767TIP3    H123792   1.702   5.228  16.708  0.4482  0.7260 -1.3632
  767TIP3    H223793   1.629   5.293  16.824  2.8983 -0.7191  1.1279
  768TIP3   OH223794   0.960   0.893   4.511 -0.2957 -0.0593  0.3882
  768TIP3    H123795   1.041   0.897   4.562  0.9543  0.4809 -1.5439
  768TIP3    H223796   0.936   0.985   4.496 -0.8872 -0.2155  0.3405
  769TIP3   OH223797   4.300   5.415   3.815  0.6212 -0.1742 -0.5380
  769TIP3    H123798   4.367   5.407   3.747 -0.2839 -0.5992 -1.3916
  769TIP3    H223799   4.350   5.412   3.897  1.8768  1.6821 -1.1650
  770TIP3   OH223800   4.962   3.731  14.226  0.1363  0.5572 -0.4459
  770TIP3    H123801   4.900   3.679  14.277  0.7730 -0.0241 -0.2431
  770TIP3    H223802   4.986   3.804  14.283 -0.9874  1.2632 -0.8424
  771TIP3   OH223803   6.325   3.799  13.687  0.3242 -0.0683  0.9870
  771TIP3    H123804   6.232   3.774  13.693  0.6039 -0.8430  2.9952
  771TIP3    H223805   6.372   3.715  13.685  1.0806  0.2692  2.9590
  772TIP3   OH223806   1.604   2.759   1.309  0.1461  0.0088 -0.7009
  772TIP3    H123807   1.555   2.695   1.362  0.3798 -0.6120 -1.2259
  772TIP3    H223808   1.561   2.758   1.224  1.2616 -0.7804 -1.2712
  773TIP3   OH223809   0.932   3.156  11.622 -0.0154  0.0645  0.2697
  773TIP3    H123810   0.933   3.248  11.649 -0.9714  0.4196 -0.8163
  773TIP3    H223811   0.891   3.157  11.536 -0.0682 -1.3939  0.2527
  774TIP3   OH223812   5.636   4.535   3.153  0.0309  0.2226 -0.1442
  774TIP3    H123813   5.541   4.539   3.160 -0.0028 -1.0241  0.2453
  774TIP3    H223814   5.666   4.523   3.243  0.5330  0.2130 -0.3103
  775TIP3   OH223815   2.842   2.013   0.373 -0.4166 -0.0894 -0.4874
  775TIP3    H123816   2.770   1.956   0.348  0.1506 -0.4831 -1.2515
  775TIP3    H223817   2.822   2.097   0.332 -1.4024  0.3854  0.8777
  776TIP3   OH223818   5.057   2.113  13.521 -0.4586  0.0886  0.8713
  776TIP3    H123819   5.136   2.097  13.572 -1.2231 -2.2664  1.4466
  776TIP3    H223820   4.985   2.091  13.580 -1.3744 -3.1173 -1.1462
  777TIP3   OH223821   3.646   1.756  10.967  0.4181 -0.0733  0.0885
  777TIP3    H123822   3.643   1.813  11.044 -2.1990  0.3443 -0.2430
  777TIP3    H223823   3.584   1.795  10.906  0.5871 -1.7973 -1.2587
  778TIP3   OH223824   0.900   3.305  14.412 -0.3091 -0.0946  0.1440
  778TIP3    H123825   0.837   3.299  14.484  0.6120 -1.1168  0.8917
  778TIP3    H223826   0.855   3.264  14.338 -0.1483 -1.8828  0.9769
  779TIP3   OH223827   2.807   1.225  12.719 -0.6857 -0.0018  0.4065
  779TIP3    H123828   2.880   1.199  12.776  1.2620 -1.3848 -2.4533
  779TIP3    H223829   2.843   1.295  12.665 -1.6971 -0.2231 -0.5780
  780TIP3   OH223830   0.940   1.084  16.175  0.6178 -0.3096  0.2452
  780TIP3    H123831   0.888   1.140  16.118  1.2227  0.4496  0.4162
  780TIP3    H223832   0.920   1.113  16.264 -0.4850 -1.6332  0.4604
  781TIP3   OH223833   4.406   3.703   4.241  0.0102 -0.0093 -0.0604
  781TIP3    H123834   4.397   3.639   4.171  1.2864 -1.1335  0.7553
  781TIP3    H223835   4.499   3.727   4.241 -0.1127  0.5259  0.7747
  782TIP3   OH223836   4.933   4.099   0.956 -0.3013  0.5923  0.5522
  782TIP3    H123837   4.893   4.091   0.869 -1.4913 -0.4114  1.1579
  782TIP3    H223838   4.878   4.044   1.012  1.3502 -0.0047  1.6459
  783TIP3   OH223839   2.389   4.679   0.098  0.1370 -0.5054  0.3687
  783TIP3    H123840   2.298   4.705   0.080  0.3261 -0.1618 -0.1246
  783TIP3    H223841   2.382   4.618   0.171 -0.6239 -1.5084 -0.4912
  784TIP3   OH223842   3.103   2.573  15.728  0.6064  0.1146  0.2683
  784TIP3    H123843   3.085   2.482  15.703  0.0913  0.3431 -0.2127
  784TIP3    H223844   3.196   2.584  15.712  1.6306 -1.4784  3.9670
  785TIP3   OH223845   4.954   3.187  14.148 -0.2415 -0.0655 -0.0407
  785TIP3    H123846   5.049   3.179  14.155 -0.3448 -1.3182  0.1821
  785TIP3    H223847   4.921   3.102  14.177 -1.3943  0.0503 -0.9514
  786TIP3   OH223848   2.368   2.495  15.443 -0.5816 -0.2473 -0.0951
  786TIP3    H123849   2.343   2.582  15.474  0.6953  0.0148  0.2259
  786TIP3    H223850   2.463   2.497  15.437 -0.5594 -1.4815 -0.5209
  787TIP3   OH223851   5.039   2.913   0.640  0.3433  0.2232 -0.4178
  787TIP3    H123852   4.998   2.882   0.559  1.0906  0.3092 -0.8353
  787TIP3    H223853   4.966   2.923   0.701 -0.0340 -1.5337 -0.5171
  788TIP3   OH223854   6.187   2.441   4.750  0.0821 -0.8912 -0.3023
  788TIP3    H123855   6.215   2.349   4.752 -0.8234 -1.2579 -2.0782
  788TIP3    H223856   6.103   2.441   4.797 -0.0928 -1.0527 -0.6097
  789TIP3   OH223857   4.876   0.313  11.559 -0.4348  0.0543  0.4759
  789TIP3    H123858   4.971   0.302  11.556 -0.4964 -1.5277  2.1471
  789TIP3    H223859   4.862   0.407  11.557  1.0197  0.3090 -1.8021
  790TIP3   OH223860   1.787   6.296  14.105  0.3232 -0.1774  0.0637
  790TIP3    H123861   1.716   6.325  14.163 -0.2004  0.6167 -0.9491
  790TIP3    H223862   1.803   6.205  14.131  0.2232  0.2053  1.5633
  791TIP3   OH223863   4.287   0.335   1.250 -0.3038  0.0682  0.4465
  791TIP3    H123864   4.192   0.337   1.264 -0.0826  0.0414  2.2059
  791TIP3    H223865   4.308   0.241   1.243 -0.5646  0.1032 -1.5956
  792TIP3   OH223866   0.895   4.934   4.309  0.8175  0.6921  1.0513
  792TIP3    H123867   0.809   4.908   4.275  1.2221  1.4210 -0.5844
  792TIP3    H223868   0.882   4.940   4.404 -0.7509  0.1406  0.8994
  793TIP3   OH223869   0.132   0.887  17.110 -0.0951  0.3481 -0.4285
  793TIP3    H123870   0.057   0.864  17.165  0.6508  0.2498  0.5595
  793TIP3    H223871   0.153   0.977  17.136  2.1665 -0.6912  1.7203
  794TIP3   OH223872   3.278   2.567   4.890  0.1059 -0.2728  0.0380
  794TIP3    H123873   3.304   2.659   4.886 -0.1793 -0.0852  1.6059
  794TIP3    H223874   3.183   2.570   4.895  0.0456 -0.7067 -0.7814
  795TIP3   OH223875   6.084   3.649  10.437  0.4717  0.1094 -0.4134
  795TIP3    H123876   6.025   3.579  10.466  0.5776  0.9370  2.0534
  795TIP3    H223877   6.027   3.725  10.426  0.7976  0.4619  0.2510
  796TIP3   OH223878   2.813   4.740   5.707 -0.1422 -0.3425 -0.5986
  796TIP3    H123879   2.785   4.801   5.776 -1.4300 -0.8338 -0.6521
  796TIP3    H223880   2.768   4.771   5.628  0.6645 -0.2836 -1.0483
  797TIP3   OH223881   3.340   5.711  15.226  0.0656 -0.7335  0.3731
  797TIP3    H123882   3.248   5.735  15.224  0.6213  1.7006 -1.7506
  797TIP3    H223883   3.383   5.784  15.270  1.2222 -0.5408 -0.9958
  798TIP3   OH223884   1.252   4.795  13.128 -0.5374  0.2087 -0.4093
  798TIP3    H123885   1.290   4.853  13.194 -0.2686  0.2207 -0.5752
  798TIP3    H223886   1.325   4.773  13.070 -0.3673 -1.2972  0.3492
  799TIP3   OH223887   2.217   1.948  12.751 -0.0783  0.2706  0.6566
  799TIP3    H123888   2.282   1.923  12.686 -0.4524  1.7300 -0.3345
  799TIP3    H223889   2.158   2.007  12.704 -1.1404  0.3037  1.9763
  800TIP3   OH223890   4.271   1.470  15.159 -0.4408 -0.5293 -0.1624
  800TIP3    H123891   4.267   1.416  15.080  0.8578  1.6600 -1.8482
  800TIP3    H223892   4.314   1.415  15.224  1.4212 -1.3688 -1.9886
  801TIP3   OH223893   4.457   4.085  10.817  0.4528  0.2950  0.2784
  801TIP3    H123894   4.375   4.123  10.786  0.8159 -1.1988 -3.0388
  801TIP3    H223895   4.437   3.992  10.828  1.6493 -0.1049 -0.6499
  802TIP3   OH223896   0.713   3.549  13.083  0.1160 -0.0397  0.5100
  802TIP3    H123897   0.763   3.497  13.146 -0.9010 -1.9454 -0.1852
  802TIP3    H223898   0.700   3.633  13.127  0.6780 -0.8034  2.2345
  803TIP3   OH223899   4.000   6.254  13.982 -0.2357 -0.3890 -0.1751
  803TIP3    H123900   4.038   6.234  13.897  0.2527 -0.8773  0.1476
  803TIP3    H223901   4.075   6.278  14.037 -0.4288 -0.9968  0.3671
  804TIP3   OH223902   6.084   2.853   0.490 -0.3688 -0.5527 -0.0718
  804TIP3    H123903   6.150   2.918   0.513 -0.2704  0.8288 -3.6711
  804TIP3    H223904   6.126   2.798   0.424 -2.2310 -0.6567 -1.2567
  805TIP3   OH223905   4.178   2.214  12.922 -0.1242  0.0818  0.0224
  805TIP3    H123906   4.087   2.232  12.899 -0.4845  0.5399  1.6290
  805TIP3    H223907   4.209   2.297  12.958 -0.1175 -0.9393  2.5504
  806TIP3   OH223908   3.440   0.051   2.770  0.2393  0.0083  0.0942
  806TIP3    H123909   3.424  -0.042   2.780 -0.3087  0.2322  1.5055
  806TIP3    H223910   3.533   0.062   2.790 -0.0505 -0.0475  1.6115
  807TIP3   OH223911   6.144   1.036  12.625  0.9354 -0.4873 -0.0504
  807TIP3    H123912   6.070   1.048  12.685  0.3129 -0.0944 -0.8766
  807TIP3    H223913   6.161   1.123  12.590 -0.3127 -1.0487 -2.2703
  808TIP3   OH223914   6.520   5.365   1.800 -0.4819 -0.2696  0.1779
  808TIP3    H123915   6.458   5.300   1.833  0.1807 -0.2966  1.4161
  808TIP3    H223916   6.564   5.321   1.727 -0.3783 -1.0355  0.6965
  809TIP3   OH223917   0.047   6.207   5.571  0.4117 -0.1054  0.1837
  809TIP3    H123918  -0.031   6.256   5.545  0.3280 -0.3444 -0.0140
  809TIP3    H223919   0.098   6.270   5.622  0.2231  0.1371  0.0779
  810TIP3   OH223920   3.680   2.199  16.738 -0.3532 -0.7484 -0.1269
  810TIP3    H123921   3.589   2.173  16.753  0.1032 -0.7549  3.5208
  810TIP3    H223922   3.710   2.232  16.823  3.4419 -1.9255 -0.8236
  811TIP3   OH223923   3.271   4.693  12.914  0.3267 -0.7709 -0.4383
  811TIP3    H123924   3.317   4.775  12.894  1.0396 -0.8349  0.8418
  811TIP3    H223925   3.236   4.706  13.002  0.0671 -1.6781 -0.3978
  812TIP3   OH223926   2.238   1.360   1.612  0.4008 -1.0575  0.0329
  812TIP3    H123927   2.293   1.322   1.544  0.1409 -0.0794 -0.7452
  812TIP3    H223928   2.297   1.371   1.687  1.6416  1.0881 -1.1675
  813TIP3   OH223929   6.112   0.855  15.706  0.0690 -0.3868  0.0654
  813TIP3    H123930   6.138   0.911  15.779 -0.9767 -0.3672  0.4355
  813TIP3    H223931   6.171   0.879  15.635  0.3918  0.3589  0.5776
  814TIP3   OH223932   1.145   5.458  15.991 -0.1546 -0.3281  0.4583
  814TIP3    H123933   1.080   5.402  15.947 -0.7328 -0.4282  1.4033
  814TIP3    H223934   1.195   5.497  15.920  0.1668 -1.9350 -0.2285
  815TIP3   OH223935   6.032   3.490  13.161 -0.3886  0.4116 -0.6052
  815TIP3    H123936   6.070   3.426  13.221 -0.0628  0.1496 -1.0876
  815TIP3    H223937   5.952   3.519  13.205 -1.7940 -2.0324 -1.4089
  816TIP3   OH223938   5.025   5.040   2.576  0.1542 -0.7359 -0.0062
  816TIP3    H123939   4.959   5.040   2.646 -0.7811 -0.6516 -0.8679
  816TIP3    H223940   5.036   5.133   2.554  0.4821 -0.7582  0.0564
  817TIP3   OH223941   1.119   5.886   2.804 -0.2248  0.2492 -0.0191
  817TIP3    H123942   1.069   5.958   2.767 -0.5385 -0.0370 -0.1500
  817TIP3    H223943   1.141   5.831   2.729 -0.4857 -0.0995  0.1595
  818TIP3   OH223944   3.276   5.571   1.845 -0.1565 -0.1505  0.1485
  818TIP3    H123945   3.199   5.625   1.829  0.0682 -0.0446 -0.6368
  818TIP3    H223946   3.317   5.608   1.923 -0.3323  0.4327 -0.0382
  819TIP3   OH223947   2.043   3.071   0.587  0.2189  0.0795 -0.1336
  819TIP3    H123948   2.040   3.034   0.498  0.0199  1.1903 -0.6000
  819TIP3    H223949   2.121   3.127   0.587  0.3071 -0.0337  0.4562
  820TIP3   OH223950   0.029   5.322   4.932 -0.1300  0.6341 -0.0414
  820TIP3    H123951   0.072   5.255   4.879 -1.2435 -0.6978  0.6649
  820TIP3    H223952  -0.054   5.337   4.887 -1.0200 -0.3984  1.1720
  821TIP3   OH223953   3.669   1.560  13.841  0.0161 -0.5457  0.1479
  821TIP3    H123954   3.716   1.492  13.793  0.4338  0.1831 -0.5016
  821TIP3    H223955   3.625   1.513  13.912  0.6492 -1.4294 -0.0215
  822TIP3   OH223956   6.015   1.503  11.733  0.0073 -0.2272  0.3306
  822TIP3    H123957   6.074   1.531  11.803 -1.1662 -1.2711  1.7992
  822TIP3    H223958   6.019   1.408  11.734  0.9080 -0.2696 -1.9044
  823TIP3   OH223959   3.301   1.374   1.891 -0.0548  0.5280 -0.5006
  823TIP3    H123960   3.228   1.341   1.943  0.0017 -0.4591 -1.0165
  823TIP3    H223961   3.349   1.295   1.865  1.7898  1.1973  0.6753
  824TIP3   OH223962   6.710   1.186   0.651  0.3027  0.1486 -0.1649
  824TIP3    H123963   6.766   1.183   0.573  0.5621 -1.4359  0.0413
  824TIP3    H223964   6.771   1.171   0.723  0.1055  1.8864  0.3948
  825TIP3   OH223965   2.272   0.048   3.033 -0.4165 -0.1554  0.0199
  825TIP3    H123966   2.315   0.037   2.948 -0.7784 -0.5707 -0.1138
  825TIP3    H223967   2.216   0.124   3.021  0.2410  0.3639  0.1814
  826TIP3   OH223968   4.460   3.131  13.923  0.0607  0.3172  0.0101
  826TIP3    H123969   4.366   3.123  13.910  0.1895 -2.1746  0.1594
  826TIP3    H223970   4.495   3.044  13.905  2.4808  1.3841 -0.9836
  827TIP3   OH223971   5.521   4.127   1.406  0.0509 -0.0859 -0.2823
  827TIP3    H123972   5.427   4.141   1.417  0.0909  0.5146 -0.7143
  827TIP3    H223973   5.530   4.090   1.318  0.2667  0.3501 -0.4466
  828TIP3   OH223974   6.773   4.299  16.952 -0.0498  0.4136 -0.1660
  828TIP3    H123975   6.731   4.322  16.869 -0.7868  0.1531  0.1250
  828TIP3    H223976   6.729   4.219  16.980  0.0349  0.6207  0.5923
  829TIP3   OH223977   5.683   2.860  12.267  0.0075 -0.3220 -0.0117
  829TIP3    H123978   5.642   2.828  12.186  0.8319  0.6597 -0.8584
  829TIP3    H223979   5.760   2.909  12.236  0.2787  0.1584  1.3743
  830TIP3   OH223980   0.377   4.462  13.779 -0.4210  0.1096 -0.4524
  830TIP3    H123981   0.446   4.487  13.718 -1.2035  0.9114 -1.0422
  830TIP3    H223982   0.417   4.470  13.866  0.6921 -0.9967 -0.8437
  831TIP3   OH223983   3.122   0.016   5.913 -0.2530  0.4686 -0.2012
  831TIP3    H123984   3.182  -0.027   5.852 -0.5602  0.3504 -0.4220
  831TIP3    H223985   3.166   0.098   5.936 -0.6364  1.0476 -1.4612
  832TIP3   OH223986   2.547   3.729  14.923  0.5228 -0.4595 -0.3551
  832TIP3    H123987   2.462   3.738  14.964  1.4085 -3.0455  2.4515
  832TIP3    H223988   2.533   3.667  14.851  0.2689 -2.5898  1.4235
  833TIP3   OH223989   0.312   3.702  13.716 -0.1448  0.5342 -0.0738
  833TIP3    H123990   0.337   3.794  13.714  0.6145  0.3327  0.1246
  833TIP3    H223991   0.381   3.658  13.766 -1.5609  0.1821  1.6974
  834TIP3   OH223992   4.839   1.076  12.047 -0.5682  0.3866 -0.1788
  834TIP3    H123993   4.763   1.119  12.008  0.1472  1.0451 -0.8875
  834TIP3    H223994   4.897   1.059  11.973 -0.7769 -1.7300  0.0871
  835TIP3   OH223995   2.652   6.846   2.452  0.2021 -0.5724 -0.6093
  835TIP3    H123996   2.656   6.860   2.546  2.1509 -3.7810 -0.0605
  835TIP3    H223997   2.687   6.927   2.414  3.6723 -0.7745  1.6984
  836TIP3   OH223998   3.547   2.308  16.242  0.4507 -0.2498 -0.2627
  836TIP3    H123999   3.590   2.377  16.190 -0.1612 -1.8376 -3.1135
  836TIP3    H224000   3.618   2.250  16.267  0.9665  1.2803  2.1279
  837TIP3   OH224001   2.950   5.288  16.029 -0.3802  0.2748  0.0455
  837TIP3    H124002   3.037   5.324  16.015  0.0473 -0.8870 -0.4301
  837TIP3    H224003   2.891   5.362  16.017  0.4088  0.6887 -1.5826
  838TIP3   OH224004   5.602   5.613   1.264  0.3060  0.5180  0.7152
  838TIP3    H124005   5.656   5.650   1.333 -1.6388  2.5998  1.2437
  838TIP3    H224006   5.634   5.655   1.184  0.5781  0.4222  0.7715
  839TIP3   OH224007   3.546   2.400   5.632 -0.0143  0.0308  0.2142
  839TIP3    H124008   3.459   2.367   5.611 -0.0118 -0.6243  1.2147
  839TIP3    H224009   3.587   2.415   5.546 -0.9300 -0.1169 -0.2584
  840TIP3   OH224010   1.622   6.415  16.185 -0.3867  0.6647 -0.3637
  840TIP3    H124011   1.707   6.391  16.220 -0.2099  0.2176 -1.0933
  840TIP3    H224012   1.625   6.511  16.179  0.3656  0.6039 -1.1363
  841TIP3   OH224013   1.310   1.349  14.877 -0.9232 -0.4799  0.3000
  841TIP3    H124014   1.360   1.410  14.823 -1.6697 -1.1896 -1.2534
  841TIP3    H224015   1.332   1.373  14.967  0.8311  0.3414 -0.3112
  842TIP3   OH224016   6.360   3.223  13.437  0.2335 -0.2583  0.2689
  842TIP3    H124017   6.404   3.230  13.522 -0.3887 -3.5292  0.9965
  842TIP3    H224018   6.404   3.150  13.394  0.2391  1.0710 -2.1022
  843TIP3   OH224019   5.501   6.590   0.930 -0.6901 -0.2565  0.3020
  843TIP3    H124020   5.480   6.618   1.019 -1.8243  1.1444 -0.3626
  843TIP3    H224021   5.498   6.670   0.878 -3.6907 -1.4604 -1.6670
  844TIP3   OH224022   0.811   2.036   2.507 -0.9966 -0.1733 -0.4290
  844TIP3    H124023   0.804   2.132   2.504  0.4674 -0.0633 -1.1189
  844TIP3    H224024   0.723   2.007   2.529 -1.3959  1.3457  0.1382
  845TIP3   OH224025   6.115   0.726   2.615  0.2208  0.1869 -0.0821
  845TIP3    H124026   6.203   0.737   2.579  0.3160 -2.3041 -0.8007
  845TIP3    H224027   6.060   0.785   2.563  1.4307  1.8641  0.4567
  846TIP3   OH224028   5.800   1.190   2.799  0.2828  0.0183  0.8417
  846TIP3    H124029   5.744   1.233   2.733  1.0406 -1.1054 -0.5912
  846TIP3    H224030   5.795   1.097   2.778 -0.3123 -0.4978  3.0972
  847TIP3   OH224031   0.542   2.425   5.198 -0.0812  0.2776  0.1044
  847TIP3    H124032   0.608   2.475   5.150 -1.1498  0.5417 -1.1619
  847TIP3    H224033   0.461   2.439   5.149 -1.2294  0.4792  1.9654
  848TIP3   OH224034   1.684   2.895   6.051  0.0015 -0.0803 -0.4427
  848TIP3    H124035   1.676   2.838   5.975 -3.2753  1.1621 -1.1990
  848TIP3    H224036   1.614   2.867   6.110  0.7661  0.7043  0.8823
  849TIP3   OH224037   2.080   1.426   5.784  0.3649  0.2742  0.1708
  849TIP3    H124038   2.068   1.350   5.841  2.1743 -1.6079 -1.8182
  849TIP3    H224039   2.027   1.407   5.706  0.8609  1.0478 -0.3675
  850TIP3   OH224040   0.059   6.508  14.717  0.2818 -0.3089  0.1206
  850TIP3    H124041   0.120   6.475  14.652 -0.3804 -3.1272  0.8255
  850TIP3    H224042   0.112   6.567  14.771  2.5144 -2.7442  0.7879
  851TIP3   OH224043   4.501   0.865  16.506 -0.6290 -0.3449 -0.4772
  851TIP3    H124044   4.468   0.856  16.416 -0.0956  0.0355 -0.7145
  851TIP3    H224045   4.583   0.817  16.506 -0.2324  0.3130 -0.4178
  852TIP3   OH224046   3.810   2.112   5.880 -0.2935  0.1328 -0.4877
  852TIP3    H124047   3.858   2.175   5.934  0.7118 -0.0226 -1.1591
  852TIP3    H224048   3.870   2.037   5.873 -1.1394 -0.5680 -0.3600
  853TIP3   OH224049   1.306   4.619  15.431  0.0466 -0.1387 -0.1210
  853TIP3    H124050   1.289   4.611  15.337 -0.4908 -1.0581  0.0483
  853TIP3    H224051   1.385   4.674  15.436 -0.9922  1.5351 -1.0344
  854TIP3   OH224052   1.941   5.588  15.277 -0.0181 -0.3000  0.0061
  854TIP3    H124053   2.027   5.549  15.291 -0.0741 -0.2900  0.3884
  854TIP3    H224054   1.909   5.547  15.197 -0.5245 -1.8441  0.9620
  855TIP3   OH224055   6.496   4.585   3.462  0.0046 -0.9143  0.3828
  855TIP3    H124056   6.486   4.599   3.368  0.0489 -0.0376  0.4993
  855TIP3    H224057   6.513   4.491   3.471  1.1313 -0.8221 -0.5692
  856TIP3   OH224058   2.445   2.450   4.358  0.2480  0.2641  0.4631
  856TIP3    H124059   2.415   2.523   4.412 -0.0583  0.3700  0.1559
  856TIP3    H224060   2.516   2.410   4.408  0.0058  0.3955  0.9123
  857TIP3   OH224061   1.438   4.969   3.325  0.0917 -0.4054 -0.3031
  857TIP3    H124062   1.531   4.972   3.343  0.0912 -1.3633 -0.0859
  857TIP3    H224063   1.431   4.918   3.244 -0.0637  1.9305 -1.8526
  858TIP3   OH224064   2.248   4.920  11.573 -0.2879  0.2947 -0.1334
  858TIP3    H124065   2.274   4.995  11.626 -0.8374  1.2075 -1.1219
  858TIP3    H224066   2.315   4.914  11.505 -0.6336  0.3441 -0.4833
  859TIP3   OH224067   5.566   1.589  15.815 -0.2688 -0.3151 -0.4972
  859TIP3    H124068   5.608   1.584  15.901 -0.5507  0.4652 -0.3006
  859TIP3    H224069   5.478   1.624  15.834 -0.5928 -0.8435 -1.0220
  860TIP3   OH224070   0.847   3.162   4.076 -0.2884 -0.3790  0.1325
  860TIP3    H124071   0.779   3.155   4.143 -0.1443 -2.5053  0.1238
  860TIP3    H224072   0.914   3.100   4.103  1.2575  1.0225 -0.3521
  861TIP3   OH224073   4.129   2.045  15.740  0.0348 -0.7929  0.6098
  861TIP3    H124074   4.218   2.072  15.762 -0.4281  1.0661  0.3493
  861TIP3    H224075   4.134   2.020  15.648  0.1576  0.0446  0.3747
  862TIP3   OH224076   1.358   3.305  15.290 -0.2643  0.3238  0.2451
  862TIP3    H124077   1.339   3.214  15.271 -1.4686  0.4112  0.9148
  862TIP3    H224078   1.417   3.302  15.366 -0.2329  0.1011  0.2117
  863TIP3   OH224079   3.512   3.512  16.476 -0.0885 -0.0521 -0.0250
  863TIP3    H124080   3.472   3.597  16.492  1.4865  0.7319 -0.0111
  863TIP3    H224081   3.556   3.490  16.558 -2.5813 -2.1592  0.8718
  864TIP3   OH224082   4.297   3.197   2.581  0.2642  0.1907  0.2192
  864TIP3    H124083   4.260   3.122   2.535 -0.9946  2.0934 -2.1317
  864TIP3    H224084   4.227   3.229   2.638  0.8260 -0.4103  1.2853
  865TIP3   OH224085   0.240   2.232  11.933 -0.6807  0.2616  0.0765
  865TIP3    H124086   0.271   2.295  11.999 -1.6944  0.2333  0.6014
  865TIP3    H224087   0.170   2.278  11.887 -0.2559  0.1316 -0.7338
  866TIP3   OH224088   5.081   5.327   2.499 -0.4195 -0.1239 -0.6447
  866TIP3    H124089   5.010   5.385   2.527 -1.2074 -0.7216 -1.3610
  866TIP3    H224090   5.161   5.375   2.521 -1.0419  0.7048 -0.1254
  867TIP3   OH224091   6.029   4.248  14.885 -0.0624  0.0144  0.1661
  867TIP3    H124092   6.083   4.175  14.916  1.6030  0.2337 -1.9525
  867TIP3    H224093   6.088   4.323  14.886 -0.8909  0.6869 -0.4015
  868TIP3   OH224094   4.049   0.791  12.945  0.0425 -0.1939  0.4458
  868TIP3    H124095   4.132   0.769  12.904  0.0732  2.0698 -0.9426
  868TIP3    H224096   3.983   0.764  12.881 -0.0865  0.6843  0.1908
  869TIP3   OH224097   0.652   4.341   4.565  0.1923 -0.2177  0.7490
  869TIP3    H124098   0.584   4.389   4.613 -1.0899  0.1281 -1.2846
  869TIP3    H224099   0.637   4.249   4.586 -0.9782 -0.1476  0.3057
  870TIP3   OH224100   2.500   6.054  16.615  0.3258 -0.8026 -0.1740
  870TIP3    H124101   2.545   5.971  16.600 -1.5671 -1.9048 -0.1583
  870TIP3    H224102   2.409   6.029  16.630 -0.3570  1.3116 -0.4316
  871TIP3   OH224103   5.267   4.382  15.983 -0.4586 -0.3632 -0.5280
  871TIP3    H124104   5.217   4.316  16.032  0.1555 -0.2589  0.2561
  871TIP3    H224105   5.201   4.445  15.955 -0.5457  1.0576  2.5500
  872TIP3   OH224106   1.817   0.367   0.797  0.1498 -0.6039 -0.4123
  872TIP3    H124107   1.780   0.434   0.855 -3.0251 -1.1938 -1.5354
  872TIP3    H224108   1.783   0.285   0.832  0.8475 -1.2502 -1.2388
  873TIP3   OH224109   0.909   5.430   2.429 -0.0710 -0.3977 -0.0411
  873TIP3    H124110   0.918   5.456   2.521  0.2615 -1.1073  0.1366
  873TIP3    H224111   0.819   5.398   2.422 -0.2815  0.2141 -0.1058
  874TIP3   OH224112   5.807   0.238  14.257  0.4914 -0.6029  0.1985
  874TIP3    H124113   5.774   0.298  14.324 -0.5086 -1.1862  0.2489
  874TIP3    H224114   5.765   0.154  14.276  0.4415 -0.8623 -0.9598
  875TIP3   OH224115   0.612   1.364   3.609  0.2122 -0.0735 -0.5719
  875TIP3    H124116   0.629   1.362   3.515  1.6275  0.4330 -0.3571
  875TIP3    H224117   0.654   1.445   3.639 -0.8523  0.1446  0.3888
  876TIP3   OH224118   2.681   2.672   1.404  0.1902 -0.2469  0.1672
  876TIP3    H124119   2.652   2.623   1.326 -1.0714  3.3136 -1.8504
  876TIP3    H224120   2.765   2.709   1.379  0.0209  0.5168  0.7007
  877TIP3   OH224121   3.686   6.758  15.607  0.4195  0.1872 -0.0094
  877TIP3    H124122   3.745   6.683  15.603  0.3660  0.1556 -0.2232
  877TIP3    H224123   3.742   6.834  15.590  0.3065  0.1102 -0.7723
  878TIP3   OH224124   0.947   2.058  11.966  0.8012  0.3900 -0.2652
  878TIP3    H124125   0.881   2.056  11.897  0.1432 -0.5260  0.3578
  878TIP3    H224126   1.025   2.094  11.924 -0.6119  3.4220 -0.5188
  879TIP3   OH224127   5.659   1.245  15.631  0.7188 -0.0722 -0.5136
  879TIP3    H124128   5.581   1.297  15.614 -0.1468 -0.7779  1.0265
  879TIP3    H224129   5.648   1.215  15.721  0.9587 -3.1866 -1.3956
  880TIP3   OH224130   2.530   3.067   2.181 -0.1769 -0.2740  0.1286
  880TIP3    H124131   2.552   3.145   2.231 -0.8350 -1.8719  3.1920
  880TIP3    H224132   2.451   3.033   2.222  0.3005 -2.7589 -0.7685
  881TIP3   OH224133   3.994   3.303  13.457 -0.4044  0.0988 -0.3965
  881TIP3    H124134   3.962   3.222  13.497  2.7265 -0.9935  0.2065
  881TIP3    H224135   4.021   3.278  13.369  0.8916  0.3583 -0.1000
  882TIP3   OH224136   0.763   3.631  15.749 -1.0820 -0.1344 -0.5682
  882TIP3    H124137   0.802   3.638  15.662  0.6931  0.2288  0.2215
  882TIP3    H224138   0.669   3.636  15.733 -0.7681  1.2615 -2.3553
  883TIP3   OH224139   3.159   3.124  10.774 -0.1584 -0.0040  0.1809
  883TIP3    H124140   3.170   3.199  10.832  0.4994  0.2259 -0.2243
  883TIP3    H224141   3.248   3.103  10.746 -0.4028 -0.5355 -0.2144
  884TIP3   OH224142   1.252   2.087  16.767 -0.6828 -0.0308  0.1811
  884TIP3    H124143   1.252   2.164  16.710 -1.2240 -0.3605 -0.2864
  884TIP3    H224144   1.167   2.090  16.811 -1.2942 -1.0645 -0.8555
  885TIP3   OH224145   0.403   1.894  14.399  0.5626 -0.0999  0.0466
  885TIP3    H124146   0.435   1.982  14.377  2.1233 -0.3769  1.0206
  885TIP3    H224147   0.481   1.847  14.427 -0.3664 -1.6005  0.2058
  886TIP3   OH224148   2.174   4.782  13.608  0.4845  0.5102 -0.7396
  886TIP3    H124149   2.252   4.729  13.593 -0.0555 -0.5172 -0.0745
  886TIP3    H224150   2.102   4.719  13.609  0.1564  0.6704  3.3425
  887TIP3   OH224151   5.350   6.283   1.073  0.0878 -0.0443 -0.0187
  887TIP3    H124152   5.363   6.190   1.089 -1.4794 -0.9541 -3.2717
  887TIP3    H224153   5.420   6.307   1.013 -0.8425  0.2558 -1.0110
  888TIP3   OH224154   5.631   4.090   0.564 -0.0509 -0.2257  0.2213
  888TIP3    H124155   5.677   4.093   0.481  0.1442  0.4370  0.3435
  888TIP3    H224156   5.577   4.170   0.565 -1.5336 -1.1780 -0.0966
  889TIP3   OH224157   2.621   3.791  12.188  0.5663  0.1934 -0.3314
  889TIP3    H124158   2.709   3.789  12.225  0.8607 -1.6359 -1.0650
  889TIP3    H224159   2.616   3.715  12.131 -0.5862  1.7613 -2.4731
  890TIP3   OH224160   0.516   2.752   6.460 -0.0308 -0.3337 -0.0860
  890TIP3    H124161   0.524   2.670   6.412  1.8949  0.4122 -1.1471
  890TIP3    H224162   0.559   2.735   6.544 -0.4507 -0.6704  0.0635
  891TIP3   OH224163   0.171   3.119   5.321 -0.1482 -0.7120 -0.0479
  891TIP3    H124164   0.167   3.065   5.399  1.1383 -0.1373  0.4376
  891TIP3    H224165   0.253   3.167   5.328 -0.6671  0.4005 -1.0592
  892TIP3   OH224166   2.327   5.523   5.885 -0.1518  0.0375  0.9779
  892TIP3    H124167   2.356   5.613   5.898 -0.7457  0.3457  0.2833
  892TIP3    H224168   2.234   5.531   5.861 -0.1148 -0.7311  0.5349
  893TIP3   OH224169   5.044   2.478  15.176 -0.5453 -0.2543 -0.4271
  893TIP3    H124170   5.094   2.398  15.159  0.0518 -0.3631  1.6003
  893TIP3    H224171   5.095   2.547  15.134 -0.9566 -0.8786 -2.0167
  894TIP3   OH224172   2.085   6.541  13.261  0.9707  0.2785  0.7407
  894TIP3    H124173   2.105   6.618  13.207 -0.0229 -0.0308 -0.0921
  894TIP3    H224174   2.026   6.574  13.328  0.8142  0.3129  0.5874
  895TIP3   OH224175   1.775   5.503   4.791 -0.7156  0.8322  0.1126
  895TIP3    H124176   1.811   5.414   4.790  0.4120  1.1731  2.5316
  895TIP3    H224177   1.742   5.517   4.702 -1.7596 -2.3089 -0.1066
  896TIP3   OH224178   3.334   1.431  13.748 -0.0375 -0.2693 -0.8448
  896TIP3    H124179   3.363   1.505  13.695 -0.7069  1.2025  0.7490
  896TIP3    H224180   3.238   1.433  13.743 -0.2994  1.4305  2.1992
  897TIP3   OH224181   5.434   2.346   4.945  0.4253  0.7431  0.6821
  897TIP3    H124182   5.441   2.370   5.037 -0.6724  0.4123  0.8741
  897TIP3    H224183   5.381   2.266   4.946 -0.4455  1.2821 -0.2900
  898TIP3   OH224184   5.225   5.660  13.595 -0.0521 -0.1290 -0.5308
  898TIP3    H124185   5.200   5.740  13.642 -0.3855 -0.0673 -0.8124
  898TIP3    H224186   5.165   5.656  13.520 -0.8178 -1.2632  0.1129
  899TIP3   OH224187   1.641   0.297  11.491  0.3192 -0.4132 -0.1201
  899TIP3    H124188   1.698   0.330  11.560 -1.4137 -1.1970  1.7769
  899TIP3    H224189   1.686   0.219  11.458  0.4375 -0.9490  1.2594
  900TIP3   OH224190   6.010   1.443  11.414 -0.0925  0.4243 -0.2628
  900TIP3    H124191   6.071   1.476  11.480 -0.0295  0.4640 -0.3396
  900TIP3    H224192   6.015   1.508  11.343 -0.1565  0.3804 -0.3078
  901TIP3   OH224193   1.576   1.391  13.453  0.0187 -0.3448 -0.5068
  901TIP3    H124194   1.524   1.317  13.422  0.6864 -1.3326  0.6691
  901TIP3    H224195   1.627   1.417  13.376 -0.7672 -0.5987 -1.1375
  902TIP3   OH224196   3.296   2.672   2.632  0.6965  0.0910  0.2791
  902TIP3    H124197   3.323   2.764   2.641  0.8581  0.0497  0.2216
  902TIP3    H224198   3.349   2.639   2.560  1.2869 -0.2922  0.8754
  903TIP3   OH224199   4.857   6.756   0.564 -0.2022  0.0364  0.6156
  903TIP3    H124200   4.937   6.733   0.612 -1.9922 -1.8358  2.9369
  903TIP3    H224201   4.874   6.728   0.474  1.5568 -0.7490  1.1551
  904TIP3   OH224202   5.785   0.653  15.409  0.2316 -0.7513  0.1351
  904TIP3    H124203   5.727   0.655  15.333  0.2066 -1.1964  0.1432
  904TIP3    H224204   5.870   0.626  15.374  0.7834  1.1244 -0.1014
  905TIP3   OH224205   4.705   5.575  14.469 -0.2288  0.0685 -0.7632
  905TIP3    H124206   4.651   5.554  14.393  1.2050 -0.9050 -1.5567
  905TIP3    H224207   4.776   5.629  14.434  0.0933  0.1759  0.0192
  906TIP3   OH224208   0.758   5.239  12.854 -0.5033  0.2040 -0.1754
  906TIP3    H124209   0.665   5.233  12.877 -0.6424 -0.5378 -0.8768
  906TIP3    H224210   0.760   5.227  12.759  0.2675  0.7869 -0.2382
  907TIP3   OH224211   0.839   2.274   3.017  0.5154  0.6444  0.2640
  907TIP3    H124212   0.839   2.183   2.989 -0.7708  0.9382 -0.8177
  907TIP3    H224213   0.932   2.297   3.024  0.8956 -1.1838  2.1922
  908TIP3   OH224214   1.596   5.845  11.467 -0.0940 -0.7118  0.1853
  908TIP3    H124215   1.659   5.786  11.427  1.5986  1.7459 -0.9795
  908TIP3    H224216   1.639   5.874  11.547  1.0139  2.0736 -1.3141
  909TIP3   OH224217   4.133   5.085   1.774 -0.5775 -0.1028 -0.8101
  909TIP3    H124218   4.088   5.112   1.694  0.1752 -0.0557 -1.2295
  909TIP3    H224219   4.100   5.143   1.842 -1.6770 -0.5361 -0.9553
  910TIP3   OH224220   3.012   3.517   1.661  0.6519  0.2962 -0.4366
  910TIP3    H124221   3.031   3.443   1.603 -1.6642  0.1220 -1.0574
  910TIP3    H224222   2.940   3.563   1.619  0.9728  2.0117  0.7640
  911TIP3   OH224223   2.612   1.295   4.300  0.6458  0.2898  0.1559
  911TIP3    H124224   2.655   1.211   4.315 -0.1723  0.2222  2.5593
  911TIP3    H224225   2.530   1.289   4.348 -0.4080  1.7273 -1.3530
  912TIP3   OH224226   2.064   5.755   3.279 -0.4836 -0.5123  0.2052
  912TIP3    H124227   2.052   5.848   3.294  0.4139 -0.0409 -1.7179
  912TIP3    H224228   2.150   5.748   3.237 -1.6303 -1.8750 -2.1175
  913TIP3   OH224229   0.451   2.562  14.861  0.5167  0.4172  0.2977
  913TIP3    H124230   0.464   2.580  14.768 -1.9010  2.6863  0.2864
  913TIP3    H224231   0.439   2.649  14.900  0.9630 -0.5266  2.6610
  914TIP3   OH224232   2.699   5.947  12.130 -0.3587  0.5676 -0.3106
  914TIP3    H124233   2.639   5.953  12.056 -0.1988 -0.0481 -0.5021
  914TIP3    H224234   2.672   6.017  12.190 -1.1604  0.4054 -0.4701
  915TIP3   OH224235   3.367   6.134  15.010  0.5679 -0.1967 -0.5939
  915TIP3    H124236   3.317   6.205  14.971 -0.2833 -1.1457 -1.3042
  915TIP3    H224237   3.348   6.140  15.104 -0.5137 -0.2341 -0.7986
  916TIP3   OH224238   4.224   1.746  14.492  0.3276  0.5769 -0.5256
  916TIP3    H124239   4.258   1.666  14.451  0.5375 -0.5687  1.7204
  916TIP3    H224240   4.266   1.748  14.578 -3.8048  0.0409  1.7520
  917TIP3   OH224241   3.271   3.430  11.613 -0.1851 -0.5550  0.6518
  917TIP3    H124242   3.222   3.465  11.687 -0.3636  0.1979  0.1828
  917TIP3    H224243   3.362   3.428  11.644 -0.4518 -1.7805  1.4574
  918TIP3   OH224244   4.762   1.710   4.480 -0.0206  0.2771  0.1270
  918TIP3    H124245   4.766   1.626   4.434  0.7010  0.1821  0.3588
  918TIP3    H224246   4.824   1.702   4.552 -1.0441  0.4733  1.0593
  919TIP3   OH224247   0.776   4.808  16.994  0.1005 -0.4258  0.1340
  919TIP3    H124248   0.846   4.865  16.965  0.6549 -0.3971  1.4403
  919TIP3    H224249   0.742   4.850  17.073 -0.7726 -0.9082  0.0305
  920TIP3   OH224250   6.831   3.015   3.011 -0.1312 -0.0469 -0.4489
  920TIP3    H124251   6.823   2.927   2.974 -0.4999 -0.0367 -0.3949
  920TIP3    H224252   6.896   3.057   2.956  2.2171 -1.2563  1.2399
  921TIP3   OH224253   5.790   4.230  15.546  0.1753 -0.3505  0.0289
  921TIP3    H124254   5.842   4.247  15.468  0.9301 -0.6414  0.4587
  921TIP3    H224255   5.713   4.182  15.514  0.1486  0.1094 -0.6112
  922TIP3   OH224256   2.648   2.172   1.723  0.4944  0.0665 -0.2900
  922TIP3    H124257   2.563   2.192   1.684  0.5217  0.8141  0.0101
  922TIP3    H224258   2.659   2.239   1.791  1.1070 -0.3153 -0.0085
  923TIP3   OH224259   4.284   0.081   1.895 -0.4676  0.1473 -0.5198
  923TIP3    H124260   4.306  -0.012   1.901 -0.7650  0.1340  0.5617
  923TIP3    H224261   4.195   0.087   1.930  0.2034  1.0670  1.1366
  924TIP3   OH224262   1.639   4.691   4.541 -0.4236  0.1396 -0.2461
  924TIP3    H124263   1.562   4.747   4.525 -0.9983 -0.5917 -0.1023
  924TIP3    H224264   1.602   4.607   4.568  0.4461  0.3561  1.8212
  925TIP3   OH224265   0.731   1.885   3.458 -0.4956 -0.0452  0.1258
  925TIP3    H124266   0.668   1.858   3.390  0.8416  0.2044 -1.2645
  925TIP3    H224267   0.817   1.864   3.420  0.2710 -0.8950  2.2052
  926TIP3   OH224268   1.027   5.256   1.531 -0.8090 -0.0325 -0.3009
  926TIP3    H124269   0.978   5.338   1.531  0.4008  0.8048  2.7522
  926TIP3    H224270   1.003   5.213   1.613  3.1040  0.2111  1.1679
  927TIP3   OH224271   3.562   1.322   3.987 -0.2089  0.1602  0.0643
  927TIP3    H124272   3.601   1.353   3.906  0.4645 -0.1387  0.2687
  927TIP3    H224273   3.542   1.230   3.971  0.2211  0.0126  0.3318
  928TIP3   OH224274   4.162   1.575   4.448 -0.4370 -0.2966 -0.0136
  928TIP3    H124275   4.081   1.581   4.498 -1.4453 -3.4566 -0.9699
  928TIP3    H224276   4.225   1.535   4.508  0.6110  2.3886  0.8100
  929TIP3   OH224277   5.515   4.717  11.911 -0.2074 -0.4083 -0.1356
  929TIP3    H124278   5.499   4.810  11.930  2.2358 -0.2018  1.1949
  929TIP3    H224279   5.528   4.715  11.816  0.2138  0.7029 -0.1226
  930TIP3   OH224280   3.474   6.010  12.533 -0.2966  0.5694  0.0216
  930TIP3    H124281   3.412   5.941  12.557  0.5118 -0.4014 -0.6072
  930TIP3    H224282   3.420   6.089  12.526 -1.1181  0.1840  1.4966
  931TIP3   OH224283   4.113   1.229   5.102 -0.0382  0.2993  0.3522
  931TIP3    H124284   4.196   1.206   5.144  0.1816  1.2501  0.4675
  931TIP3    H224285   4.110   1.174   5.024  0.2243 -0.4612  0.8636
  932TIP3   OH224286   3.403   4.128  13.338  0.0622  0.4752  0.3030
  932TIP3    H124287   3.410   4.037  13.310 -1.1568  0.2020  0.8015
  932TIP3    H224288   3.448   4.178  13.270  1.4038 -0.5443  0.4024
  933TIP3   OH224289   0.163   0.600   6.406  0.2002 -0.2754  0.0862
  933TIP3    H124290   0.077   0.559   6.403 -0.0782  0.3040  0.1985
  933TIP3    H224291   0.207   0.569   6.327 -0.5089  0.3145 -0.5482
  934TIP3   OH224292   6.675   2.441  12.253 -0.1352  0.1400  0.2429
  934TIP3    H124293   6.668   2.347  12.237  0.3870 -0.1824  1.7699
  934TIP3    H224294   6.764   2.464  12.226 -0.7916  0.5928 -1.7742
  935TIP3   OH224295   0.295   6.147  12.539  0.0537 -0.2877 -0.2766
  935TIP3    H124296   0.352   6.223  12.545  1.5678 -1.3682 -0.1702
  935TIP3    H224297   0.215   6.172  12.585  0.2563  1.4335 -0.8133
  936TIP3   OH224298   4.381   4.154  13.396  0.1015  0.3902 -0.1602
  936TIP3    H124299   4.304   4.104  13.371  0.6119 -0.3226 -0.3487
  936TIP3    H224300   4.407   4.118  13.481  1.8779 -1.3930 -1.3723
  937TIP3   OH224301   3.650   1.652   3.072 -0.5586  0.2437 -0.1081
  937TIP3    H124302   3.613   1.708   3.003 -1.1491  0.2561  0.2159
  937TIP3    H224303   3.578   1.640   3.134 -0.5461 -1.1640 -0.3510
  938TIP3   OH224304   3.136   4.417  15.082 -0.3433 -0.3585 -0.3069
  938TIP3    H124305   3.150   4.336  15.131  0.6505 -0.2331 -0.3797
  938TIP3    H224306   3.080   4.391  15.009  1.1066 -1.2918 -1.1362
  939TIP3   OH224307   3.577   6.091   1.949  0.3397 -0.9451  0.3125
  939TIP3    H124308   3.616   6.043   2.023  1.4722 -2.7706 -1.3660
  939TIP3    H224309   3.643   6.087   1.881 -0.2138  1.7082 -0.4667
  940TIP3   OH224310   6.088   6.028   1.880 -0.4565  0.4211 -0.1016
  940TIP3    H124311   6.124   6.054   1.796 -0.4257  0.0198 -0.2119
  940TIP3    H224312   6.020   5.964   1.859  0.6600 -0.9353  0.2657
  941TIP3   OH224313   2.702   3.199  17.123  0.3038  0.0356  0.0208
  941TIP3    H124314   2.677   3.236  17.208 -2.2420  0.3963 -0.7853
  941TIP3    H224315   2.680   3.267  17.060  2.3654 -0.1432 -0.9544
  942TIP3   OH224316   0.405   6.114   4.820  0.2187 -0.4438 -0.3149
  942TIP3    H124317   0.392   6.020   4.803  3.0709 -0.9460 -0.2195
  942TIP3    H224318   0.343   6.134   4.890  0.2747 -2.5525  0.4276
  943TIP3   OH224319   0.906   0.794  16.179  1.1408  0.6772  0.4325
  943TIP3    H124320   0.811   0.795  16.167  1.0120 -1.3647  0.9121
  943TIP3    H224321   0.930   0.886  16.192 -0.6877  1.2812 -0.2007
  944TIP3   OH224322   2.053   1.019  11.252  0.0353 -0.3966  0.0395
  944TIP3    H124323   2.029   0.930  11.224  1.0224 -0.4172 -0.7858
  944TIP3    H224324   2.034   1.020  11.346 -1.1077 -1.0909 -0.1700
  945TIP3   OH224325   0.816   5.251   4.063  0.4874  0.6726  0.2017
  945TIP3    H124326   0.754   5.315   4.027  1.1184  2.3647  1.9019
  945TIP3    H224327   0.773   5.218   4.142  0.5711 -0.2993 -0.1537
  946TIP3   OH224328   2.499   2.995  14.180 -0.0770 -0.5141  0.3117
  946TIP3    H124329   2.450   2.944  14.115  0.3135 -1.6348  0.8624
  946TIP3    H224330   2.513   2.934  14.252  2.0435 -0.2025  0.2295
  947TIP3   OH224331   3.195   2.538  13.930 -0.1054  0.3435  0.0664
  947TIP3    H124332   3.247   2.575  13.858  2.1367 -0.7541  1.0122
  947TIP3    H224333   3.186   2.611  13.992  0.2621  0.5625 -0.1329
  948TIP3   OH224334   4.011   6.200   1.029 -0.2131  0.0466 -0.1095
  948TIP3    H124335   4.017   6.112   1.066 -0.0801  0.3914  0.7061
  948TIP3    H224336   3.939   6.241   1.077  0.0703  0.5572 -0.1197
  949TIP3   OH224337   6.650   1.380   2.187 -0.5335 -0.7674 -0.3422
  949TIP3    H124338   6.693   1.340   2.112  1.3207 -0.8534  0.6979
  949TIP3    H224339   6.620   1.465   2.155 -0.2094 -1.0005 -1.3060
  950TIP3   OH224340   5.660   2.750  12.015 -0.0295  0.0754  0.7646
  950TIP3    H124341   5.746   2.721  11.984 -0.1120 -0.2849  0.8685
  950TIP3    H224342   5.598   2.717  11.950  0.1534  2.9332 -1.0018
  951TIP3   OH224343   3.826   5.921  14.697  0.2802 -0.0163  0.4165
  951TIP3    H124344   3.891   5.909  14.628 -0.4643  0.1298 -0.3249
  951TIP3    H224345   3.792   6.009  14.683 -0.2877 -0.2005  0.6168
  952TIP3   OH224346   1.257   5.159  15.406 -0.4010 -0.2737  0.7815
  952TIP3    H124347   1.332   5.168  15.465 -0.2101 -0.5905  0.5905
  952TIP3    H224348   1.230   5.249  15.387 -1.4163 -0.1429  2.5452
  953TIP3   OH224349   6.721   0.189   0.561 -0.5423  0.2078  1.0238
  953TIP3    H124350   6.635   0.154   0.541 -0.0674 -0.7096  0.5665
  953TIP3    H224351   6.726   0.185   0.657 -0.3324 -1.3891  0.9664
  954TIP3   OH224352   5.018   6.658  14.020  0.3932 -0.2686  0.7502
  954TIP3    H124353   5.018   6.600  14.096 -0.9073 -0.5769  0.5293
  954TIP3    H224354   5.015   6.746  14.058  1.2234 -0.3623  1.0655
  955TIP3   OH224355   1.339   3.219  11.588  0.5574  0.3283  0.7675
  955TIP3    H124356   1.431   3.190  11.595  0.8630  1.2453  0.6410
  955TIP3    H224357   1.305   3.170  11.513  0.2574 -1.7531  2.1892
  956TIP3   OH224358   1.394   1.061  13.053  0.0854  0.3016 -0.1993
  956TIP3    H124359   1.316   1.007  13.037  0.1323  0.0455  0.4186
  956TIP3    H224360   1.362   1.151  13.045 -0.6482  0.2395  1.6306
  957TIP3   OH224361   4.531   2.360  11.829 -0.0794 -0.6625  0.5952
  957TIP3    H124362   4.594   2.432  11.817 -0.1102 -0.2440  2.6054
  957TIP3    H224363   4.447   2.404  11.840 -0.4239 -1.1280 -0.1020
  958TIP3   OH224364   6.111   5.299   3.033  0.2069  0.1848  0.1943
  958TIP3    H124365   6.077   5.282   3.121  0.4215  2.2677  0.7435
  958TIP3    H224366   6.089   5.391   3.017  0.5780 -0.0361 -1.7599
  959TIP3   OH224367   4.979   2.726  12.606  0.3266  0.1680 -0.5004
  959TIP3    H124368   4.897   2.693  12.642 -0.6430  1.2947 -1.6069
  959TIP3    H224369   5.047   2.676  12.652 -0.9898 -1.4511 -0.2335
  960TIP3   OH224370   1.375   4.882  14.320 -0.0711  0.3531 -0.7201
  960TIP3    H124371   1.462   4.902  14.286  0.7145  0.2191  1.0765
  960TIP3    H224372   1.333   4.967  14.332  1.3479  0.7550  2.1154
  961TIP3   OH224373   5.303   5.557  13.294 -0.4966 -0.0810 -0.0117
  961TIP3    H124374   5.214   5.556  13.258 -0.2743 -0.1330 -0.5847
  961TIP3    H224375   5.326   5.650  13.296  0.3255 -0.1675 -2.2080
  962TIP3   OH224376   3.747   6.556   5.752  0.0209 -0.1377  0.1303
  962TIP3    H124377   3.808   6.487   5.729 -0.6164  0.3818 -3.6962
  962TIP3    H224378   3.700   6.522   5.828  1.1854 -2.9587 -0.3002
  963TIP3   OH224379   1.582   6.808  15.225  0.1538  0.6510  0.6805
  963TIP3    H124380   1.501   6.806  15.174 -1.3336 -0.3036  2.9117
  963TIP3    H224381   1.642   6.751  15.177 -0.7674  0.6997 -0.5747
  964TIP3   OH224382   4.656   2.447  14.159 -0.7473 -0.3244 -1.0156
  964TIP3    H124383   4.711   2.401  14.095 -0.4318  0.0225 -0.9980
  964TIP3    H224384   4.686   2.538  14.155 -0.8699 -0.2608 -0.5241
  965TIP3   OH224385   3.704   1.083   5.732  0.1993  0.0834  0.8226
  965TIP3    H124386   3.797   1.083   5.754  0.0646 -2.3851  1.7165
  965TIP3    H224387   3.702   1.105   5.639  1.5984  0.9682  0.9754
  966TIP3   OH224388   4.205   3.380  14.121  0.1981 -0.4195 -0.9782
  966TIP3    H124389   4.211   3.464  14.075  0.8011 -0.4509 -0.9643
  966TIP3    H224390   4.248   3.396  14.205 -1.0389 -0.3139 -0.3365
  967TIP3   OH224391   0.979   3.287   5.782  0.0549  0.4993 -0.0179
  967TIP3    H124392   0.915   3.299   5.712 -1.2757  3.3364  1.4922
  967TIP3    H224393   1.043   3.226   5.746 -0.6350  1.6448 -3.6289
  968TIP3   OH224394   0.612   1.518   0.904 -0.4020 -0.0875  0.4065
  968TIP3    H124395   0.536   1.544   0.852  0.3908  1.8967  0.1611
  968TIP3    H224396   0.581   1.525   0.995 -0.7810 -0.2367  0.2929
  969TIP3   OH224397   0.391   1.300   3.241 -0.1388  0.1327 -0.4957
  969TIP3    H124398   0.396   1.213   3.201 -0.3428 -0.0972 -0.0317
  969TIP3    H224399   0.362   1.358   3.171 -0.9770 -0.3516 -0.5529
  970TIP3   OH224400   0.744   5.257   1.828 -0.3605  0.1770  0.2412
  970TIP3    H124401   0.665   5.255   1.883 -0.7346 -0.6486 -0.2988
  970TIP3    H224402   0.719   5.208   1.749 -0.0754  1.9717 -1.0162
  971TIP3   OH224403   4.698   5.761   2.317 -0.3602 -0.1249 -0.5598
  971TIP3    H124404   4.672   5.744   2.408  2.9532 -1.3695  0.2902
  971TIP3    H224405   4.728   5.851   2.318 -0.2716 -0.1555 -0.4097
  972TIP3   OH224406   5.263   6.631   0.393  0.0327  0.2558  0.4031
  972TIP3    H124407   5.253   6.654   0.301  2.4018  0.4107  0.1344
  972TIP3    H224408   5.173   6.628   0.427 -0.9499 -0.7179 -2.0924
  973TIP3   OH224409   4.775   4.516   1.346 -0.2238  0.3332  0.2894
  973TIP3    H124410   4.805   4.455   1.279  1.5051  0.5075  0.8457
  973TIP3    H224411   4.680   4.504   1.349  0.0322 -2.3457  0.4020
  974TIP3   OH224412   4.143   4.275   3.632 -0.1147  0.4594  0.0749
  974TIP3    H124413   4.103   4.345   3.684 -0.7286  0.6106 -0.5846
  974TIP3    H224414   4.102   4.282   3.546  0.4329 -0.1823 -0.2533
  975TIP3   OH224415   3.287   4.988  15.107  0.0235  0.0023  0.2942
  975TIP3    H124416   3.261   4.960  15.020  0.8452 -0.4912  0.1899
  975TIP3    H224417   3.285   5.083  15.104  0.7466 -0.0012 -0.4872
  976TIP3   OH224418   3.309   2.710  15.554 -0.0722 -0.1753  0.3868
  976TIP3    H124419   3.381   2.773  15.546 -0.4812  0.3330  0.5831
  976TIP3    H224420   3.236   2.753  15.509 -0.3888 -0.4665  0.6217
  977TIP3   OH224421   4.426   0.180  13.696  0.1263  0.1241  0.1961
  977TIP3    H124422   4.458   0.090  13.698  1.3732  0.5573  1.2832
  977TIP3    H224423   4.336   0.175  13.730  0.6132 -0.5663  1.4328
  978TIP3   OH224424   0.642   1.492   5.278  0.5237 -0.2592 -0.4703
  978TIP3    H124425   0.574   1.514   5.215  0.9321  1.1557 -0.4551
  978TIP3    H224426   0.595   1.481   5.361  0.4434  3.7471  0.2664
  979TIP3   OH224427   4.131   6.331   4.042  0.1015 -0.1156  0.5305
  979TIP3    H124428   4.151   6.237   4.038 -1.6452 -0.5041 -0.1016
  979TIP3    H224429   4.164   6.366   3.959 -0.4277 -0.4594  0.1606
  980TIP3   OH224430   5.130   2.529   4.550  0.5266  0.1626 -0.5986
  980TIP3    H124431   5.217   2.540   4.589 -0.2477  2.1572  0.7334
  980TIP3    H224432   5.071   2.572   4.612 -1.1419  0.7732 -2.5239
  981TIP3   OH224433   1.057   1.860  16.185  0.7272 -0.1691  0.3290
  981TIP3    H124434   1.106   1.796  16.134  0.8212  0.6144 -0.5803
  981TIP3    H224435   1.114   1.879  16.260  1.5479  0.2632 -0.3893
  982TIP3   OH224436   2.137   3.068   2.074 -0.2517  0.5366 -0.0967
  982TIP3    H124437   2.225   3.095   2.046  0.7651 -0.8220  1.6095
  982TIP3    H224438   2.078   3.115   2.014  1.6308  0.8246 -1.8479
  983TIP3   OH224439   0.721   4.594   1.200 -0.1943  0.0675  0.0268
  983TIP3    H124440   0.732   4.502   1.175 -1.4086 -0.5260  1.5250
  983TIP3    H224441   0.810   4.624   1.221  0.0639 -1.1949  0.8682
  984TIP3   OH224442   2.996   0.692   0.954  0.1113 -0.3814 -0.5870
  984TIP3    H124443   2.939   0.763   0.983  0.9120  0.6563 -1.4666
  984TIP3    H224444   2.957   0.663   0.871  0.0067 -0.7099 -0.4244
  985TIP3   OH224445   5.913   3.826   0.898 -0.0377 -0.1649 -0.0191
  985TIP3    H124446   5.918   3.858   0.808 -0.0653  0.3899  0.1743
  985TIP3    H224447   5.842   3.876   0.938 -1.1480 -1.5848 -0.1541
  986TIP3   OH224448   2.688   3.413   2.961 -0.2353  0.3916 -0.2957
  986TIP3    H124449   2.770   3.414   2.910 -0.4136  0.5413 -0.5858
  986TIP3    H224450   2.681   3.324   2.994 -0.7790 -0.0892 -1.6257
  987TIP3   OH224451   6.068   3.196  14.545  0.0308 -0.1799  0.3533
  987TIP3    H124452   5.995   3.231  14.597 -0.4260 -1.4113  0.5971
  987TIP3    H224453   6.117   3.141  14.607 -0.4326 -1.5470 -0.4443
  988TIP3   OH224454   2.684   3.628   1.137 -0.1458 -0.5848  0.3073
  988TIP3    H124455   2.605   3.608   1.187  0.4807 -1.4044  0.9972
  988TIP3    H224456   2.661   3.706   1.086 -1.7868 -1.5090 -0.4404
  989TIP3   OH224457   4.630   4.993   1.465 -0.3279  0.0826 -0.3139
  989TIP3    H124458   4.580   4.992   1.546  0.0908 -2.8414  0.0226
  989TIP3    H224459   4.586   4.930   1.408  1.2513 -0.3788 -1.0974
  990TIP3   OH224460   5.446   3.182   3.216  0.0565 -0.1413  0.0454
  990TIP3    H124461   5.353   3.194   3.236  0.1735  0.8344  0.0473
  990TIP3    H224462   5.458   3.087   3.214 -0.7579 -0.2732  0.8867
  991TIP3   OH224463   2.496   5.521   3.623  0.0946  0.1079  0.3597
  991TIP3    H124464   2.542   5.602   3.648  0.2752 -0.0522  0.5558
  991TIP3    H224465   2.524   5.504   3.533  1.7031 -0.8572  0.9948
  992TIP3   OH224466   0.956   0.133   2.224  0.7353 -0.4720  0.5742
  992TIP3    H124467   0.940   0.039   2.213  1.1842 -0.6662  1.5178
  992TIP3    H224468   0.986   0.142   2.314  1.3870  0.4826  0.2761
  993TIP3   OH224469   5.380   0.809   5.631  0.0659  0.3211 -0.7633
  993TIP3    H124470   5.369   0.881   5.694  1.0073 -1.4521  1.5798
  993TIP3    H224471   5.452   0.837   5.575  1.4546  0.6557  1.0837
  994TIP3   OH224472   2.808   4.790   0.455 -0.0281  0.6978  0.9845
  994TIP3    H124473   2.795   4.703   0.491 -0.7958  0.3099 -0.1936
  994TIP3    H224474   2.806   4.848   0.532  0.2920 -0.2806  1.7522
  995TIP3   OH224475   0.517   0.077  17.159  0.3586  0.1421 -0.0004
  995TIP3    H124476   0.575   0.002  17.168  0.2478 -0.2995 -2.2146
  995TIP3    H224477   0.429   0.039  17.163  0.3047  0.0371 -1.5522
  996TIP3   OH224478   2.110   0.117   3.275 -0.4706  0.1480  0.7253
  996TIP3    H124479   2.035   0.077   3.319 -1.1074 -0.1398 -0.5750
  996TIP3    H224480   2.166   0.043   3.252 -0.3815  0.2455  0.6276
  997TIP3   OH224481   0.728   0.751   0.968  0.4648 -0.5293 -0.8057
  997TIP3    H124482   0.766   0.674   1.011 -0.5082 -0.3229  0.4996
  997TIP3    H224483   0.750   0.824   1.026 -1.7902 -0.3942 -0.0266
  998TIP3   OH224484   0.621   0.838  16.203  0.1166  0.0710 -0.5021
  998TIP3    H124485   0.621   0.801  16.114  0.8843 -1.6214  0.1593
  998TIP3    H224486   0.553   0.790  16.249 -0.4967  1.1629 -0.2273
  999TIP3   OH224487   2.032   0.892  14.693 -0.6456 -0.1527 -0.4393
  999TIP3    H124488   2.083   0.815  14.667 -0.9833 -0.7775  0.7038
  999TIP3    H224489   1.957   0.857  14.741 -0.8672  0.8800 -0.0049
 1000TIP3   OH224490   5.710   1.108  11.057 -0.3674  1.0273 -0.1665
 1000TIP3    H124491   5.707   1.123  10.962 -0.7534 -0.4254 -0.4133
 1000TIP3    H224492   5.630   1.058  11.075  1.8118 -2.6884  0.1288
 1001TIP3   OH224493   1.427   2.830  16.547  0.0436 -0.0148  0.3390
 1001TIP3    H124494   1.392   2.840  16.635 -0.3441  0.9524  0.0903
 1001TIP3    H224495   1.357   2.860  16.490 -0.5198 -2.5705 -0.4425
 1002TIP3   OH224496   1.483   3.276   5.634 -0.0713  0.8381 -0.2926
 1002TIP3    H124497   1.498   3.335   5.560  0.1470  0.6958 -0.3626
 1002TIP3    H224498   1.557   3.216   5.633 -1.0051 -0.3464 -1.0914
 1003TIP3   OH224499   1.747   4.853   6.451 -0.5625  0.1293  0.3935
 1003TIP3    H124500   1.663   4.894   6.430 -0.2049 -0.8491 -3.5908
 1003TIP3    H224501   1.813   4.909   6.410  0.8135  0.4733  2.8262
 1004TIP3   OH224502   2.708   0.547   0.557 -0.1935 -0.8861  0.2913
 1004TIP3    H124503   2.626   0.517   0.595  0.3378 -0.8680  1.4892
 1004TIP3    H224504   2.746   0.605   0.623  0.6501 -0.6688 -0.3625
 1005TIP3   OH224505   5.607   1.563   3.077 -0.0496 -0.0154  0.5706
 1005TIP3    H124506   5.662   1.507   3.022  0.2951  0.2556  0.6302
 1005TIP3    H224507   5.662   1.582   3.154  0.3135  1.3925 -0.0149
 1006TIP3   OH224508   4.563   1.226   6.423  0.1958  0.3816  0.5939
 1006TIP3    H124509   4.651   1.249   6.394  0.9296  2.2751  3.8264
 1006TIP3    H224510   4.576   1.174   6.502 -1.6383 -0.9805  0.0765
 1007TIP3   OH224511   3.470   1.887   5.030  0.2766  0.1627  0.2643
 1007TIP3    H124512   3.467   1.815   4.966 -1.1293 -1.2098  1.7678
 1007TIP3    H224513   3.516   1.957   4.985  1.2099 -1.4754 -1.4954
 1008TIP3   OH224514   5.856   0.761  11.610  0.3522 -0.6725  0.0234
 1008TIP3    H124515   5.869   0.719  11.695  0.8050  1.5088  1.1044
 1008TIP3    H224516   5.827   0.691  11.552 -0.1894 -2.1744  2.0323
 1009TIP3   OH224517   0.577   1.192  12.735  0.1897  0.5070 -0.1359
 1009TIP3    H124518   0.625   1.267  12.770  0.3644  0.1114  0.4892
 1009TIP3    H224519   0.558   1.216  12.645 -0.4445  1.6499  0.2697
 1010TIP3   OH224520   2.152   2.273   0.982 -0.1617  0.0385  0.0889
 1010TIP3    H124521   2.066   2.263   1.022 -0.9124  1.6719 -0.9930
 1010TIP3    H224522   2.148   2.219   0.903  1.1886 -2.8857  1.8790
 1011TIP3   OH224523   1.748   5.921  12.968  0.2574  0.8355  0.0181
 1011TIP3    H124524   1.671   5.953  13.015  1.6384  1.5071  1.9346
 1011TIP3    H224525   1.736   5.826  12.965 -1.2736  1.0304 -0.9229
 1012TIP3   OH224526   6.508   1.325   6.016  0.7059  0.1442 -0.3332
 1012TIP3    H124527   6.497   1.300   6.107 -0.3658 -0.4616 -0.6061
 1012TIP3    H224528   6.552   1.250   5.975  1.0457  0.3494 -0.3425
 1013TIP3   OH224529   1.162   1.511   4.218 -0.5513 -0.3340  0.0953
 1013TIP3    H124530   1.256   1.507   4.205 -0.3678 -1.9293  1.6557
 1013TIP3    H224531   1.150   1.577   4.287 -0.6839  0.5721 -0.7717
 1014TIP3   OH224532   3.324   5.645  11.369 -0.0220 -1.3588  0.4022
 1014TIP3    H124533   3.340   5.728  11.323  1.1592 -1.0295  1.3600
 1014TIP3    H224534   3.354   5.578  11.308  0.3963 -0.9953  0.1976
 1015TIP3   OH224535   5.624   5.165  12.990  0.3556 -0.4071  0.0374
 1015TIP3    H124536   5.536   5.186  13.021 -0.3924  0.0724 -2.2812
 1015TIP3    H224537   5.634   5.215  12.909  1.9711 -2.0717 -0.8658
 1016TIP3   OH224538   1.953   3.961   4.030  0.8144 -0.0443  0.1436
 1016TIP3    H124539   1.889   3.932   3.965  0.2867  1.1384  0.1152
 1016TIP3    H224540   1.937   3.904   4.105 -0.9488  0.8250  0.4881
 1017TIP3   OH224541   1.161   6.635  12.366 -0.4796  0.3983  0.3548
 1017TIP3    H124542   1.110   6.702  12.319 -0.0389  0.8734  0.5489
 1017TIP3    H224543   1.181   6.675  12.450  1.0795  0.6095 -0.0974
 1018TIP3   OH224544   3.992   1.728  13.012 -0.2352  0.2003  0.0698
 1018TIP3    H124545   4.085   1.714  13.028 -0.1649  0.6611  0.0598
 1018TIP3    H224546   3.984   1.822  12.996 -0.9579  0.4762  1.8225
 1019TIP3   OH224547   4.772   2.346  17.170 -0.2632 -0.3482 -0.1090
 1019TIP3    H124548   4.721   2.392  17.103 -0.3659 -1.7242 -1.0075
 1019TIP3    H224549   4.844   2.407  17.190 -0.8996  0.5892 -0.5843
 1020TIP3   OH224550   2.294   5.145  16.617  0.3895  0.1689 -0.4807
 1020TIP3    H124551   2.290   5.179  16.527 -0.6768 -0.4712 -0.6924
 1020TIP3    H224552   2.260   5.056  16.610 -0.5231  0.4051  0.6946
 1021TIP3   OH224553   5.967   1.329   1.323  0.2076 -0.2203 -0.2431
 1021TIP3    H124554   5.977   1.369   1.409  0.1719  1.1257 -0.8412
 1021TIP3    H224555   6.033   1.259   1.322  0.4907  0.0158  0.7141
 1022TIP3   OH224556   3.861   4.564   3.373  1.0149  0.1133  0.3537
 1022TIP3    H124557   3.827   4.650   3.398 -0.4984 -0.3995  0.1498
 1022TIP3    H224558   3.838   4.555   3.280  0.9933 -0.5789  0.4168
 1023TIP3   OH224559   4.140   0.303  13.735 -0.8644 -0.0142  0.2559
 1023TIP3    H124560   4.142   0.366  13.663  0.6756 -0.0749  0.2127
 1023TIP3    H224561   4.169   0.352  13.812  0.4502 -0.6626  0.1992
 1024TIP3   OH224562   1.906   2.370   2.806 -0.2776 -0.0397 -0.3825
 1024TIP3    H124563   1.929   2.350   2.715 -0.1375 -0.9748 -0.1589
 1024TIP3    H224564   1.811   2.373   2.806 -0.2857 -0.2253 -0.5311
 1025TIP3   OH224565   2.781   3.754   2.802 -0.1821  0.6554 -0.1474
 1025TIP3    H124566   2.701   3.715   2.836 -0.2292 -0.8932 -1.8691
 1025TIP3    H224567   2.851   3.701   2.841 -0.0681  0.9990  0.1198
 1026TIP3   OH224568   0.710   0.232  16.357 -0.2227 -0.4201 -0.4929
 1026TIP3    H124569   0.686   0.151  16.311  0.1339 -0.8214  0.0113
 1026TIP3    H224570   0.637   0.292  16.340 -0.4906 -0.8467 -0.8749
 1027TIP3   OH224571   4.335   2.319   6.019 -0.0440  0.3426  0.5680
 1027TIP3    H124572   4.268   2.279   5.962  0.2285  0.5077  0.1248
 1027TIP3    H224573   4.312   2.412   6.021 -1.2870  0.0460  2.4288
 1028TIP3   OH224574   3.682   6.283   3.994  0.1736 -0.4713  0.1202
 1028TIP3    H124575   3.770   6.301   4.027  0.2595  0.5767 -0.6296
 1028TIP3    H224576   3.642   6.369   3.983  0.1006 -0.7485 -2.3205
 1029TIP3   OH224577   2.613   4.546   1.307 -0.1408 -0.0051 -0.2902
 1029TIP3    H124578   2.564   4.466   1.329 -0.1684  0.4707  1.6247
 1029TIP3    H224579   2.580   4.572   1.222 -2.0399 -0.6267  0.2049
 1030TIP3   OH224580   1.244   5.597  15.778 -0.7013 -0.3358  0.1725
 1030TIP3    H124581   1.277   5.550  15.701 -0.3723  1.3239 -0.7646
 1030TIP3    H224582   1.158   5.631  15.750 -1.0509 -0.5850  0.9147
 1031TIP3   OH224583   3.050   3.767   1.806  0.2831 -0.4270  0.0891
 1031TIP3    H124584   2.989   3.826   1.850  0.1842  0.8319 -1.6269
 1031TIP3    H224585   2.998   3.690   1.785 -0.6153  0.3947 -0.8507
 1032TIP3   OH224586   6.808   3.140   0.391 -0.1178  0.0555  0.2311
 1032TIP3    H124587   6.875   3.091   0.344  0.3669  0.5342  0.4197
 1032TIP3    H224588   6.836   3.231   0.386  1.2241 -0.0473  3.4015
 1033TIP3   OH224589   5.079   3.484  15.159  0.9006  0.5119  0.6236
 1033TIP3    H124590   5.097   3.394  15.185 -2.0977 -0.0512  1.1042
 1033TIP3    H224591   4.996   3.506  15.202 -0.4201  2.1821 -2.4164
 1034TIP3   OH224592   1.177   1.524   0.508 -0.1016 -0.2295  0.1233
 1034TIP3    H124593   1.127   1.569   0.440  3.7299  0.7753 -2.4045
 1034TIP3    H224594   1.211   1.446   0.465  2.1055  0.2133  0.9136
 1035TIP3   OH224595   2.121   1.230  13.741 -0.0653  0.1099 -0.2304
 1035TIP3    H124596   2.091   1.186  13.820  1.4665  0.3987  0.5485
 1035TIP3    H224597   2.043   1.239  13.687 -0.5976 -2.9997 -0.1575
 1036TIP3   OH224598   2.698   3.464  11.979 -0.5430 -0.0771 -0.0804
 1036TIP3    H124599   2.737   3.437  12.062  0.5739 -0.3040 -0.6649
 1036TIP3    H224600   2.725   3.398  11.916 -0.4850  0.6574 -0.8494
 1037TIP3   OH224601   1.160   1.126  11.718 -0.7438  0.2600 -0.0132
 1037TIP3    H124602   1.184   1.219  11.721  3.6111 -0.6845 -0.1204
 1037TIP3    H224603   1.192   1.091  11.801  2.8192 -2.0435 -2.1253
 1038TIP3   OH224604   0.403   0.013   3.621 -0.4563 -0.3099 -0.1602
 1038TIP3    H124605   0.345  -0.027   3.556 -1.3933  1.9466 -0.8439
 1038TIP3    H224606   0.443   0.087   3.575 -0.3732  0.7524  1.5144
 1039TIP3   OH224607   5.921   5.747   2.940  0.2788  0.0712 -0.3060
 1039TIP3    H124608   5.957   5.673   2.989  2.5068  1.8408  0.9190
 1039TIP3    H224609   5.882   5.803   3.007  1.4987  1.5214 -0.7451
 1040TIP3   OH224610   0.675   6.295  14.699 -0.6187  0.7603 -0.2177
 1040TIP3    H124611   0.758   6.264  14.735  0.0865  2.4457 -0.2884
 1040TIP3    H224612   0.678   6.269  14.607 -0.4658  0.2461 -0.0702
 1041TIP3   OH224613   5.508   4.249   3.503 -0.2054  0.6074  0.1008
 1041TIP3    H124614   5.477   4.183   3.441 -1.4843  0.9044  0.4015
 1041TIP3    H224615   5.478   4.218   3.588 -1.1001  1.7218  0.2140
 1042TIP3   OH224616   2.767   4.321  13.277 -0.6380  0.0948  0.1684
 1042TIP3    H124617   2.728   4.236  13.257 -0.5731 -0.1269  0.9670
 1042TIP3    H224618   2.860   4.310  13.256 -0.5113 -0.2382  0.8582
 1043TIP3   OH224619   6.655   3.392  14.165  0.1302 -0.4125 -0.3185
 1043TIP3    H124620   6.587   3.377  14.231  2.0556  1.0380  2.1626
 1043TIP3    H224621   6.673   3.486  14.171  0.5772 -0.2589 -2.8245
 1044TIP3   OH224622   4.297   1.560  15.540 -0.3748  0.2262  0.0286
 1044TIP3    H124623   4.382   1.604  15.540 -0.5596  0.5937 -0.3453
 1044TIP3    H224624   4.271   1.558  15.448 -0.9583  0.4768  0.1856
 1045TIP3   OH224625   0.132   0.895  13.588  0.1243  0.8485 -0.4765
 1045TIP3    H124626   0.200   0.832  13.613 -1.6527 -1.1926 -0.4621
 1045TIP3    H224627   0.146   0.970  13.645  3.3689  1.2710 -1.6071
 1046TIP3   OH224628   1.402   1.887   5.784  0.1156 -0.3150  0.2921
 1046TIP3    H124629   1.473   1.948   5.804  0.0762 -0.2989  0.3832
 1046TIP3    H224630   1.387   1.897   5.690 -0.8946  0.8885  0.5600
 1047TIP3   OH224631   4.757   3.982  14.042  0.5031 -1.0492 -0.3560
 1047TIP3    H124632   4.697   4.054  14.023 -0.2738 -1.4114  0.6261
 1047TIP3    H224633   4.773   3.989  14.136  0.5798 -2.0327 -0.2912
 1048TIP3   OH224634   6.782   0.415   3.861  0.1002 -0.4025  0.4239
 1048TIP3    H124635   6.737   0.346   3.813  1.1153 -0.4843 -0.4398
 1048TIP3    H224636   6.856   0.372   3.903  0.6136  0.1020  0.0597
 1049TIP3   OH224637   2.195   4.864  15.328  0.6912 -0.6848 -0.5389
 1049TIP3    H124638   2.185   4.811  15.249 -5.3031 -1.7151  0.4372
 1049TIP3    H224639   2.150   4.947  15.308 -0.3117 -0.6824  1.4290
 1050TIP3   OH224640   1.429   5.581  11.294 -0.4281 -0.7209 -0.4893
 1050TIP3    H124641   1.486   5.635  11.240 -0.5833  0.7626  0.7812
 1050TIP3    H224642   1.353   5.636  11.312  0.1196 -0.7002  2.1642
 1051TIP3   OH224643   3.231   6.520  11.812 -0.0889 -0.7607 -0.1976
 1051TIP3    H124644   3.187   6.605  11.809 -0.2784 -0.7919  1.1643
 1051TIP3    H224645   3.265   6.507  11.723 -0.8480  0.3123 -0.6587
 1052TIP3   OH224646   5.651   6.498  11.298 -0.0703  0.1007  0.0743
 1052TIP3    H124647   5.695   6.439  11.359 -0.9115 -1.5727 -0.8454
 1052TIP3    H224648   5.721   6.548  11.257  0.9364 -1.7276 -0.5751
 1053TIP3   OH224649   4.050   0.296  13.046  0.2132 -0.1119  0.3045
 1053TIP3    H124650   3.993   0.242  12.992  1.2489  1.5778 -2.7592
 1053TIP3    H224651   3.991   0.357  13.090 -0.5651 -0.4846 -0.2044
 1054TIP3   OH224652   4.757   4.830  11.621  0.1091 -0.4099  0.3999
 1054TIP3    H124653   4.691   4.766  11.595  0.1269  0.0516 -0.8415
 1054TIP3    H224654   4.706   4.905  11.653 -0.0138  0.0988 -0.9165
 1055TIP3   OH224655   4.819   4.039   4.780 -0.4380  0.6446  0.4348
 1055TIP3    H124656   4.875   3.983   4.833  0.5483  1.1802 -0.0275
 1055TIP3    H224657   4.785   4.104   4.842 -1.0404 -0.0277  0.8319
 1056TIP3   OH224658   1.439   0.322  14.292 -0.1458  0.3301  0.1612
 1056TIP3    H124659   1.515   0.295  14.344 -0.4535 -0.7839  0.0663
 1056TIP3    H224660   1.469   0.398  14.242  1.3797 -0.9230 -0.9431
 1057TIP3   OH224661   6.607   5.466   5.091  0.0038 -0.2757 -0.1528
 1057TIP3    H124662   6.579   5.553   5.062 -0.3620 -0.1769  0.4802
 1057TIP3    H224663   6.671   5.438   5.025  1.7042  1.3359  0.7248
 1058TIP3   OH224664   2.278   0.181  13.895  0.1796  0.3446 -0.0822
 1058TIP3    H124665   2.344   0.167  13.963 -0.8439 -0.1077  0.8471
 1058TIP3    H224666   2.206   0.225  13.941 -0.0411  1.1227 -1.1471
 1059TIP3   OH224667   2.499   3.715  17.148 -0.2132 -0.0174  0.2576
 1059TIP3    H124668   2.423   3.750  17.194  0.2425 -1.1577  1.9549
 1059TIP3    H224669   2.557   3.790  17.137 -0.5215  0.3654  1.1690
 1060TIP3   OH224670   6.513   0.879   3.158 -0.4793  0.5531  0.7465
 1060TIP3    H124671   6.585   0.918   3.208 -0.7253  0.6254  1.0460
 1060TIP3    H224672   6.533   0.901   3.067  1.5869 -2.1417  0.4539
 1061TIP3   OH224673   1.543   0.222   5.243  0.8343  0.3924 -0.4771
 1061TIP3    H124674   1.630   0.261   5.254  1.0007 -0.2848  0.6961
 1061TIP3    H224675   1.528   0.173   5.324 -1.3857  1.9151  0.0907
 1062TIP3   OH224676   0.645   5.557   4.763  0.7830  0.1266  0.0174
 1062TIP3    H124677   0.645   5.588   4.854  1.6944 -0.1209  0.1034
 1062TIP3    H224678   0.552   5.544   4.743  0.6022 -0.4123  1.1140
 1063TIP3   OH224679   5.565   5.291   1.583 -0.5819 -0.1858 -0.2055
 1063TIP3    H124680   5.496   5.267   1.645 -0.4592  1.0861  0.4785
 1063TIP3    H224681   5.612   5.210   1.566  1.3173 -0.1726  3.7779
 1064TIP3   OH224682   6.828   5.276   0.300 -0.3334 -0.2796  0.1737
 1064TIP3    H124683   6.752   5.232   0.263 -1.1563  0.5854  0.7700
 1064TIP3    H224684   6.798   5.307   0.386 -0.1493  2.2729 -0.5915
 1065TIP3   OH224685   5.365   3.185   2.691 -0.3647  0.3593 -0.2243
 1065TIP3    H124686   5.285   3.225   2.657 -1.2291 -1.3583 -0.3588
 1065TIP3    H224687   5.384   3.114   2.630  0.9253  0.3467  0.1548
 1066TIP3   OH224688   4.427   1.833   4.704  0.2361  0.1829  0.1374
 1066TIP3    H124689   4.459   1.824   4.794 -0.9763  2.0978  0.8289
 1066TIP3    H224690   4.332   1.833   4.713  0.0982  0.1689 -1.1853
 1067TIP3   OH224691   2.396   1.611  11.498  0.7391 -0.4121  0.5884
 1067TIP3    H124692   2.455   1.687  11.497  1.9512 -1.3252  0.5424
 1067TIP3    H224693   2.374   1.597  11.406  1.2745 -0.6892  0.5018
 1068TIP3   OH224694   2.845   1.289  14.264  0.6831  0.6809 -0.2046
 1068TIP3    H124695   2.852   1.213  14.322  1.0736  1.1786  0.4129
 1068TIP3    H224696   2.934   1.323  14.259  0.4817  1.1836 -0.3633
 1069TIP3   OH224697   1.743   0.344   4.813 -0.2311 -0.4988  0.2789
 1069TIP3    H124698   1.737   0.325   4.906  2.3454  0.5387  0.7362
 1069TIP3    H224699   1.788   0.428   4.808 -0.4560 -0.4372 -1.9170
 1070TIP3   OH224700   0.657   0.017  12.363  0.0590  0.0137  0.1162
 1070TIP3    H124701   0.596   0.087  12.385  0.2569  0.0326  0.6082
 1070TIP3    H224702   0.666   0.022  12.267  0.7135  1.2007  0.2234
 1071TIP3   OH224703   2.326   0.446   5.249  0.0020 -0.1249 -0.0444
 1071TIP3    H124704   2.322   0.540   5.267  0.5072 -0.2058  0.5158
 1071TIP3    H224705   2.247   0.411   5.290  0.3551 -0.0870  0.6838
 1072TIP3   OH224706   6.600   3.574   4.526 -0.5992 -0.1885  0.0222
 1072TIP3    H124707   6.556   3.533   4.452 -1.1054 -0.2299  0.3409
 1072TIP3    H224708   6.589   3.668   4.511  0.3416 -0.1637 -0.5758
 1073TIP3   OH224709   3.385   0.428  11.702 -0.5282  0.1808  0.2953
 1073TIP3    H124710   3.413   0.338  11.687 -1.3443  0.2274 -1.7709
 1073TIP3    H224711   3.349   0.427  11.791  0.1380 -1.3368  0.5849
 1074TIP3   OH224712   4.172   1.460   4.188 -0.6695  0.3875  0.1576
 1074TIP3    H124713   4.115   1.516   4.135 -1.4144  1.1599  1.7045
 1074TIP3    H224714   4.137   1.468   4.277  1.0146 -0.2384  0.9163
 1075TIP3   OH224715   1.034   5.451   2.103  0.3844  0.1144 -0.0454
 1075TIP3    H124716   1.095   5.418   2.168  2.1640 -0.4899 -1.9324
 1075TIP3    H224717   0.966   5.384   2.097  1.0044 -0.5353  0.1227
 1076TIP3   OH224718   2.211   2.239  17.163  0.0032  0.2312 -0.2910
 1076TIP3    H124719   2.185   2.164  17.109 -0.9789  1.2181 -1.2561
 1076TIP3    H224720   2.224   2.202  17.250  0.6864 -1.2546 -0.9769
 1077TIP3   OH224721   2.852   5.348  14.591  0.3244 -0.1345 -0.2418
 1077TIP3    H124722   2.781   5.402  14.557  0.6978 -0.1246 -1.0093
 1077TIP3    H224723   2.831   5.259  14.564 -0.6063 -0.5032  1.5373
 1078TIP3   OH224724   3.126   5.957   3.784  0.3797  0.2838 -0.2003
 1078TIP3    H124725   3.084   5.889   3.731 -0.6599  0.2586  0.6229
 1078TIP3    H224726   3.126   5.922   3.873 -0.5127  1.4837  0.2994
 1079TIP3   OH224727   4.838   2.792   5.555  0.1536  0.2132  0.3033
 1079TIP3    H124728   4.915   2.767   5.503  0.1457  0.3134  0.2416
 1079TIP3    H224729   4.769   2.805   5.490 -0.5912 -2.2215  0.5323
 1080TIP3   OH224730   1.936   1.819  12.432 -0.4402  0.0216 -0.4966
 1080TIP3    H124731   1.919   1.891  12.372  1.5216 -0.0016 -1.1459
 1080TIP3    H224732   1.974   1.750  12.378  0.8873 -0.1988  0.6569
 1081TIP3   OH224733   0.701   3.510  10.605 -0.4207  0.0669 -0.3332
 1081TIP3    H124734   0.725   3.594  10.642 -1.3088 -0.5009  1.6579
 1081TIP3    H224735   0.696   3.526  10.510  2.2944  1.4906 -0.3555
 1082TIP3   OH224736   5.432   4.947   1.306 -0.8754  0.1000  0.5080
 1082TIP3    H124737   5.459   4.856   1.289 -0.9506  0.0585  0.6088
 1082TIP3    H224738   5.420   4.950   1.401 -0.5867  0.2934  0.5389
 1083TIP3   OH224739   6.333   3.840  13.163 -0.4100 -0.2143 -0.2109
 1083TIP3    H124740   6.283   3.807  13.237 -0.0777  0.0956  0.1587
 1083TIP3    H224741   6.293   3.926  13.144  0.6654  0.5346  0.7941
 1084TIP3   OH224742   5.679   2.284  15.283 -0.3937 -0.1450 -0.5131
 1084TIP3    H124743   5.744   2.334  15.235  0.1638  1.4703  1.7385
 1084TIP3    H224744   5.625   2.349  15.328 -1.1525 -1.5109  0.6781
 1085TIP3   OH224745   1.448   4.693  11.833  0.4570 -0.6874  0.0249
 1085TIP3    H124746   1.542   4.697  11.847  0.4694 -0.7855 -0.0258
 1085TIP3    H224747   1.438   4.640  11.753  0.3564 -0.7585  0.0843
 1086TIP3   OH224748   4.768   1.271  16.033  0.3795  0.4095 -0.0611
 1086TIP3    H124749   4.734   1.235  15.951 -1.7252  0.9325  0.5192
 1086TIP3    H224750   4.801   1.358  16.009 -0.4281  0.6491 -0.3399
 1087TIP3   OH224751   3.377   2.578   5.756 -0.3321  0.5088 -0.4615
 1087TIP3    H124752   3.460   2.546   5.718  0.3606  0.7678  0.7921
 1087TIP3    H224753   3.357   2.515   5.826 -1.0871  0.5843 -0.6015
 1088TIP3   OH224754   2.586   4.925   1.258  0.8800 -0.1724  0.2991
 1088TIP3    H124755   2.546   4.868   1.324  0.0621  1.1110  0.9463
 1088TIP3    H224756   2.674   4.889   1.245  0.1458 -2.0226  0.1225
 1089TIP3   OH224757   1.943   0.786   2.322  0.0912  0.6865 -0.1845
 1089TIP3    H124758   1.894   0.738   2.388  1.7844 -0.3950  0.3603
 1089TIP3    H224759   1.906   0.757   2.238  0.0734 -0.4697  0.1988
 1090TIP3   OH224760   3.397   1.805  11.737  0.0599 -0.9640 -0.0903
 1090TIP3    H124761   3.454   1.780  11.664 -1.2797 -1.1022 -1.1222
 1090TIP3    H224762   3.396   1.729  11.795  0.0857 -1.3525 -0.6023
 1091TIP3   OH224763   3.675   4.456   3.598 -0.7310 -0.6572 -0.8505
 1091TIP3    H124764   3.718   4.500   3.524 -0.4299 -0.4086 -0.5330
 1091TIP3    H224765   3.589   4.498   3.604 -0.8542 -0.8554 -1.2183
 1092TIP3   OH224766   6.040   4.442   2.526  0.0454  0.0216  0.0791
 1092TIP3    H124767   6.094   4.405   2.596  1.4369  2.0027  0.1333
 1092TIP3    H224768   5.984   4.369   2.498  2.0630 -1.8798  0.6864
 1093TIP3   OH224769   3.468   2.389   0.464 -0.1293  0.3348 -0.0799
 1093TIP3    H124770   3.423   2.447   0.402 -1.1972  2.0942  2.1849
 1093TIP3    H224771   3.511   2.449   0.525  3.0143 -1.3192 -0.4639
 1094TIP3   OH224772   1.676   5.915   0.127 -0.2874  0.3307 -0.0168
 1094TIP3    H124773   1.642   5.837   0.084 -0.6555  0.8997 -0.7754
 1094TIP3    H224774   1.748   5.944   0.071 -0.2453  0.6187  0.1856
 1095TIP3   OH224775   5.155   4.411  12.976  0.1762 -0.3763  0.6398
 1095TIP3    H124776   5.190   4.491  12.937 -0.5169 -0.8837 -1.1240
 1095TIP3    H224777   5.072   4.437  13.015 -0.5846 -0.3951 -0.8884
 1096TIP3   OH224778   0.871   0.444  16.269 -0.6164 -0.4576  0.2701
 1096TIP3    H124779   0.832   0.360  16.293 -1.2052 -0.3017 -0.1095
 1096TIP3    H224780   0.810   0.481  16.206 -0.9982  0.7997  1.3301
 1097TIP3   OH224781   1.549   4.457   4.912 -0.9989 -0.1276 -0.1404
 1097TIP3    H124782   1.491   4.532   4.918 -0.0521  0.7140 -1.1542
 1097TIP3    H224783   1.637   4.494   4.911 -0.3731 -1.3982  1.9041
 1098TIP3   OH224784   5.536   4.176   6.430 -0.0427 -0.5984  0.0788
 1098TIP3    H124785   5.613   4.141   6.475 -0.0305 -1.8921 -0.8951
 1098TIP3    H224786   5.462   4.146   6.482  0.0851  0.8540  1.1557
 1099TIP3   OH224787   1.382   1.033   0.010  0.3471  0.3151 -0.1574
 1099TIP3    H124788   1.447   1.017   0.079 -1.8619 -0.9365  1.7478
 1099TIP3    H224789   1.300   1.049   0.057 -0.8396  1.6149 -2.4788
 1100TIP3   OH224790   3.646   0.343   4.533  0.0713 -0.2606 -0.2220
 1100TIP3    H124791   3.615   0.431   4.555  0.2664  0.3294 -2.1591
 1100TIP3    H224792   3.568   0.297   4.504 -0.1300 -0.9408  1.2945
 1101TIP3   OH224793   4.553   5.930  15.606  0.5999  0.3508 -0.0215
 1101TIP3    H124794   4.531   5.957  15.695  0.6416 -1.4432  0.5576
 1101TIP3    H224795   4.630   5.983  15.583  0.3977  1.0500  0.8771
 1102TIP3   OH224796   5.617   3.481   2.345 -0.2172 -0.3093 -0.5381
 1102TIP3    H124797   5.522   3.487   2.332 -0.5147 -0.5915  1.2325
 1102TIP3    H224798   5.654   3.542   2.281 -1.8488  3.1158  1.5120
 1103TIP3   OH224799   4.381   6.727   5.157 -0.5501 -0.0678 -0.3368
 1103TIP3    H124800   4.410   6.640   5.129 -0.1913  0.6220 -2.1951
 1103TIP3    H224801   4.449   6.755   5.219 -0.6625 -1.0697  0.2815
 1104TIP3   OH224802   0.670   2.055  12.203 -0.4429  0.1833  0.1461
 1104TIP3    H124803   0.603   2.088  12.143 -1.8412  0.0960  1.5922
 1104TIP3    H224804   0.688   1.966  12.173 -1.3164  0.0466  0.0238
 1105TIP3   OH224805   0.329   1.500  13.053 -0.4337  0.5989 -0.1543
 1105TIP3    H124806   0.374   1.554  12.988  2.3891  0.2128  1.3226
 1105TIP3    H224807   0.352   1.410  13.028  1.1359  0.4583  1.5394
 1106TIP3   OH224808   5.900   3.764   4.645 -0.2933 -0.5818 -0.5109
 1106TIP3    H124809   5.902   3.854   4.678 -0.8396 -0.1715 -1.5657
 1106TIP3    H224810   5.809   3.749   4.622 -0.0447 -1.1085 -1.1684
 1107TIP3   OH224811   0.150   5.762   6.031  0.2388  0.0328 -0.1162
 1107TIP3    H124812   0.144   5.771   6.126  0.6143  0.8904 -0.1714
 1107TIP3    H224813   0.077   5.813   5.997  0.9545  0.9334 -0.3357
 1108TIP3   OH224814   4.482   0.114   0.704  0.5030  0.2747  0.8003
 1108TIP3    H124815   4.537   0.092   0.779 -1.3884 -3.7595  1.2881
 1108TIP3    H224816   4.540   0.106   0.628  1.3926 -0.3176  1.5298
 1109TIP3   OH224817   4.079   4.486   3.815 -0.4307 -0.2195  0.7510
 1109TIP3    H124818   4.137   4.455   3.884 -1.2635 -0.6823  1.2551
 1109TIP3    H224819   4.062   4.578   3.835  1.9151  0.6060 -0.6539
 1110TIP3   OH224820   0.380   5.011   5.084  0.0335 -0.3524  0.3977
 1110TIP3    H124821   0.332   5.091   5.061 -0.5766  0.0756  2.9032
 1110TIP3    H224822   0.472   5.035   5.078 -0.1290  0.1790 -0.0027
 1111TIP3   OH224823   5.936   6.629  15.667  0.5733 -0.2442 -0.4207
 1111TIP3    H124824   5.906   6.701  15.723  1.4430 -0.5450  0.4653
 1111TIP3    H224825   6.008   6.666  15.616  1.2780 -0.5813  0.3178
 1112TIP3   OH224826   6.607   1.667  11.971  0.0972 -0.4025  0.2381
 1112TIP3    H124827   6.672   1.656  11.902 -0.2988  1.7987 -0.5604
 1112TIP3    H224828   6.607   1.760  11.990 -2.6071 -0.3421  0.3961
 1113TIP3   OH224829   0.238   3.509  15.346 -0.4620 -0.0878  0.2400
 1113TIP3    H124830   0.233   3.418  15.376 -0.0495  0.5539  2.4749
 1113TIP3    H224831   0.148   3.532  15.323 -0.7517 -0.7690  0.6725
 1114TIP3   OH224832   1.200   3.044  11.391 -0.4922  0.2455 -0.3442
 1114TIP3    H124833   1.180   3.009  11.304 -1.7621 -0.3304  0.1602
 1114TIP3    H224834   1.152   3.127  11.395  0.3096  0.7336 -0.5166
 1115TIP3   OH224835   3.604   0.507  13.100 -0.4820  0.2501  0.1960
 1115TIP3    H124836   3.663   0.451  13.152  0.8392  0.5346 -0.9257
 1115TIP3    H224837   3.518   0.494  13.139 -0.1611 -2.2781  0.2205
 1116TIP3   OH224838   4.412   2.701  14.146 -0.0645 -0.1690  0.3401
 1116TIP3    H124839   4.398   2.792  14.118 -2.1111 -1.0573 -1.8217
 1116TIP3    H224840   4.389   2.701  14.239  2.0659  1.8977  0.9625
 1117TIP3   OH224841   0.881   4.173  17.179  0.0281  0.2784 -0.6908
 1117TIP3    H124842   0.800   4.223  17.167 -0.6900 -0.7227 -0.1964
 1117TIP3    H224843   0.904   4.187  17.271 -0.2869 -0.4348 -0.4972
 1118TIP3   OH224844   3.269   0.934  14.267 -0.0501  0.3920  0.6356
 1118TIP3    H124845   3.351   0.914  14.221 -0.1516 -0.7592  0.9135
 1118TIP3    H224846   3.296   0.949  14.357 -0.0973  0.3810  0.6514
 1119TIP3   OH224847   4.689   6.316  12.267  0.3978 -0.1771 -0.3818
 1119TIP3    H124848   4.637   6.342  12.343  0.7235  0.1048 -0.2526
 1119TIP3    H224849   4.624   6.288  12.202 -0.0407  1.7156 -0.8271
 1120TIP3   OH224850   5.434   3.886  15.309  0.0272  0.2112 -0.2271
 1120TIP3    H124851   5.500   3.826  15.275  0.2650  0.4747 -0.2242
 1120TIP3    H224852   5.354   3.832  15.313 -0.0867  0.2470 -1.4708
 1121TIP3   OH224853   1.879   2.631   1.902  0.4538  0.2950 -0.4476
 1121TIP3    H124854   1.858   2.670   1.817 -0.4719 -0.6911 -0.6935
 1121TIP3    H224855   1.907   2.542   1.881 -1.7354 -0.6543  0.3786
 1122TIP3   OH224856   2.991   3.243   2.082 -0.2275  0.5280  0.1223
 1122TIP3    H124857   3.078   3.207   2.102 -0.8223 -0.8157  0.4043
 1122TIP3    H224858   2.930   3.177   2.116 -1.3826  1.9179  0.8419
 1123TIP3   OH224859   2.631   3.760   4.649 -0.3191  0.2822 -0.2463
 1123TIP3    H124860   2.575   3.806   4.712 -0.5658 -1.4923  0.9011
 1123TIP3    H224861   2.574   3.742   4.575 -0.8015  0.0122  0.1802
 1124TIP3   OH224862   1.677   0.651   0.412 -0.3085 -0.4637  0.0879
 1124TIP3    H124863   1.585   0.679   0.409 -0.4219 -0.8757 -1.6366
 1124TIP3    H224864   1.676   0.573   0.467 -1.3785 -1.6162 -1.4669
 1125TIP3   OH224865   0.140   0.148  13.378  0.1918  0.5592 -0.1276
 1125TIP3    H124866   0.060   0.189  13.345 -0.8263 -0.6298  0.7444
 1125TIP3    H224867   0.210   0.184  13.324 -0.9024  1.7763 -0.7977
 1126TIP3   OH224868   3.834   4.431  15.509  0.7760  0.2254  0.1199
 1126TIP3    H124869   3.814   4.391  15.594  1.5025  1.8059  1.0796
 1126TIP3    H224870   3.753   4.473  15.482  0.0594 -1.6292 -0.8091
 1127TIP3   OH224871   1.700   4.721  11.472  0.2371  0.1617  0.0070
 1127TIP3    H124872   1.607   4.745  11.463  0.0243 -0.3126  0.9466
 1127TIP3    H224873   1.746   4.795  11.431 -0.5662 -0.0951 -1.4617
 1128TIP3   OH224874   3.811   2.281   3.454 -0.6354 -0.1725 -0.2796
 1128TIP3    H124875   3.816   2.190   3.483 -1.8883 -0.5153 -1.0864
 1128TIP3    H224876   3.879   2.326   3.505 -1.9929 -0.9233  2.3967
 1129TIP3   OH224877   1.676   0.073   0.275  0.2359 -0.5401 -0.6183
 1129TIP3    H124878   1.762   0.069   0.233  0.7289 -3.3318  0.4227
 1129TIP3    H224879   1.693   0.047   0.366 -1.6801 -1.0532 -0.3594
 1130TIP3   OH224880   0.228   0.224   4.745 -0.1323  0.5379  0.2505
 1130TIP3    H124881   0.251   0.133   4.727  0.6428  0.4171  1.7675
 1130TIP3    H224882   0.133   0.228   4.733  0.0840  0.1254 -2.1902
 1131TIP3   OH224883   3.114   3.314   1.153 -0.1674  0.1372  0.1859
 1131TIP3    H124884   3.031   3.351   1.121 -0.3057 -1.4414 -1.4616
 1131TIP3    H224885   3.110   3.222   1.126  1.9013 -0.0991  0.5710
 1132TIP3   OH224886   4.489   3.638  13.413 -0.2342  0.0105 -0.3426
 1132TIP3    H124887   4.526   3.705  13.356 -0.7835  0.8941  0.3047
 1132TIP3    H224888   4.404   3.617  13.374  0.5987 -1.4938 -1.4286
 1133TIP3   OH224889   6.796   1.322   6.663  0.0881  0.3783 -0.5270
 1133TIP3    H124890   6.706   1.302   6.689  0.3300  0.6152  0.5320
 1133TIP3    H224891   6.835   1.237   6.644  0.1321  0.1098  0.6944
 1134TIP3   OH224892   4.863   5.297   6.162  0.1860  0.7033  0.6803
 1134TIP3    H124893   4.789   5.313   6.220  0.2654  1.6045  0.5409
 1134TIP3    H224894   4.917   5.232   6.208 -1.1246 -0.6564  0.3935
 1135TIP3   OH224895   2.830   2.877  11.057  0.1434  0.3155  0.0179
 1135TIP3    H124896   2.789   2.809  11.004 -0.0066 -0.4505  1.0945
 1135TIP3    H224897   2.861   2.942  10.993  0.4889 -0.8562 -1.0414
 1136TIP3   OH224898   6.550   3.319   5.324  0.0728  0.9205  0.2428
 1136TIP3    H124899   6.473   3.327   5.267 -0.2751  1.1952  0.7459
 1136TIP3    H224900   6.521   3.353   5.409  0.2754 -0.4118  0.8752
 1137TIP3   OH224901   4.326   1.266   5.551  0.0347  0.1454  0.5285
 1137TIP3    H124902   4.323   1.181   5.508 -0.8292 -0.6411  2.0520
 1137TIP3    H224903   4.413   1.301   5.529  0.1111 -0.7832 -0.7306
 1138TIP3   OH224904   3.014   5.514  13.811  0.7580  0.2481 -0.6171
 1138TIP3    H124905   2.985   5.602  13.831  2.1713  0.9245 -1.3899
 1138TIP3    H224906   2.991   5.462  13.888  0.0810  1.3158 -0.0881
 1139TIP3   OH224907   2.842   2.052  16.953 -0.5110 -0.1305 -0.0577
 1139TIP3    H124908   2.806   2.104  17.024  1.2110  0.2435  0.5904
 1139TIP3    H224909   2.878   2.116  16.891  1.7494 -0.4457  0.8150
 1140TIP3   OH224910   0.300   2.138   1.838  0.3167 -0.8977 -0.7365
 1140TIP3    H124911   0.317   2.174   1.751  0.3372 -0.3862 -0.5250
 1140TIP3    H224912   0.319   2.044   1.830  0.7384 -0.7763 -1.1674
 1141TIP3   OH224913   2.922   4.637   2.720 -0.2082  0.1715 -0.5431
 1141TIP3    H124914   2.968   4.668   2.642 -0.9139  0.9317 -0.6659
 1141TIP3    H224915   2.982   4.656   2.793  0.5898 -0.8349 -0.9170
 1142TIP3   OH224916   2.944   3.631  15.340 -0.2278  0.0234 -0.1715
 1142TIP3    H124917   2.979   3.718  15.323  1.1871  0.0400  2.4012
 1142TIP3    H224918   2.956   3.618  15.434 -1.2094 -2.6098 -0.3289
 1143TIP3   OH224919   0.129   6.117   3.935  0.1766 -0.0753 -0.6287
 1143TIP3    H124920   0.216   6.102   3.897  0.0477 -1.3940 -0.4373
 1143TIP3    H224921   0.145   6.115   4.030 -0.5148 -3.8885 -0.4365
 1144TIP3   OH224922   0.939   5.177   2.637 -0.0350  0.4380 -0.5924
 1144TIP3    H124923   0.967   5.157   2.548  3.6727  0.9942  0.2811
 1144TIP3    H224924   0.990   5.118   2.693 -0.3775  1.7616  1.2359
 1145TIP3   OH224925   3.076   0.413   0.800  0.0627  0.3819 -0.0320
 1145TIP3    H124926   3.049   0.476   0.732 -0.7727  1.5278  1.3094
 1145TIP3    H224927   3.078   0.464   0.881 -3.2714 -1.7834  1.6522
 1146TIP3   OH224928   5.438   0.049   4.175 -0.0850 -0.5079 -0.0960
 1146TIP3    H124929   5.363   0.107   4.188 -0.1686 -0.7810  0.6766
 1146TIP3    H224930   5.417   0.002   4.094 -0.3706 -0.0119 -0.3151
 1147TIP3   OH224931   4.500   2.112   1.445 -0.2508 -0.1503  0.5089
 1147TIP3    H124932   4.517   2.021   1.468 -1.4379 -0.1568  1.5097
 1147TIP3    H224933   4.526   2.162   1.522  0.8370  0.4238 -0.2109
 1148TIP3   OH224934   6.809   0.745  14.685 -0.0954  0.6295  0.2025
 1148TIP3    H124935   6.821   0.663  14.732  0.6698  0.2495 -0.6293
 1148TIP3    H224936   6.737   0.789  14.731 -0.5289 -0.5092  0.6356
 1149TIP3   OH224937   2.276   3.948   1.446 -0.2305  0.1363 -0.2270
 1149TIP3    H124938   2.219   3.981   1.516 -0.9359 -2.0398  0.3029
 1149TIP3    H224939   2.364   3.950   1.485 -0.1215  1.9007 -0.4516
 1150TIP3   OH224940   6.487   4.951   3.264  0.1231  0.2692 -0.0047
 1150TIP3    H124941   6.502   4.945   3.169  0.4030 -0.4909  0.0809
 1150TIP3    H224942   6.481   5.045   3.281  2.0249  0.5362 -0.4899
 1151TIP3   OH224943   0.583   1.241   5.470 -0.2074  0.0296 -0.5886
 1151TIP3    H124944   0.651   1.182   5.437 -2.3479 -1.9439 -1.7746
 1151TIP3    H224945   0.629   1.298   5.532  2.9767  0.3410 -2.9210
 1152TIP3   OH224946   6.707   2.092   0.198  0.4290 -0.1465  0.0425
 1152TIP3    H124947   6.756   2.024   0.152  0.9255  0.6920 -0.7016
 1152TIP3    H224948   6.770   2.163   0.211 -0.8613  1.6022 -2.2832
 1153TIP3   OH224949   6.481   2.675  15.973  0.2132  0.7418  0.0049
 1153TIP3    H124950   6.533   2.667  16.053 -0.1998  0.5869  0.2659
 1153TIP3    H224951   6.474   2.769  15.958 -0.8735  0.8335  0.9444
 1154TIP3   OH224952   2.168   1.044  16.929  0.4138  0.4924 -0.1076
 1154TIP3    H124953   2.183   0.968  16.986  2.3743 -0.7584 -2.1527
 1154TIP3    H224954   2.179   1.119  16.987  1.6081 -0.7304  1.3487
 1155TIP3   OH224955   6.838   4.502  11.964  0.0705 -0.2042 -0.1759
 1155TIP3    H124956   6.795   4.554  11.896  0.0537 -0.5689 -0.4485
 1155TIP3    H224957   6.856   4.564  12.034  3.2505  1.0270 -1.8548
 1156TIP3   OH224958   3.108   0.468   4.703  0.0282 -0.8354  0.3487
 1156TIP3    H124959   3.105   0.376   4.679 -0.4421 -0.7075 -0.1231
 1156TIP3    H224960   3.130   0.469   4.796  1.0254 -1.3834  0.1281
 1157TIP3   OH224961   4.411   0.630   1.839  0.3108  0.2839 -0.6324
 1157TIP3    H124962   4.466   0.599   1.911  1.2005  2.9074 -0.0570
 1157TIP3    H224963   4.324   0.637   1.876  1.1212  3.7060  1.0849
 1158TIP3   OH224964   6.761   5.350  12.821  0.5792 -0.3163  0.3191
 1158TIP3    H124965   6.754   5.446  12.823  0.9056 -0.3039  1.0005
 1158TIP3    H224966   6.706   5.324  12.747 -1.0345  0.2483  1.2821
 1159TIP3   OH224967   1.332   3.571   4.249 -0.1552 -0.2098  0.1117
 1159TIP3    H124968   1.357   3.663   4.254 -0.3302 -0.2081  1.2230
 1159TIP3    H224969   1.372   3.531   4.326 -0.1999 -1.0349 -0.2829
 1160TIP3   OH224970   0.707   4.973  14.568  0.1109  0.6368 -0.1547
 1160TIP3    H124971   0.618   4.951  14.594  0.6285 -1.0859  0.2903
 1160TIP3    H224972   0.699   5.057  14.523 -1.8964 -0.0599 -1.2019
 1161TIP3   OH224973   1.340   3.852   6.345 -0.4981  0.4337  0.2851
 1161TIP3    H124974   1.300   3.939   6.342  1.6810  1.4871 -1.0383
 1161TIP3    H224975   1.303   3.806   6.270  0.0230  1.0659 -0.3794
 1162TIP3   OH224976   1.444   2.882   3.879  0.4074  0.3022  0.0867
 1162TIP3    H124977   1.431   2.886   3.784  2.1911 -0.1800 -0.2021
 1162TIP3    H224978   1.433   2.973   3.908 -0.2402  0.4373 -0.5519
 1163TIP3   OH224979   3.548   4.059   4.571 -0.1450  0.0980 -0.2712
 1163TIP3    H124980   3.607   4.116   4.619 -1.8062  1.3881  0.3115
 1163TIP3    H224981   3.606   3.999   4.524  1.5786  0.5452  1.1842
 1164TIP3   OH224982   4.416   4.728  16.917 -0.4565  0.1014  0.1365
 1164TIP3    H124983   4.436   4.669  16.844 -0.3404  0.5562 -0.2052
 1164TIP3    H224984   4.345   4.783  16.884 -0.3870  0.3220  0.3600
 1165TIP3   OH224985   6.688   0.150   4.355 -0.1338 -0.0566  0.0393
 1165TIP3    H124986   6.707   0.122   4.445 -0.6715  0.8796  0.4485
 1165TIP3    H224987   6.593   0.143   4.347 -0.1192  0.1995 -0.3486
 1166TIP3   OH224988   4.265   0.415   4.244 -0.1851  0.4890  0.0566
 1166TIP3    H124989   4.218   0.393   4.164  0.2509 -1.5434  0.2984
 1166TIP3    H224990   4.201   0.402   4.314  0.3192 -0.9622  0.2752
 1167TIP3   OH224991   4.783   0.646   4.741 -0.1817  0.0380 -0.5220
 1167TIP3    H124992   4.861   0.695   4.715 -0.1465  1.1942  1.5664
 1167TIP3    H224993   4.811   0.555   4.740  0.3863  0.1785 -2.3713
 1168TIP3   OH224994   1.610   0.945  13.630  0.5674 -0.1824 -0.1839
 1168TIP3    H124995   1.573   0.905  13.552  1.6037  0.1018 -0.8417
 1168TIP3    H224996   1.548   1.013  13.655  0.5371  0.1372 -1.1259
 1169TIP3   OH224997   0.497   4.288  14.055  0.4498 -0.5618  0.3391
 1169TIP3    H124998   0.412   4.254  14.085  0.3913  0.2902  1.1896
 1169TIP3    H224999   0.555   4.274  14.129  0.2235  1.9074  1.0776
 1170TIP3   OH225000   6.030   3.988   3.535 -0.7063 -0.1928  0.9127
 1170TIP3    H125001   5.947   4.020   3.502  0.2632  3.0161  1.1744
 1170TIP3    H225002   6.007   3.933   3.610 -2.6008 -0.0793  0.4545
 1171TIP3   OH225003   6.036   6.408  10.963 -0.5861  0.4630 -0.5964
 1171TIP3    H125004   6.016   6.482  11.020  0.8071  1.4081 -1.2677
 1171TIP3    H225005   6.131   6.412  10.951 -0.4921 -1.3988 -0.7246
 1172TIP3   OH225006   6.172   3.408   0.439 -0.0395 -0.1613  0.1505
 1172TIP3    H125007   6.166   3.414   0.534 -0.3685  0.0092  0.1216
 1172TIP3    H225008   6.083   3.386   0.411 -0.0132  0.0954 -0.1381
 1173TIP3   OH225009   3.674   4.693  11.254  0.3677  0.3750 -0.2345
 1173TIP3    H125010   3.585   4.724  11.236  0.9026  2.7969  0.7875
 1173TIP3    H225011   3.731   4.755  11.207  1.5358  1.0103  1.8614
 1174TIP3   OH225012   5.081   4.472   1.728 -0.1274 -0.5143 -0.2574
 1174TIP3    H125013   5.158   4.421   1.753 -0.1309 -0.6075 -0.4330
 1174TIP3    H225014   5.068   4.450   1.636  0.5692  0.6748 -0.6643
 1175TIP3   OH225015   5.200   2.137  12.557 -0.6374  1.0681  0.2247
 1175TIP3    H125016   5.216   2.043  12.564  1.0076  1.4007  1.5513
 1175TIP3    H225017   5.116   2.144  12.510 -0.0352 -0.9992 -1.2930
 1176TIP3   OH225018   2.541   4.651   2.125  0.0138  0.1056  0.0227
 1176TIP3    H125019   2.520   4.569   2.169  1.0023  0.6357  1.5680
 1176TIP3    H225020   2.623   4.679   2.165 -0.9420  2.4915  0.5077
 1177TIP3   OH225021   1.100   2.823  17.005 -0.1334  0.4852  0.3681
 1177TIP3    H125022   1.102   2.758  17.075  0.3764  0.4387  0.3180
 1177TIP3    H225023   1.011   2.820  16.972 -0.9369  1.8540  2.2459
 1178TIP3   OH225024   4.562   1.420   0.261  0.2566 -0.2946 -0.1480
 1178TIP3    H125025   4.602   1.420   0.347 -2.3595 -1.0170  1.1678
 1178TIP3    H225026   4.557   1.327   0.237 -1.1372 -0.2871  0.0288
 1179TIP3   OH225027   5.495   5.106   0.688  0.5148  0.0363  0.3423
 1179TIP3    H125028   5.472   5.086   0.779 -1.1185  3.3178  0.8389
 1179TIP3    H225029   5.516   5.200   0.690  2.1170 -0.1779 -2.4216
 1180TIP3   OH225030   1.052   1.617   0.267  0.7253 -0.7372  0.1044
 1180TIP3    H125031   0.974   1.618   0.212  0.5417  0.1835  0.3639
 1180TIP3    H225032   1.067   1.709   0.289  1.6183 -0.9539  0.4326
 1181TIP3   OH225033   5.935   2.650   0.240 -0.6128 -0.1061  0.0017
 1181TIP3    H125034   5.950   2.705   0.164 -0.0170  0.2596  0.3790
 1181TIP3    H225035   5.933   2.711   0.314 -0.1276 -0.5683  0.4015
 1182TIP3   OH225036   3.646   5.119   0.145 -0.5801 -0.7990  0.2208
 1182TIP3    H125037   3.678   5.178   0.213  0.5624 -0.0236 -0.9338
 1182TIP3    H225038   3.576   5.069   0.187 -0.0868 -0.1670  1.8660
 1183TIP3   OH225039   0.419   0.891  10.403 -0.0433  0.4313 -0.3196
 1183TIP3    H125040   0.328   0.876  10.431  0.1492  1.5578  1.0383
 1183TIP3    H225041   0.421   0.983  10.378  0.3349 -0.0215 -2.0985
 1184TIP3   OH225042   1.134   6.799  12.599  0.5053  0.1143 -0.4033
 1184TIP3    H125043   1.147   6.870  12.536 -0.0623  0.5043 -0.0864
 1184TIP3    H225044   1.090   6.840  12.674  0.2605 -0.5422 -0.1742
 1185TIP3   OH225045   5.191   4.225   1.997 -0.1782  0.5062  0.2484
 1185TIP3    H125046   5.151   4.168   1.932  0.0116  0.4877  0.1482
 1185TIP3    H225047   5.285   4.222   1.978 -0.2632  1.7558 -0.4775
 1186TIP3   OH225048   1.787   0.913  13.888  0.6107 -0.5168  0.3163
 1186TIP3    H125049   1.851   0.953  13.829 -0.3752 -1.7157 -1.7075
 1186TIP3    H225050   1.769   0.828  13.848 -0.5005 -1.1828  2.1272
 1187TIP3   OH225051   0.862   1.595   4.320 -0.4230 -0.1834 -0.2718
 1187TIP3    H125052   0.803   1.532   4.279  1.9456 -1.4283 -1.9947
 1187TIP3    H225053   0.919   1.541   4.376 -0.4733  0.8898  0.8541
 1188TIP3   OH225054   1.870   3.293  10.342  0.1767 -0.0855  0.2931
 1188TIP3    H125055   1.827   3.215  10.307  0.7374 -0.1081 -0.3668
 1188TIP3    H225056   1.952   3.300  10.293 -0.4486  1.6645 -0.6292
 1189TIP3   OH225057   2.060   0.739  12.349 -0.0223 -0.2463 -0.0091
 1189TIP3    H125058   2.066   0.832  12.370 -0.7228  0.1467 -1.4390
 1189TIP3    H225059   2.134   0.699  12.395  0.3953  1.0384  0.4717
 1190TIP3   OH225060   2.696   3.765  11.401  0.6707  0.1859  0.2687
 1190TIP3    H125061   2.708   3.820  11.324  2.3547 -0.6336 -0.1040
 1190TIP3    H225062   2.646   3.819  11.462  2.5768  2.2812  0.0822
 1191TIP3   OH225063   2.115   1.748  13.939  0.4351  0.0279 -0.4445
 1191TIP3    H125064   2.116   1.667  13.887  1.5166  0.4871 -1.1715
 1191TIP3    H225065   2.094   1.719  14.027  1.5054 -1.1577 -0.5471
 1192TIP3   OH225066   1.167   5.281   0.164  0.0698  0.1161  0.2641
 1192TIP3    H125067   1.077   5.312   0.169 -0.7773 -1.8818 -1.1062
 1192TIP3    H225068   1.220   5.360   0.160 -1.7921  1.3533 -1.2442
 1193TIP3   OH225069   3.410   4.702   2.079  0.6696 -0.3612  0.4156
 1193TIP3    H125070   3.340   4.646   2.044 -1.4216  1.1146  1.9452
 1193TIP3    H225071   3.452   4.740   2.002  0.3782 -1.9380 -0.5649
 1194TIP3   OH225072   4.991   6.462  15.426 -0.1271  0.1844 -0.3522
 1194TIP3    H125073   4.904   6.474  15.463  0.2249  2.0449 -0.0044
 1194TIP3    H225074   4.975   6.442  15.334 -0.9349  0.2727 -0.2382
 1195TIP3   OH225075   0.895   4.739   5.578  0.1497 -0.3266  0.2663
 1195TIP3    H125076   0.928   4.795   5.507  2.0731 -0.4624  0.9865
 1195TIP3    H225077   0.860   4.662   5.534  0.7365 -0.1261 -0.5702
 1196TIP3   OH225078   5.697   0.644   5.479  0.3011  0.3016 -0.0127
 1196TIP3    H125079   5.690   0.682   5.566  1.2404  0.3571  0.0476
 1196TIP3    H225080   5.729   0.555   5.493  1.8959  0.7890 -0.3637
 1197TIP3   OH225081   4.629   5.373  13.262 -0.6328 -0.4278 -0.4029
 1197TIP3    H125082   4.541   5.358  13.226 -0.0046 -2.4269 -1.2478
 1197TIP3    H225083   4.624   5.342  13.352 -0.9966  0.3006 -0.1593
 1198TIP3   OH225084   3.450   5.120  14.185 -0.3498 -0.0492  0.2722
 1198TIP3    H125085   3.441   5.106  14.280  1.5102  1.5167  0.7415
 1198TIP3    H225086   3.539   5.092  14.165 -1.3437 -2.2429 -1.4688
 1199TIP3   OH225087   5.208   6.580  11.833 -0.0312  0.4227  0.2520
 1199TIP3    H125088   5.266   6.652  11.857  0.3143  1.0401 -2.1794
 1199TIP3    H225089   5.226   6.564  11.740 -0.8209 -2.1381  0.4624
 1200TIP3   OH225090   4.356   5.779   1.504 -0.1310 -0.5437  0.5042
 1200TIP3    H125091   4.316   5.819   1.427  0.1942  0.8281  1.0190
 1200TIP3    H225092   4.370   5.851   1.564  2.7665 -0.9682  0.5097
 1201TIP3   OH225093   1.004   4.478   3.821  0.0605 -0.2482  0.3311
 1201TIP3    H125094   0.953   4.546   3.865  0.0653 -0.1528  0.1903
 1201TIP3    H225095   1.001   4.403   3.880 -0.8157 -0.4699  0.0124
 1202TIP3   OH225096   6.113   2.739  13.139 -0.1865  0.2276  0.4305
 1202TIP3    H125097   6.182   2.778  13.086 -0.0300 -1.5492 -0.7702
 1202TIP3    H225098   6.151   2.729  13.226  0.8692 -0.1450 -0.0619
 1203TIP3   OH225099   3.608   3.079   5.370 -0.4020  0.0106  0.8866
 1203TIP3    H125100   3.564   3.150   5.416 -1.5959  0.7688 -1.3051
 1203TIP3    H225101   3.687   3.118   5.335  0.0766 -0.3483  1.5411
 1204TIP3   OH225102   1.298   4.784  16.787  0.2951 -0.9225  0.0126
 1204TIP3    H125103   1.280   4.873  16.759  1.4561 -1.0095 -1.1264
 1204TIP3    H225104   1.213   4.740  16.786 -0.0476 -0.2841 -1.1813
 1205TIP3   OH225105   2.735   5.217   2.043  0.0344 -0.3155 -0.1733
 1205TIP3    H125106   2.738   5.124   2.065 -1.4426 -0.2728  0.3294
 1205TIP3    H225107   2.826   5.243   2.037  0.5108 -1.3195  1.7670
 1206TIP3   OH225108   2.731   6.259  12.637  0.8606 -0.4074 -0.6543
 1206TIP3    H125109   2.752   6.265  12.730 -1.1855  1.4148 -0.2365
 1206TIP3    H225110   2.684   6.176  12.628 -1.3532  0.6232  0.5543
 1207TIP3   OH225111   0.452   5.240   2.567  0.4105  0.4883 -0.4392
 1207TIP3    H125112   0.389   5.243   2.495 -0.1155  2.1802  0.0463
 1207TIP3    H225113   0.399   5.221   2.645  0.9549 -1.1654 -0.4312
 1208TIP3   OH225114   2.833   3.930   0.052  0.5321  0.1457  0.4727
 1208TIP3    H125115   2.866   4.004   0.001 -0.1830 -0.6414 -1.1989
 1208TIP3    H225116   2.760   3.966   0.102  0.4220  0.6531 -0.0453
 1209TIP3   OH225117   1.870   6.375   2.572  0.1540  0.4279 -0.3715
 1209TIP3    H125118   1.880   6.289   2.614 -1.3624  0.3841 -0.0124
 1209TIP3    H225119   1.956   6.416   2.579  1.0137 -1.1902 -0.8593
 1210TIP3   OH225120   4.001   0.911   0.763 -0.1465  1.2680 -0.2773
 1210TIP3    H125121   4.011   0.869   0.848 -0.9702 -0.9614 -1.2283
 1210TIP3    H225122   4.081   0.963   0.753  1.7160 -1.2786  0.3333
 1211TIP3   OH225123   0.913   4.264   3.341 -0.4306  0.1622  0.1800
 1211TIP3    H125124   0.820   4.285   3.334 -0.4494  1.8049  3.4158
 1211TIP3    H225125   0.917   4.190   3.401  0.3321  1.0730  1.3266
 1212TIP3   OH225126   2.853   2.780   4.752  0.0991  0.5629 -0.4068
 1212TIP3    H125127   2.928   2.725   4.774  0.4467  1.4221  0.6519
 1212TIP3    H225128   2.816   2.805   4.837 -0.7329  1.0422 -0.8971
 1213TIP3   OH225129   4.225   4.417   5.625  0.1364  0.0504  0.2310
 1213TIP3    H125130   4.151   4.357   5.625 -0.7954  1.1540 -0.2951
 1213TIP3    H225131   4.295   4.370   5.672 -0.6445 -1.2928  0.0893
 1214TIP3   OH225132   0.011   6.560   4.508 -0.6204 -0.5259 -0.1203
 1214TIP3    H125133   0.099   6.593   4.488 -0.6204 -0.4174  0.0585
 1214TIP3    H225134  -0.048   6.622   4.466 -0.6052 -1.1571 -1.1168
 1215TIP3   OH225135   3.795   6.847   2.363 -0.0371 -0.5375  0.3918
 1215TIP3    H125136   3.832   6.860   2.450  0.2901 -1.8956  0.4660
 1215TIP3    H225137   3.701   6.859   2.375  0.0102 -0.6727  0.9256
 1216TIP3   OH225138   0.019   6.213   4.435  0.2762 -0.2775  0.0837
 1216TIP3    H125139   0.002   6.294   4.387  3.2656 -0.0451 -0.7282
 1216TIP3    H225140   0.012   6.239   4.527  0.2705  0.6669 -0.1735
 1217TIP3   OH225141   0.011   1.097  12.959  0.2183  0.0670 -1.1220
 1217TIP3    H125142   0.005   1.193  12.950 -0.6727  0.1867  0.4861
 1217TIP3    H225143  -0.036   1.063  12.883  2.0510  0.8325 -2.7231
 1218TIP3   OH225144   6.724   0.963   3.312 -0.0104  0.4577 -0.1658
 1218TIP3    H125145   6.809   0.977   3.271  0.4158 -0.0234  0.5268
 1218TIP3    H225146   6.714   1.035   3.374 -0.0796  0.4793 -0.2015
 1219TIP3   OH225147   2.434   0.043  15.619 -0.1077 -0.6147  0.4079
 1219TIP3    H125148   2.352   0.069  15.578  0.4735 -1.5648 -1.4773
 1219TIP3    H225149   2.497   0.110  15.592 -0.4078  0.6615  2.6552
 1220TIP3   OH225150   5.982   6.697   1.586  0.4759  0.0393 -0.0847
 1220TIP3    H125151   5.962   6.651   1.668  1.5385  1.7200  1.2001
 1220TIP3    H225152   6.075   6.679   1.570  0.6150  0.8004 -0.1739
 1221TIP3   OH225153   5.747   3.738   2.514 -0.1583  0.2793  0.0341
 1221TIP3    H125154   5.717   3.695   2.433 -1.3522  0.6740  0.2412
 1221TIP3    H225155   5.710   3.683   2.584 -2.0107  1.7719  0.3079
 1222TIP3   OH225156   5.945   3.646   1.706  0.2941 -0.1469 -0.3163
 1222TIP3    H125157   5.989   3.568   1.740  0.5615  0.3197  0.4418
 1222TIP3    H225158   5.881   3.613   1.644 -0.2309 -1.0417  0.6802
 1223TIP3   OH225159   2.411   5.514  13.132  0.6369  0.1363 -0.2990
 1223TIP3    H125160   2.356   5.592  13.140  0.5502  0.1071 -0.6242
 1223TIP3    H225161   2.483   5.541  13.075 -0.3135 -0.5160 -1.8790
 1224TIP3   OH225162   4.721   0.059  12.882  0.2273 -0.4169  0.1923
 1224TIP3    H125163   4.657   0.102  12.938 -0.8703 -2.3462  0.4823
 1224TIP3    H225164   4.806   0.087  12.917 -0.4355  0.6266  1.0173
 1225TIP3   OH225165   0.577   0.447   2.564 -0.3657  0.0263  0.1570
 1225TIP3    H125166   0.570   0.371   2.507  1.2965  1.7316 -2.5658
 1225TIP3    H225167   0.659   0.434   2.612 -0.7204 -0.4224  0.6679
 1226TIP3   OH225168   6.496   5.811   5.485 -0.2895  0.3508 -0.0184
 1226TIP3    H125169   6.487   5.897   5.525 -1.9176 -0.2003  0.8934
 1226TIP3    H225170   6.585   5.784   5.506  0.4858  2.0671 -0.9032
 1227TIP3   OH225171   6.791   0.380  16.210 -0.0398  0.3018  0.2103
 1227TIP3    H125172   6.834   0.435  16.275 -1.0356 -0.9207  1.9907
 1227TIP3    H225173   6.705   0.361  16.246 -0.7635 -0.2019 -1.6199
 1228TIP3   OH225174   1.049   0.125  15.343 -0.4562  0.2089  1.1832
 1228TIP3    H125175   1.049   0.175  15.425 -1.1423 -1.6876  2.4070
 1228TIP3    H225176   0.965   0.079  15.344 -0.8021  0.7016 -0.9759
 1229TIP3   OH225177   2.026   5.953  12.906  0.0298  0.3306 -0.4949
 1229TIP3    H125178   2.023   6.046  12.884  0.1857  0.8078  1.3210
 1229TIP3    H225179   1.934   5.929  12.918  0.0804  0.8756  1.2771
 1230TIP3   OH225180   1.208   3.407   5.036 -0.0736 -0.1910  0.1651
 1230TIP3    H125181   1.246   3.336   4.984  2.4735  1.5689 -0.5856
 1230TIP3    H225182   1.252   3.401   5.121  0.4208  0.6276 -0.0146
 1231TIP3   OH225183   0.378   3.336   4.569  0.7831  0.6714 -0.1474
 1231TIP3    H125184   0.422   3.403   4.517  1.6929 -0.9044 -1.5168
 1231TIP3    H225185   0.415   3.345   4.657  1.8168  1.1397 -0.6170
 1232TIP3   OH225186   5.028   2.736  15.421  0.4795  0.2730  0.0641
 1232TIP3    H125187   5.053   2.743  15.329  0.4338 -0.9667 -0.0637
 1232TIP3    H225188   4.935   2.716  15.419  0.8397 -1.6658  0.2675
 1233TIP3   OH225189   5.871   6.190   6.444  0.1106 -0.0027 -0.3686
 1233TIP3    H125190   5.910   6.260   6.497  0.1057 -0.6911  0.5756
 1233TIP3    H225191   5.846   6.123   6.508 -2.2430  0.2191 -0.9932
 1234TIP3   OH225192   3.456   2.905  11.526 -0.1059 -0.6989  0.0226
 1234TIP3    H125193   3.383   2.848  11.503  0.8158 -2.3651  0.9742
 1234TIP3    H225194   3.529   2.873  11.473  0.4362 -0.4359  0.5975
 1235TIP3   OH225195   5.925   3.183  13.353  0.1355 -0.1013  0.3104
 1235TIP3    H125196   5.954   3.273  13.342 -0.0685 -0.2616 -1.8908
 1235TIP3    H225197   5.897   3.155  13.266  0.2993 -2.3386  0.9036
 1236TIP3   OH225198   2.310   0.608  17.083  0.0101 -0.1043 -0.6961
 1236TIP3    H125199   2.358   0.564  17.012 -0.8055  1.0456 -2.0278
 1236TIP3    H225200   2.265   0.537  17.129 -0.3668 -0.7996 -2.0751
 1237TIP3   OH225201   1.782   6.791  11.762 -0.3585  0.0760 -0.0008
 1237TIP3    H125202   1.704   6.844  11.780 -0.5838 -0.3942  0.4450
 1237TIP3    H225203   1.823   6.779  11.848  1.0877  1.6366 -0.4283
 1238TIP3   OH225204   6.086   2.132   5.034 -0.0111 -0.1190  0.2562
 1238TIP3    H125205   6.015   2.069   5.020  0.3278 -0.6476  0.8549
 1238TIP3    H225206   6.041   2.215   5.048 -0.4431 -0.1185 -1.0324
 1239TIP3   OH225207   2.517   2.918  11.885  0.9071  0.1598 -0.5742
 1239TIP3    H125208   2.541   2.915  11.978  0.7438 -0.1571 -0.5395
 1239TIP3    H225209   2.517   2.826  11.858  1.1074  0.2615 -0.9282
 1240TIP3   OH225210   5.432   4.975  13.697  0.3121  0.6517  0.1767
 1240TIP3    H125211   5.390   4.894  13.668  0.9955  0.0616  0.7849
 1240TIP3    H225212   5.455   5.020  13.616 -0.7545  0.6092 -0.1652
 1241TIP3   OH225213   4.144   3.433   3.959  0.0034  0.4588  1.0866
 1241TIP3    H125214   4.142   3.509   3.901  1.1356  0.1339  0.5983
 1241TIP3    H225215   4.057   3.395   3.953 -0.4867  1.5599  1.1214
 1242TIP3   OH225216   1.865   5.924  14.904 -0.0412 -0.4547 -0.1499
 1242TIP3    H125217   1.872   5.960  14.993 -2.4137 -0.1143 -0.0468
 1242TIP3    H225218   1.955   5.927  14.870  0.1996  5.3400 -0.0145
 1243TIP3   OH225219   3.771   0.871  15.928  0.1955 -0.6704 -0.5654
 1243TIP3    H125220   3.807   0.960  15.933 -0.2474 -0.5623  3.4575
 1243TIP3    H225221   3.694   0.873  15.984 -0.4770 -3.3804 -1.2594
 1244TIP3   OH225222   4.479   5.656   2.193 -0.4460  0.0251 -0.0577
 1244TIP3    H125223   4.557   5.685   2.240 -0.2945  0.4311 -0.5472
 1244TIP3    H225224   4.464   5.567   2.224  0.8764 -0.4769 -0.7701
 1245TIP3   OH225225   3.589   5.958  11.992  0.3032 -0.2620 -0.2004
 1245TIP3    H125226   3.524   5.990  12.055  1.7204  1.9733  0.2548
 1245TIP3    H225227   3.537   5.926  11.918 -1.3199  0.6012  0.5080
 1246TIP3   OH225228   4.313   3.241  11.845  0.3995 -0.1674 -0.0009
 1246TIP3    H125229   4.271   3.310  11.794  0.4957 -0.9415 -1.1751
 1246TIP3    H225230   4.372   3.198  11.782 -0.8139 -2.3188  0.2545
 1247TIP3   OH225231   3.343   6.674   5.450 -0.5574  0.0300 -0.2556
 1247TIP3    H125232   3.437   6.682   5.467 -0.5911  0.9210 -0.4186
 1247TIP3    H225233   3.335   6.681   5.355 -0.6512 -1.7634 -0.4130
 1248TIP3   OH225234   1.594   2.045   0.134  0.2942 -0.2517 -0.4350
 1248TIP3    H125235   1.666   2.077   0.188  0.5513  0.2595 -1.0757
 1248TIP3    H225236   1.592   2.104   0.059 -2.1425  1.1467  0.5822
 1249TIP3   OH225237   3.042   6.416   1.717 -0.1829 -0.0557 -0.2730
 1249TIP3    H125238   3.077   6.494   1.760  2.0263 -0.8131 -0.5684
 1249TIP3    H225239   3.039   6.350   1.787 -2.1573  0.2668  0.0069
 1250TIP3   OH225240   1.223   5.332   1.350  0.2845  0.5921 -0.2242
 1250TIP3    H125241   1.289   5.366   1.410  1.6789 -1.8153 -0.2806
 1250TIP3    H225242   1.152   5.303   1.407  0.1470  1.3073 -0.0173
 1251TIP3   OH225243   0.059   1.129   0.472  0.0132 -0.1813 -0.0248
 1251TIP3    H125244   0.030   1.039   0.454  1.9473 -0.3814 -2.7800
 1251TIP3    H225245   0.155   1.123   0.474  0.2150  1.9355 -1.0416
 1252TIP3   OH225246   6.669   5.051  16.598  0.2903 -0.7775  0.4782
 1252TIP3    H125247   6.637   5.058  16.508  0.4080  0.1408  0.4922
 1252TIP3    H225248   6.726   5.128  16.609  0.9953 -1.3636  1.0498
 1253TIP3   OH225249   1.754   3.835   4.295  0.2447 -0.0391  0.4626
 1253TIP3    H125250   1.681   3.786   4.257  0.2302  0.5029 -0.2106
 1253TIP3    H225251   1.714   3.890   4.363 -0.1704  1.1632 -0.7205
 1254TIP3   OH225252   6.223   1.480   3.452 -0.6702 -0.2830 -0.6311
 1254TIP3    H125253   6.218   1.498   3.358 -2.8122  1.4818 -0.2405
 1254TIP3    H225254   6.146   1.427   3.470 -1.7650  1.6048  0.5240
 1255TIP3   OH225255   6.366   1.445   0.102 -0.6494  0.1258 -0.1411
 1255TIP3    H125256   6.460   1.427   0.092 -0.5103 -0.8677  2.2734
 1255TIP3    H225257   6.361   1.540   0.113 -0.2978  0.5706 -3.1175
 1256TIP3   OH225258   1.622   0.494  16.823 -0.8660 -0.0526 -0.3110
 1256TIP3    H125259   1.683   0.518  16.893 -0.0333  1.0138 -1.3621
 1256TIP3    H225260   1.537   0.491  16.866 -0.8178  3.2416  0.3170
 1257TIP3   OH225261   0.454   4.766   5.775  0.6915  0.6755 -0.0178
 1257TIP3    H125262   0.451   4.856   5.807  0.1002  1.0098 -0.9771
 1257TIP3    H225263   0.434   4.713   5.852  1.1926  1.3476  0.5918
 1258TIP3   OH225264   0.674   3.954   2.107  0.6801 -0.1811  0.3699
 1258TIP3    H125265   0.673   3.936   2.201 -1.6290 -1.6882  0.1301
 1258TIP3    H225266   0.650   3.871   2.066 -1.4101  1.1633 -1.3647
 1259TIP3   OH225267   6.849   3.429   4.587 -0.4010 -1.1830  0.2191
 1259TIP3    H125268   6.770   3.472   4.554 -0.2178 -1.7378 -1.0096
 1259TIP3    H225269   6.919   3.492   4.572 -0.5298 -0.8599  0.9191
 1260TIP3   OH225270   4.941   0.681   6.251  0.0584  0.0334  0.0393
 1260TIP3    H125271   4.989   0.705   6.330 -1.7496  3.6128  0.2289
 1260TIP3    H225272   4.971   0.744   6.185 -1.7359  0.0574 -0.8087
 1261TIP3   OH225273   5.406   5.541  15.348  0.7122 -0.6772 -0.2192
 1261TIP3    H125274   5.311   5.536  15.357  0.6874  0.3648  0.3153
 1261TIP3    H225275   5.434   5.451  15.332 -0.3646 -0.9932 -0.3963
 1262TIP3   OH225276   5.003   6.015  14.533  0.0670 -0.4432 -0.4342
 1262TIP3    H125277   5.019   6.069  14.456  0.0325 -0.0605 -0.1748
 1262TIP3    H225278   4.907   6.012  14.542 -0.0325 -2.1284 -1.5564
 1263TIP3   OH225279   2.402   3.046  11.642  0.1839 -0.5586 -0.1097
 1263TIP3    H125280   2.416   3.012  11.554  2.0031  1.0933 -0.5225
 1263TIP3    H225281   2.471   3.006  11.695 -1.1973 -1.9302  0.7414
 1264TIP3   OH225282   0.425   4.163  15.094  0.0060 -0.7025 -0.4802
 1264TIP3    H125283   0.481   4.236  15.069  1.1202 -1.8962 -1.6750
 1264TIP3    H225284   0.336   4.196  15.088  0.5148  0.7292 -0.3413
 1265TIP3   OH225285   4.793   5.628  11.277 -0.1047 -0.0242 -0.0467
 1265TIP3    H125286   4.793   5.550  11.221  1.9164  0.0136 -0.1650
 1265TIP3    H225287   4.737   5.691  11.230 -1.5970 -1.2827 -0.0490
 1266TIP3   OH225288   2.049   6.618  16.117 -0.4050  0.1190  0.2788
 1266TIP3    H125289   2.060   6.524  16.108 -3.0915 -0.4788  2.0916
 1266TIP3    H225290   2.094   6.639  16.199 -0.1971  0.3348  0.1103
 1267TIP3   OH225291   4.598   6.011   2.532 -0.1028 -0.4153  0.0518
 1267TIP3    H125292   4.550   6.063   2.467 -0.8134 -0.4013  0.5821
 1267TIP3    H225293   4.672   6.066   2.557  1.0823 -1.0292 -1.8718
 1268TIP3   OH225294   0.224   0.652   5.045  0.6065  0.2466  0.4409
 1268TIP3    H125295   0.201   0.559   5.035 -0.1809  0.1645  2.5378
 1268TIP3    H225296   0.296   0.651   5.109  1.3114  1.0380 -0.3176
 1269TIP3   OH225297   2.471   4.084  16.346 -0.5947 -0.4893 -0.0513
 1269TIP3    H125298   2.448   4.159  16.292  2.3996 -0.3347 -1.3449
 1269TIP3    H225299   2.526   4.030  16.289  0.6245 -1.6239  2.0680
 1270TIP3   OH225300   1.637   3.935   3.839 -0.3263 -0.5199  0.5738
 1270TIP3    H125301   1.587   3.885   3.774 -1.1951  1.1352 -0.0987
 1270TIP3    H225302   1.637   4.025   3.805 -0.8850  0.4306  2.8667
 1271TIP3   OH225303   1.028   5.127   1.806  0.1215  0.3421 -0.1977
 1271TIP3    H125304   1.074   5.191   1.860  1.2859  1.7011 -2.6376
 1271TIP3    H225305   0.937   5.130   1.838  0.7231  1.1095  1.5808
 1272TIP3   OH225306   3.717   3.366   5.772  0.6144 -0.4479  0.2102
 1272TIP3    H125307   3.658   3.441   5.761 -1.3208 -2.2017 -2.6169
 1272TIP3    H225308   3.703   3.337   5.862 -0.5910  0.9754  0.5169
 1273TIP3   OH225309   0.070   0.596   3.666  0.0329 -0.2331 -1.3738
 1273TIP3    H125310   0.129   0.657   3.709  0.1119 -0.4243 -1.2079
 1273TIP3    H225311   0.033   0.544   3.738 -2.4696  1.6758 -1.1133
 1274TIP3   OH225312   2.590   5.777  16.618  0.2402  0.2171  0.3852
 1274TIP3    H125313   2.546   5.731  16.689 -0.3289 -0.6235 -0.4870
 1274TIP3    H225314   2.538   5.756  16.540 -0.2222  2.5541 -0.0337
 1275TIP3   OH225315   5.676   0.627  13.994  0.0704  1.0395  0.4433
 1275TIP3    H125316   5.635   0.569  13.929 -0.4308  3.3440 -1.4474
 1275TIP3    H225317   5.770   0.623  13.974  0.1875  0.0333  1.1092
 1276TIP3   OH225318   4.822   1.862   0.219 -0.2539 -0.0046 -0.2878
 1276TIP3    H125319   4.877   1.793   0.183 -0.3289  0.4746 -1.3803
 1276TIP3    H225320   4.835   1.936   0.159 -2.1432  0.0874 -0.6551
 1277TIP3   OH225321   6.326   4.025   4.055  0.1658  0.0237  0.4695
 1277TIP3    H125322   6.305   3.962   4.124 -0.1495  0.6191  0.9332
 1277TIP3    H225323   6.242   4.046   4.015  0.1223  0.8554  0.9581
 1278TIP3   OH225324   4.044   4.444  14.316  0.4818 -0.1973 -0.4699
 1278TIP3    H125325   4.139   4.449  14.309  0.4353 -0.0210 -1.0143
 1278TIP3    H225326   4.013   4.432  14.226  0.0633 -1.7635 -0.1478
 1279TIP3   OH225327   0.516   1.901  11.367  0.9120  0.3816  0.4103
 1279TIP3    H125328   0.585   1.932  11.307 -0.7251  1.0884 -1.2175
 1279TIP3    H225329   0.436   1.943  11.335 -0.4323 -1.0298  1.7364
 1280TIP3   OH225330   3.569   0.526   6.609 -0.3655  0.1877  0.0869
 1280TIP3    H125331   3.645   0.566   6.566  0.7647 -0.9010  1.0064
 1280TIP3    H225332   3.510   0.505   6.537  1.0754 -0.7231 -0.9001
 1281TIP3   OH225333   5.839   2.008   4.978  0.0624  0.5324 -0.5478
 1281TIP3    H125334   5.837   1.917   5.009  0.6407  0.7784  0.2437
 1281TIP3    H225335   5.754   2.021   4.937 -0.6498  0.1100  0.7448
 1282TIP3   OH225336   6.770   2.408  11.501  0.4394 -0.5392  0.6886
 1282TIP3    H125337   6.774   2.321  11.461 -0.4334  0.2682 -1.3202
 1282TIP3    H225338   6.686   2.410  11.546  0.8399 -1.0187  1.4628
 1283TIP3   OH225339   6.410   6.073   2.568  0.2562  0.5647 -0.3227
 1283TIP3    H125340   6.319   6.091   2.546 -0.0512  2.5406  2.0755
 1283TIP3    H225341   6.461   6.132   2.513  0.1925 -0.9375 -2.0723
 1284TIP3   OH225342   1.988   6.425  10.836 -0.6399 -0.7357  0.4792
 1284TIP3    H125343   1.893   6.436  10.834 -0.4716  1.4120 -2.1706
 1284TIP3    H225344   2.020   6.500  10.886 -0.2877 -0.3893 -0.2515
 1285TIP3   OH225345   4.413   1.221   0.514  0.2830 -0.3206  0.1546
 1285TIP3    H125346   4.323   1.188   0.510  0.8000 -1.8856  0.6666
 1285TIP3    H225347   4.410   1.290   0.579 -0.5889 -0.2253  0.0259
 1286TIP3   OH225348   5.182   2.506   2.498  0.3092 -0.5671  0.3042
 1286TIP3    H125349   5.160   2.486   2.589 -0.4308 -1.7568 -0.1073
 1286TIP3    H225350   5.193   2.420   2.457  2.4606 -0.0344 -0.3209
 1287TIP3   OH225351   0.489   2.815  14.944  0.3874 -0.0900 -0.0193
 1287TIP3    H125352   0.461   2.835  15.033  0.0484 -1.5601  0.2231
 1287TIP3    H225353   0.573   2.862  14.935 -0.9134  2.4338  0.0426
 1288TIP3   OH225354   1.251   4.695  16.292 -0.3067 -0.4091  0.1214
 1288TIP3    H125355   1.317   4.644  16.244 -0.0710  1.1853 -1.3239
 1288TIP3    H225356   1.167   4.661  16.261 -0.1567 -0.5081 -0.1817
 1289TIP3   OH225357   0.813   1.060   3.404  0.8400  0.3072 -0.9798
 1289TIP3    H125358   0.779   0.978   3.441  1.4753  0.4686  0.0157
 1289TIP3    H225359   0.899   1.070   3.445  0.2197  2.1683 -0.0023
 1290TIP3   OH225360   6.472   4.287   0.013  0.3998 -0.2174  0.1492
 1290TIP3    H125361   6.387   4.330   0.025  0.5256 -0.1797  0.8938
 1290TIP3    H225362   6.454   4.218  -0.052 -0.5098 -1.0900  1.2924
 1291TIP3   OH225363   6.007   5.730   3.370  0.2939  0.2777 -0.1370
 1291TIP3    H125364   6.027   5.768   3.456  0.9555 -1.1631  0.3986
 1291TIP3    H225365   6.068   5.773   3.310  1.8258 -0.6711  0.6527
 1292TIP3   OH225366   2.560   1.518   1.585 -0.0076  0.0302 -0.2827
 1292TIP3    H125367   2.582   1.438   1.633  0.8446 -0.6031 -1.6728
 1292TIP3    H225368   2.636   1.534   1.529 -0.8691  0.8917 -1.2415
 1293TIP3   OH225369   0.974   6.675   4.942 -0.6473 -0.0565  0.5584
 1293TIP3    H125370   1.029   6.710   4.872 -0.9010  1.5920  1.1351
 1293TIP3    H225371   1.030   6.612   4.988 -0.0332 -0.1313 -0.2627
 1294TIP3   OH225372   2.831   5.183  16.895  0.0237  0.5719  0.3515
 1294TIP3    H125373   2.833   5.202  16.801 -1.0831  1.7453  0.5503
 1294TIP3    H225374   2.915   5.214  16.928  0.8652 -0.8160 -0.4081
 1295TIP3   OH225375   5.194   4.481  10.908 -0.0511  0.6527 -0.0274
 1295TIP3    H125376   5.127   4.538  10.869 -0.5171  0.5122  0.5499
 1295TIP3    H225377   5.267   4.540  10.928  0.3504  0.6696 -1.4295
 1296TIP3   OH225378   3.006   3.434  16.974 -0.2570  0.0093  0.1216
 1296TIP3    H125379   3.035   3.383  16.898  1.5480  1.3958 -0.2003
 1296TIP3    H225380   2.919   3.465  16.950 -0.8110 -1.7134 -0.2419
 1297TIP3   OH225381   3.149   6.562  13.365  0.1075  0.0079  0.1488
 1297TIP3    H125382   3.088   6.546  13.438 -0.5616  0.2122 -0.3520
 1297TIP3    H225383   3.108   6.633  13.315 -0.2524 -1.1495 -1.2920
 1298TIP3   OH225384   0.243   0.848  12.541 -0.5840 -0.3880 -0.2621
 1298TIP3    H125385   0.268   0.867  12.631  1.1275  0.9893 -0.9560
 1298TIP3    H225386   0.191   0.924  12.513 -0.3773 -0.3934 -0.6785
 1299TIP3   OH225387   1.337   0.554   2.857 -0.1857  0.7170  0.1127
 1299TIP3    H125388   1.424   0.594   2.849  0.7202 -1.1987 -0.2462
 1299TIP3    H225389   1.276   0.628   2.853  1.4602  2.3749  2.5085
 1300TIP3   OH225390   4.059   6.488  16.200  0.2092  0.1861  0.5886
 1300TIP3    H125391   4.128   6.490  16.134 -0.0280  0.1720  0.3411
 1300TIP3    H225392   4.088   6.420  16.261 -1.1076 -2.1259 -1.2005
 1301TIP3   OH225393   0.508   4.091   1.085 -0.8798 -0.1568  0.0731
 1301TIP3    H125394   0.560   4.101   1.164  1.8427 -1.2667 -1.4298
 1301TIP3    H225395   0.572   4.091   1.014 -3.1934  0.8380 -2.1828
 1302TIP3   OH225396   5.586   3.524  11.044 -0.0987  0.3098 -0.1215
 1302TIP3    H125397   5.606   3.496  10.954 -0.0608 -0.2011  0.0378
 1302TIP3    H225398   5.599   3.444  11.096 -0.1913  0.5860  0.3258
 1303TIP3   OH225399   3.402   6.589   3.295 -0.2512 -0.6669 -0.3530
 1303TIP3    H125400   3.485   6.638   3.292 -0.5159 -0.0944  1.0203
 1303TIP3    H225401   3.347   6.633   3.229 -0.0502  0.0948 -0.0312
 1304TIP3   OH225402   0.454   1.245  12.993 -0.2822 -0.4119 -0.2090
 1304TIP3    H125403   0.416   1.158  12.981 -0.1532 -0.3733 -0.8915
 1304TIP3    H225404   0.485   1.271  12.906 -1.4119  0.8251 -0.2758
 1305TIP3   OH225405   2.340   4.220   4.786  0.4729  0.2118  0.0290
 1305TIP3    H125406   2.331   4.261   4.700 -3.0219 -1.4086 -0.5482
 1305TIP3    H225407   2.427   4.246   4.815  1.0726  2.4059 -3.1311
 1306TIP3   OH225408   4.974   4.013   2.204  0.9487 -0.3496  0.0589
 1306TIP3    H125409   4.965   4.103   2.175 -2.6046 -0.7177 -0.4974
 1306TIP3    H225410   5.035   3.973   2.142  0.6229  1.0931 -1.2572
 1307TIP3   OH225411   4.059   1.489  13.200 -0.2779 -0.0653  0.3341
 1307TIP3    H125412   4.048   1.584  13.201 -1.8179 -0.1083 -2.5739
 1307TIP3    H225413   3.972   1.454  13.183  0.5275 -1.8979 -0.3276
 1308TIP3   OH225414   3.984   5.763  16.734 -0.1716 -0.3402 -0.0003
 1308TIP3    H125415   3.890   5.748  16.725 -0.0499 -0.3760 -1.4465
 1308TIP3    H225416   4.025   5.703  16.672  0.7299  0.5368 -0.2908
 1309TIP3   OH225417   2.759   0.425  13.299  0.0815  0.2500 -0.6147
 1309TIP3    H125418   2.685   0.438  13.358 -0.5783 -0.7897 -1.1889
 1309TIP3    H225419   2.818   0.498  13.318  0.0659 -0.2565  1.6000
 1310TIP3   OH225420   5.184   2.561  12.969  0.9057  0.2281 -0.1840
 1310TIP3    H125421   5.127   2.597  13.037  0.0409 -0.4880 -0.5092
 1310TIP3    H225422   5.133   2.490  12.930  1.1726  0.9398 -1.9250
 1311TIP3   OH225423   4.696   3.993   1.739  0.1328  0.9107  0.6529
 1311TIP3    H125424   4.751   3.933   1.790 -2.0754 -0.8763  1.0596
 1311TIP3    H225425   4.696   4.075   1.789  0.3815  0.1304  1.9733
 1312TIP3   OH225426   0.782   5.058   1.078 -0.1031 -0.8892 -0.2000
 1312TIP3    H125427   0.857   5.004   1.101 -0.1398 -1.2164 -0.8007
 1312TIP3    H225428   0.709   4.996   1.075 -0.2039 -0.7554 -0.6011
 1313TIP3   OH225429   4.974   2.587  13.377 -0.0274  0.0608 -0.1588
 1313TIP3    H125430   4.978   2.651  13.448 -0.9334 -2.0278  1.9123
 1313TIP3    H225431   5.032   2.516  13.406 -2.0120 -1.7722 -0.4127
 1314TIP3   OH225432   3.485   1.297  12.104 -0.2822  0.0733  0.3245
 1314TIP3    H125433   3.502   1.210  12.069  0.8286 -0.1156  1.2708
 1314TIP3    H225434   3.572   1.332  12.126 -0.8013  0.9388  1.0714
 1315TIP3   OH225435   3.102   1.100   2.444  0.1563 -0.4644  0.2566
 1315TIP3    H125436   3.006   1.100   2.448  0.0749  3.0379  1.3501
 1315TIP3    H225437   3.122   1.101   2.350 -0.8731 -0.6537  0.0190
 1316TIP3   OH225438   0.650   0.187  13.796  0.4335 -0.1775 -0.6408
 1316TIP3    H125439   0.615   0.235  13.721 -1.2133 -0.2276  0.0762
 1316TIP3    H225440   0.586   0.118  13.814  0.9864 -0.4068  0.5843
 1317TIP3   OH225441   6.748   2.548  15.786 -0.8901  0.1816  0.2378
 1317TIP3    H125442   6.725   2.528  15.695  0.1263 -1.3656  0.2755
 1317TIP3    H225443   6.843   2.564  15.783 -0.8074 -0.1440  1.0681
 1318TIP3   OH225444   5.793   5.221  13.199  0.1181 -0.1591  0.0765
 1318TIP3    H125445   5.865   5.263  13.153 -1.1032  1.0402 -0.8035
 1318TIP3    H225446   5.720   5.221  13.137 -0.8964 -0.5833  1.2150
 1319TIP3   OH225447   3.353   2.280   2.983  0.2611  0.1084 -0.3575
 1319TIP3    H125448   3.377   2.305   3.072  0.4465 -0.0928 -0.3530
 1319TIP3    H225449   3.308   2.358   2.948 -0.1033  0.0722  0.0190
 1320TIP3   OH225450   6.550   4.541  10.520  0.1852 -0.3745  0.4517
 1320TIP3    H125451   6.470   4.588  10.541  0.3503 -0.1303  0.5420
 1320TIP3    H225452   6.614   4.610  10.502 -0.1809 -0.5581 -1.8134
 1321TIP3   OH225453   6.155   4.186   2.225  0.3409 -0.0198 -0.5968
 1321TIP3    H125454   6.082   4.248   2.219  1.0587  0.9953  0.4604
 1321TIP3    H225455   6.135   4.118   2.161 -0.3454  1.4545 -2.0272
 1322TIP3   OH225456   6.500   1.170   4.813 -0.1032  0.2036  0.2173
 1322TIP3    H125457   6.413   1.155   4.776 -0.3711  1.5864  0.2267
 1322TIP3    H225458   6.558   1.177   4.736 -0.4296  1.6847  0.0661
 1323TIP3   OH225459   4.467   6.782  13.058 -0.0203 -0.3903 -0.1280
 1323TIP3    H125460   4.458   6.874  13.035  0.4712  0.1198  1.6067
 1323TIP3    H225461   4.561   6.766  13.059 -0.1167 -1.0576 -0.9228
 1324TIP3   OH225462   3.588   0.194  15.220 -0.3421 -0.1254 -0.4916
 1324TIP3    H125463   3.552   0.283  15.220 -0.9278 -0.3544  0.0921
 1324TIP3    H225464   3.674   0.203  15.260 -1.2458 -0.1252  1.5721
 1325TIP3   OH225465   3.609   2.754  13.071 -0.6818  0.0377 -0.3916
 1325TIP3    H125466   3.529   2.789  13.110 -0.3415 -0.5511  0.8938
 1325TIP3    H225467   3.626   2.674  13.120  0.8307  0.2798 -0.4703
 1326TIP3   OH225468   4.456   2.161   3.568 -0.5987  0.1695  0.5458
 1326TIP3    H125469   4.396   2.173   3.495  1.0493  1.8692 -0.6253
 1326TIP3    H225470   4.421   2.217   3.638 -1.4612 -0.4406  0.6150
 1327TIP3   OH225471   5.728   4.689   0.122 -0.1845 -0.3490 -0.1106
 1327TIP3    H125472   5.730   4.761   0.059 -0.5415 -2.0197 -2.1032
 1327TIP3    H225473   5.662   4.716   0.186  1.5179  2.2428  0.7223
 1328TIP3   OH225474   2.160   2.676  15.745  0.5347 -0.9025  0.0786
 1328TIP3    H125475   2.154   2.591  15.700 -1.0690 -1.0237  0.4343
 1328TIP3    H225476   2.103   2.734  15.694  0.1548 -0.5470  0.8992
 1329TIP3   OH225477   2.649   2.426  15.864  0.4050  0.0742  0.3114
 1329TIP3    H125478   2.642   2.515  15.829 -0.3009 -0.3408 -0.6360
 1329TIP3    H225479   2.560   2.404  15.891  0.7383 -0.0303  1.3592
 1330TIP3   OH225480   5.851   5.986  14.295  0.0332  0.1382 -0.0497
 1330TIP3    H125481   5.824   6.057  14.353  3.0467  1.6027 -0.2037
 1330TIP3    H225482   5.851   6.024  14.208 -1.6433 -1.1617 -0.6584
 1331TIP3   OH225483   0.983   4.214  13.867  0.1835 -0.5945 -0.0308
 1331TIP3    H125484   0.988   4.288  13.927  3.2688  0.0427 -0.8404
 1331TIP3    H225485   0.928   4.245  13.795 -0.5580 -0.0357  0.7567
 1332TIP3   OH225486   1.415   5.471  14.096  0.6800 -0.2940 -0.0188
 1332TIP3    H125487   1.323   5.456  14.075  0.6153  1.0678 -0.8640
 1332TIP3    H225488   1.419   5.470  14.191 -0.1649 -0.6018  0.0155
 1333TIP3   OH225489   4.711   2.348   1.382 -0.0884 -0.7129  0.6992
 1333TIP3    H125490   4.707   2.312   1.471 -0.9269 -2.1128  0.1309
 1333TIP3    H225491   4.649   2.420   1.383 -0.7297 -1.2583  1.0321
 1334TIP3   OH225492   4.133   3.123   3.290  0.2201 -0.0096  0.4407
 1334TIP3    H125493   4.119   3.052   3.228  0.5573  0.8725 -0.6850
 1334TIP3    H225494   4.128   3.082   3.376 -0.4154 -1.2378 -0.1630
 1335TIP3   OH225495   1.250   6.174   4.552 -0.1230 -0.2217  0.3696
 1335TIP3    H125496   1.211   6.238   4.610 -1.0942 -0.0779 -0.4144
 1335TIP3    H225497   1.246   6.091   4.600 -0.7864 -0.0821  0.5566
 1336TIP3   OH225498   1.191   1.039  12.087  0.3650 -0.4052  0.1445
 1336TIP3    H125499   1.285   1.028  12.104  0.4560  0.4763  0.2582
 1336TIP3    H225500   1.164   1.111  12.144 -0.3976 -0.6901  0.1519
 1337TIP3   OH225501   2.666   0.173   4.858 -0.1198  0.0390  0.5549
 1337TIP3    H125502   2.714   0.209   4.784 -0.1152  1.3983  1.1904
 1337TIP3    H225503   2.733   0.138   4.916  0.0155  0.5444  0.7142
 1338TIP3   OH225504   3.032   4.821  10.831 -0.0040  0.1712  0.2518
 1338TIP3    H125505   3.107   4.762  10.836  1.0819  1.5968  2.2310
 1338TIP3    H225506   3.068   4.903  10.796 -0.9152  0.5125  0.0699
 1339TIP3   OH225507   0.533   5.420   6.510  0.2335 -0.1733  0.3121
 1339TIP3    H125508   0.519   5.494   6.569  1.3849 -0.5727  1.1099
 1339TIP3    H225509   0.464   5.358   6.532  1.7513 -1.1579  2.6246
 1340TIP3   OH225510   1.137   0.355   0.899 -0.0606 -0.2101  0.0554
 1340TIP3    H125511   1.230   0.347   0.921 -0.1801  0.4699  0.8733
 1340TIP3    H225512   1.093   0.294   0.957 -0.0861 -0.9984 -0.7695
 1341TIP3   OH225513   3.055   5.664  12.495 -0.6815 -0.3601  0.1356
 1341TIP3    H125514   2.971   5.707  12.478  0.1020  1.3547  0.4094
 1341TIP3    H225515   3.060   5.594  12.430 -0.9996  1.4033 -1.9144
 1342TIP3   OH225516   3.354   4.869  17.190 -0.0021 -0.5824 -0.1885
 1342TIP3    H125517   3.365   4.936  17.257  1.3467 -1.2534  0.2987
 1342TIP3    H225518   3.268   4.886  17.152 -1.5311 -1.1178  2.7748
 1343TIP3   OH225519   0.691   3.050   3.591 -0.2320  0.1360  0.9350
 1343TIP3    H125520   0.726   2.994   3.660  0.1453 -1.1348 -0.2161
 1343TIP3    H225521   0.601   3.021   3.579  0.7020 -2.2450 -1.4698
 1344TIP3   OH225522   6.244   6.287  13.659  0.7881 -0.0898 -0.5848
 1344TIP3    H125523   6.262   6.193  13.656 -1.5883 -0.5819 -1.0838
 1344TIP3    H225524   6.228   6.311  13.568  2.8332  1.1613 -0.6690
 1345TIP3   OH225525   5.002   1.911  16.250  0.4692 -0.2397  0.0233
 1345TIP3    H125526   4.972   1.968  16.180 -1.4407 -0.6575  0.4429
 1345TIP3    H225527   5.031   1.831  16.204 -0.9401 -0.5852 -0.3052
 1346TIP3   OH225528   1.172   0.095  11.487 -0.4239  0.2028  0.2891
 1346TIP3    H125529   1.198   0.030  11.421 -0.0192  1.9755 -1.4136
 1346TIP3    H225530   1.100   0.054  11.535 -1.3472 -0.8712 -1.8697
 1347TIP3   OH225531   3.615   1.410   5.117  0.0773  0.4640  0.2550
 1347TIP3    H125532   3.585   1.419   5.208  1.9579  1.0207  0.8737
 1347TIP3    H225533   3.630   1.317   5.105  2.0325  0.5876  1.3339
 1348TIP3   OH225534   1.973   3.084   2.928  0.5134  0.2180 -0.0525
 1348TIP3    H125535   1.966   3.124   3.015 -1.2658  0.3799 -0.2424
 1348TIP3    H225536   2.032   3.141   2.880 -0.9320  1.9146  0.0944
 1349TIP3   OH225537   1.681   1.654  17.085 -0.4940  0.0965  0.0224
 1349TIP3    H125538   1.768   1.621  17.107 -0.0660  0.4202 -1.0781
 1349TIP3    H225539   1.620   1.593  17.126  0.2667 -0.8101 -0.1642
 1350TIP3   OH225540   3.925   5.195   1.592  0.1901 -0.3269 -0.2033
 1350TIP3    H125541   3.919   5.228   1.503 -0.9967  0.6190  0.2026
 1350TIP3    H225542   3.836   5.204   1.627  0.8543  0.3312  1.4241
 1351TIP3   OH225543   5.273   5.132   4.677  0.2809  0.5797  0.2330
 1351TIP3    H125544   5.341   5.192   4.648  0.7391  1.0181  2.0806
 1351TIP3    H225545   5.202   5.188   4.708 -0.0415  0.1456  0.2985
 1352TIP3   OH225546   3.617   2.945  14.580 -0.3542  0.5495 -0.8515
 1352TIP3    H125547   3.584   2.855  14.585 -2.0824  1.1108 -1.4724
 1352TIP3    H225548   3.556   2.990  14.522  0.9863  1.9316 -1.2553
 1353TIP3   OH225549   2.170   5.421  17.177  0.1940 -0.4659  0.3145
 1353TIP3    H125550   2.120   5.341  17.162 -0.4829 -0.4942  2.4218
 1353TIP3    H225551   2.183   5.458  17.089 -3.2416 -0.6166 -0.3816
 1354TIP3   OH225552   4.444   5.738  15.073 -0.5313 -0.0164  0.0627
 1354TIP3    H125553   4.434   5.823  15.116 -0.0086  0.4286 -0.6657
 1354TIP3    H225554   4.392   5.678  15.126 -0.9743  0.7723  0.5449
 1355TIP3   OH225555   4.244   4.319  11.268  0.6527  0.1293 -0.1019
 1355TIP3    H125556   4.220   4.325  11.176  1.6736 -2.3801 -0.6144
 1355TIP3    H225557   4.256   4.409  11.296 -2.9810  1.1999 -1.4529
 1356TIP3   OH225558   2.432   2.733  13.358 -0.1309  0.4144 -0.4968
 1356TIP3    H125559   2.433   2.829  13.352  0.8675  0.5447  1.1001
 1356TIP3    H225560   2.460   2.703  13.271 -1.0867  1.5440 -1.2131
 1357TIP3   OH225561   5.143   4.189  15.201 -0.5084  0.5291  0.4379
 1357TIP3    H125562   5.121   4.219  15.113  1.2742 -2.1570 -1.0615
 1357TIP3    H225563   5.177   4.267  15.245  1.1225  1.4157 -2.1822
 1358TIP3   OH225564   2.173   6.586   1.038 -0.4411  0.6782 -0.0305
 1358TIP3    H125565   2.228   6.598   0.961 -2.6207  1.3800 -1.5611
 1358TIP3    H225566   2.178   6.492   1.057  1.0058  0.6810 -0.2865
 1359TIP3   OH225567   1.421   5.322  16.918  0.3651 -0.0513 -0.4375
 1359TIP3    H125568   1.383   5.377  16.850 -1.1815 -0.3188  0.1851
 1359TIP3    H225569   1.347   5.275  16.956  1.4379 -1.2821  0.2020
 1360TIP3   OH225570   5.704   4.894   3.307  0.2290  0.1545 -0.6360
 1360TIP3    H125571   5.758   4.817   3.289  0.2575  0.1077 -0.3663
 1360TIP3    H225572   5.741   4.931   3.388 -0.8037 -0.5153  0.1741
 1361TIP3   OH225573   1.921   2.514   6.105  0.9125  0.2306  0.3342
 1361TIP3    H125574   1.840   2.555   6.136 -1.0166 -3.7174  1.1726
 1361TIP3    H225575   1.970   2.496   6.185  0.9780 -0.4304  0.1491
 1362TIP3   OH225576   5.337   6.205  11.832  0.0464  0.2349  0.2902
 1362TIP3    H125577   5.362   6.199  11.925 -2.2924  0.1111  0.9764
 1362TIP3    H225578   5.241   6.200  11.833  0.0180 -1.4159 -2.2643
 1363TIP3   OH225579   0.158   1.412   4.485 -0.0409 -0.2086  0.0612
 1363TIP3    H125580   0.139   1.322   4.457 -0.2517 -0.4309  0.9168
 1363TIP3    H225581   0.150   1.411   4.580 -0.9895  0.9437  0.0197
 1364TIP3   OH225582   0.412   0.133  14.189  0.2942 -0.3867  0.0180
 1364TIP3    H125583   0.326   0.173  14.179 -0.0897 -0.9300  1.0172
 1364TIP3    H225584   0.436   0.149  14.280  2.2735  1.7188 -0.7629
 1365TIP3   OH225585   0.549   4.235  15.901 -0.6139 -0.0269 -0.2462
 1365TIP3    H125586   0.509   4.276  15.978 -0.4139  0.8305 -0.5830
 1365TIP3    H225587   0.575   4.309  15.845  2.5491 -0.4342  0.4838
 1366TIP3   OH225588   0.806   1.194  14.926 -0.8933  0.2746 -0.3581
 1366TIP3    H125589   0.791   1.123  14.988 -3.0498  0.5495 -0.5054
 1366TIP3    H225590   0.855   1.154  14.854  0.7517 -0.2722  0.9977
 1367TIP3   OH225591   4.795   2.525  13.913 -1.0797  0.1058  0.0804
 1367TIP3    H125592   4.884   2.529  13.947 -0.9644 -2.9166  0.4260
 1367TIP3    H225593   4.797   2.577  13.832  0.9657  0.1268  0.1024
 1368TIP3   OH225594   1.463   6.057   3.350  0.2754  0.1269  0.5436
 1368TIP3    H125595   1.516   5.986   3.313  1.8027  0.7508  1.4293
 1368TIP3    H225596   1.401   6.012   3.408  1.6536 -0.4992  1.6118
 1369TIP3   OH225597   3.442   1.156  13.734  0.4650 -0.1157  0.1039
 1369TIP3    H125598   3.534   1.179  13.741  0.6525 -0.7097 -0.3090
 1369TIP3    H225599   3.395   1.232  13.770  1.1295 -0.1723  1.1284
 1370TIP3   OH225600   2.976   4.460   1.940 -0.8879 -0.7055 -0.0363
 1370TIP3    H125601   3.014   4.443   1.854  0.3126 -1.6904  0.6633
 1370TIP3    H225602   2.967   4.556   1.944  0.1852 -0.5571 -0.7891
 1371TIP3   OH225603   4.550   1.328  16.930 -0.1343  0.4896 -0.4223
 1371TIP3    H125604   4.534   1.337  16.836  0.3825  1.6921 -0.4177
 1371TIP3    H225605   4.497   1.397  16.970 -1.5069 -0.9349  0.3279
 1372TIP3   OH225606   6.603   0.153  15.006 -0.1656 -0.2463  0.8099
 1372TIP3    H125607   6.609   0.217  15.076 -1.5553 -2.5029  3.1584
 1372TIP3    H225608   6.687   0.106  15.009  0.6850  1.0786 -0.6369
 1373TIP3   OH225609   3.984   6.434   4.556  0.5364  0.2113  0.6533
 1373TIP3    H125610   4.010   6.343   4.563  1.1367  0.2905 -0.2926
 1373TIP3    H225611   3.897   6.431   4.516  0.1021  0.0331  1.5779
 1374TIP3   OH225612   2.108   0.102   4.550 -0.1874 -0.0354  0.2117
 1374TIP3    H125613   2.150   0.188   4.541 -1.9825  0.8628 -0.2385
 1374TIP3    H225614   2.031   0.120   4.604 -0.2015 -1.5299  0.7138
 1375TIP3   OH225615   6.366   2.138  11.121 -0.3302  0.2898 -0.2508
 1375TIP3    H125616   6.387   2.155  11.029 -1.7519 -3.9607 -1.5896
 1375TIP3    H225617   6.276   2.169  11.132 -0.3026  0.4164 -0.3764
 1376TIP3   OH225618   4.151   1.483   5.497 -0.3770  0.1892 -0.2691
 1376TIP3    H125619   4.196   1.409   5.540 -0.8702 -0.6264 -1.1255
 1376TIP3    H225620   4.058   1.461   5.503 -0.6346  1.3976  0.6205
 1377TIP3   OH225621   1.073   1.412  13.992 -0.1239  0.3328 -0.4217
 1377TIP3    H125622   1.124   1.475  14.043  0.7769 -0.9479  0.3000
 1377TIP3    H225623   1.012   1.467  13.942  0.9210  1.8072 -0.1644
 1378TIP3   OH225624   5.599   3.118   3.568 -0.4104 -0.0665  0.8146
 1378TIP3    H125625   5.612   3.099   3.475 -2.1588 -1.6159  0.8257
 1378TIP3    H225626   5.687   3.124   3.604  0.3119  1.1341 -1.0301
 1379TIP3   OH225627   5.085   6.595   4.610  0.5437  0.8667  0.4856
 1379TIP3    H125628   4.994   6.622   4.621 -0.1750 -1.7367  1.7992
 1379TIP3    H225629   5.130   6.626   4.689 -0.1276 -0.9566  1.6631
 1380TIP3   OH225630   3.782   5.479   3.467 -0.1542  0.3260  0.1252
 1380TIP3    H125631   3.752   5.524   3.546  2.5047  0.6263  1.0493
 1380TIP3    H225632   3.838   5.543   3.423 -0.3985 -0.3595 -1.2330
 1381TIP3   OH225633   1.149   2.503   4.889  0.5335 -0.3606  0.2401
 1381TIP3    H125634   1.190   2.425   4.926  1.1880 -0.0331  0.2074
 1381TIP3    H225635   1.152   2.568   4.960  2.8827  0.6699 -0.6885
 1382TIP3   OH225636   0.700   1.600   3.575  0.4141 -0.1052 -0.4521
 1382TIP3    H125637   0.737   1.687   3.590  1.5293 -0.9048  1.9818
 1382TIP3    H225638   0.610   1.617   3.545  0.1441  1.9091  1.2328
 1383TIP3   OH225639   2.606   1.016  15.098  0.0322 -0.1116  0.5338
 1383TIP3    H125640   2.618   1.098  15.050  1.3736  0.0072  1.0385
 1383TIP3    H225641   2.598   0.950  15.029 -1.2531  0.4401  0.1164
 1384TIP3   OH225642   4.986   0.982  12.533 -0.0635  0.3116  0.1448
 1384TIP3    H125643   4.952   0.955  12.618 -0.0784 -2.0564 -0.5389
 1384TIP3    H225644   5.077   1.006  12.550 -0.9701  3.3861  1.3815
 1385TIP3   OH225645   2.244   6.121   3.199  0.1737  0.1899 -0.6793
 1385TIP3    H125646   2.337   6.126   3.222  0.4622 -0.6572 -1.6356
 1385TIP3    H225647   2.212   6.211   3.209  0.7006  0.2139  1.2154
 1386TIP3   OH225648   5.304   6.699   2.184  0.0464 -0.2881 -0.2582
 1386TIP3    H125649   5.256   6.770   2.141 -1.1460 -0.9755 -0.1107
 1386TIP3    H225650   5.273   6.699   2.274  0.9604 -0.2125  0.0680
 1387TIP3   OH225651   5.552   5.226  12.713  0.2009  0.3739 -0.3577
 1387TIP3    H125652   5.628   5.252  12.661  0.0193  0.2571 -0.6785
 1387TIP3    H225653   5.547   5.131  12.702  0.9241  0.1610  0.8914
 1388TIP3   OH225654   2.116   6.537  15.803  0.3909  0.5245  0.1605
 1388TIP3    H125655   2.063   6.562  15.878  0.9226 -1.2444  1.1914
 1388TIP3    H225656   2.206   6.554  15.831  0.5327  0.8584 -0.4906
 1389TIP3   OH225657   1.392   0.451  16.398  0.3668  0.0754  0.0828
 1389TIP3    H125658   1.323   0.513  16.423 -1.3791 -1.7855  0.1822
 1389TIP3    H225659   1.344   0.378  16.359  2.2416 -1.6253  0.8378
 1390TIP3   OH225660   2.976   4.591  16.873  0.9840  0.9241  1.0765
 1390TIP3    H125661   3.023   4.673  16.861  0.2055  1.2469  0.0451
 1390TIP3    H225662   2.890   4.607  16.834  1.7192 -1.2112 -1.7585
 1391TIP3   OH225663   5.794   2.358   3.292 -0.0605 -0.6992  0.6418
 1391TIP3    H125664   5.792   2.436   3.348 -1.4119 -0.5800  0.4553
 1391TIP3    H225665   5.755   2.386   3.209  0.8223 -1.1917  0.0432
 1392TIP3   OH225666   2.024   4.106   4.336 -0.0045 -0.6002 -0.2020
 1392TIP3    H125667   1.940   4.143   4.311  0.1528 -0.4628 -0.5328
 1392TIP3    H225668   2.059   4.166   4.402 -0.6199 -1.1976  0.6922
 1393TIP3   OH225669   5.665   6.573   1.558 -0.5727  0.4177  0.0180
 1393TIP3    H125670   5.723   6.555   1.484 -1.0361  1.2286 -0.5585
 1393TIP3    H225671   5.701   6.521   1.630 -0.1152 -0.3858 -0.7751
 1394TIP3   OH225672   5.012   5.566  11.448  0.1814 -0.2508 -0.1250
 1394TIP3    H125673   4.946   5.584  11.381  1.6578 -3.0923 -2.6092
 1394TIP3    H225674   5.076   5.636  11.439 -0.3587  0.1816 -0.6729
 1395TIP3   OH225675   2.292   2.460   6.335  0.5148 -0.2461 -0.2127
 1395TIP3    H125676   2.384   2.464   6.360  0.3271  1.2729  0.3177
 1395TIP3    H225677   2.271   2.549   6.306 -1.1219 -0.2241  0.9296
 1396TIP3   OH225678   3.462   3.773  16.399  0.3758  0.3363  0.0111
 1396TIP3    H125679   3.371   3.751  16.379  0.2484  0.1253  0.8079
 1396TIP3    H225680   3.492   3.821  16.321 -1.3118  3.0290  0.8582
 1397TIP3   OH225681   3.425   2.608   4.627 -0.2528  0.1754  0.1044
 1397TIP3    H125682   3.354   2.599   4.564 -1.0117 -0.3211  1.0190
 1397TIP3    H225683   3.459   2.519   4.637 -0.2617  0.2202  0.5411
 1398TIP3   OH225684   2.133   1.114   1.820  0.0743 -0.4462  0.2689
 1398TIP3    H125685   2.223   1.137   1.799  0.2885 -1.4115  0.0880
 1398TIP3    H225686   2.108   1.051   1.753 -0.7336 -0.1945  0.3275
 1399TIP3   OH225687   6.543   3.188  13.652  0.1706 -0.1535  0.7980
 1399TIP3    H125688   6.542   3.092  13.648 -1.6128 -0.1495  0.1807
 1399TIP3    H225689   6.542   3.208  13.746  1.1971 -0.7225  0.9368
 1400TIP3   OH225690   4.877   0.614   1.838 -0.1467  0.3827  0.1281
 1400TIP3    H125691   4.820   0.638   1.765 -0.5067 -1.2271 -0.1746
 1400TIP3    H225692   4.843   0.663   1.913 -1.6140 -0.1450 -0.1650
 1401TIP3   OH225693   4.533   4.834   5.377  0.2893  0.3997 -0.4809
 1401TIP3    H125694   4.563   4.912   5.330  0.0356 -0.1456 -1.6032
 1401TIP3    H225695   4.444   4.857   5.406  0.3309  0.6370 -0.5377
 1402TIP3   OH225696   4.828   0.302   1.117 -0.1954 -0.0520 -0.2137
 1402TIP3    H125697   4.855   0.336   1.032 -1.3512  1.4079 -0.0385
 1402TIP3    H225698   4.901   0.247   1.146  1.1037  1.0858 -1.2179
 1403TIP3   OH225699   0.383   5.237   4.917  0.2731 -0.3914 -0.1208
 1403TIP3    H125700   0.338   5.227   4.833  0.2569  0.8130 -0.2700
 1403TIP3    H225701   0.475   5.251   4.894  0.8067 -2.9255  0.1848
 1404TIP3   OH225702   0.603   1.528  13.671  0.6391  0.1295 -0.2814
 1404TIP3    H125703   0.672   1.497  13.730 -1.1304 -1.0131  1.3092
 1404TIP3    H225704   0.572   1.448  13.628 -1.0722  0.2508  0.6350
 1405TIP3   OH225705   4.611   2.295   6.036  0.5290  0.0919 -0.4106
 1405TIP3    H125706   4.524   2.327   6.013  0.9427  1.0656 -0.6598
 1405TIP3    H225707   4.647   2.263   5.953  0.7803  0.5964 -0.4976
 1406TIP3   OH225708   1.781   6.693   3.685 -0.5900  0.1439  0.0191
 1406TIP3    H125709   1.739   6.618   3.643  1.6710 -1.6426  0.7274
 1406TIP3    H225710   1.796   6.664   3.776  0.9987  1.1360  0.1068
 1407TIP3   OH225711   6.572   6.389  11.145  0.2492  0.0885  0.0114
 1407TIP3    H125712   6.619   6.356  11.068  0.5167  0.4862 -0.0050
 1407TIP3    H225713   6.615   6.347  11.219 -0.5979 -0.9900 -0.0966
 1408TIP3   OH225714   4.526   3.964   0.415  0.3765 -0.2741  0.6563
 1408TIP3    H125715   4.497   3.916   0.492  0.1961 -2.6592 -0.8244
 1408TIP3    H225716   4.567   3.899   0.359  2.5761  1.7793 -0.3218
 1409TIP3   OH225717   5.269   0.998  14.681  0.0055 -0.2478  0.4196
 1409TIP3    H125718   5.338   0.936  14.705  0.5147  0.4884  0.8932
 1409TIP3    H225719   5.269   1.062  14.751  0.5661  1.1828 -0.8373
 1410TIP3   OH225720   6.293   1.435  11.753 -0.1288  0.2796  0.3628
 1410TIP3    H125721   6.263   1.374  11.686 -2.1673  0.4084  1.0756
 1410TIP3    H225722   6.263   1.397  11.835 -0.2582  1.5517  0.9328
 1411TIP3   OH225723   3.980   5.868   1.502  0.1122 -0.3464 -0.0570
 1411TIP3    H125724   3.969   5.959   1.527  0.8965  0.0330 -1.0583
 1411TIP3    H225725   4.073   5.860   1.480 -0.1084 -1.1982 -0.7236
 1412TIP3   OH225726   3.570   4.097   2.821 -0.2304 -0.2253 -0.1443
 1412TIP3    H125727   3.637   4.028   2.819 -1.0836 -1.0872  0.0164
 1412TIP3    H225728   3.488   4.049   2.832 -0.6253  0.9740  3.0157
 1413TIP3   OH225729   5.986   3.445  16.726 -0.3461  0.0881 -0.4889
 1413TIP3    H125730   5.979   3.373  16.790 -0.3406  1.4294  1.0975
 1413TIP3    H225731   6.058   3.419  16.669  0.8541 -0.3827  1.1419
 1414TIP3   OH225732   5.300   4.116  15.654  0.0834 -0.6170  0.3465
 1414TIP3    H125733   5.320   4.200  15.696  1.1128  1.1536 -3.2786
 1414TIP3    H225734   5.223   4.135  15.600  0.1428 -2.1348 -0.3114
 1415TIP3   OH225735   0.767   6.748  16.368 -0.4217  0.1741  0.1515
 1415TIP3    H125736   0.678   6.714  16.378 -0.8691  0.9682 -0.8163
 1415TIP3    H225737   0.824   6.673  16.382 -1.1204  0.0769  2.8735
 1416TIP3   OH225738   6.081   4.544  11.421  0.1679 -0.0118  0.2726
 1416TIP3    H125739   6.063   4.461  11.377 -0.6404 -2.2444  4.2910
 1416TIP3    H225740   6.175   4.557  11.409  0.7728 -2.7430  1.1951
 1417TIP3   OH225741   1.743   6.740   4.988 -0.1536 -0.6125  0.2743
 1417TIP3    H125742   1.766   6.753   4.896 -2.3930 -4.6221 -1.1090
 1417TIP3    H225743   1.657   6.781   4.998  0.4284  0.5015  0.8553
 1418TIP3   OH225744   4.706   1.617  15.275  0.1418  0.3739  0.1886
 1418TIP3    H125745   4.778   1.555  15.284 -0.6242 -0.4911  0.4946
 1418TIP3    H225746   4.666   1.595  15.190 -0.5187  0.0154  0.5849
 1419TIP3   OH225747   0.104   1.576  11.728  0.3862 -0.0085  0.2107
 1419TIP3    H125748   0.107   1.661  11.685  0.4981 -0.6146 -1.0298
 1419TIP3    H225749   0.015   1.544  11.714  0.7808 -0.7533 -0.6919
 1420TIP3   OH225750   0.467   4.275   5.723  0.1977  0.1575 -0.5102
 1420TIP3    H125751   0.386   4.226   5.737 -1.2312  1.9109 -2.0218
 1420TIP3    H225752   0.473   4.335   5.797  0.3706 -0.2729 -0.1720
 1421TIP3   OH225753   4.907   0.481   3.360 -0.0209 -0.0463  0.0981
 1421TIP3    H125754   4.956   0.467   3.441  0.1924  2.1274  0.4192
 1421TIP3    H225755   4.835   0.418   3.364  0.6371 -0.7441  1.4310
 1422TIP3   OH225756   1.484   4.925   1.757 -0.1313  0.0571  0.1021
 1422TIP3    H125757   1.564   4.952   1.711  0.4678  0.9714  1.5618
 1422TIP3    H225758   1.420   4.992   1.734  0.1946  0.5681  0.6326
 1423TIP3   OH225759   3.763   1.807  15.239  0.5216 -0.5238  0.1784
 1423TIP3    H125760   3.831   1.852  15.188  0.3067 -0.2608  0.1199
 1423TIP3    H225761   3.759   1.856  15.321 -0.5554  0.3217 -0.3584
 1424TIP3   OH225762   1.455   2.889   2.039 -0.0745  0.0039  0.3833
 1424TIP3    H125763   1.499   2.941   2.107  1.7621 -1.5810  0.4483
 1424TIP3    H225764   1.363   2.918   2.045  0.6815  2.5932  0.9881
 1425TIP3   OH225765   5.874   4.913  15.024 -0.4277  0.2512 -0.0611
 1425TIP3    H125766   5.862   4.855  14.949 -0.9506 -0.0980  0.2841
 1425TIP3    H225767   5.790   4.912  15.069  0.9355 -2.8814  2.8564
 1426TIP3   OH225768   4.346   0.037  14.830 -0.0309 -0.3086  0.5604
 1426TIP3    H125769   4.314  -0.050  14.809  1.6117 -0.9197  0.4959
 1426TIP3    H225770   4.319   0.051  14.921  2.2602 -2.1538  1.6016
 1427TIP3   OH225771   6.132   2.995  14.224 -0.9750 -0.6693  0.2534
 1427TIP3    H125772   6.151   2.993  14.131 -1.0765  0.6135  0.1882
 1427TIP3    H225773   6.042   2.963  14.232 -0.8612 -1.0758 -0.0362
 1428TIP3   OH225774   6.009   4.134   1.629  0.2929  0.0187  0.1808
 1428TIP3    H125775   6.011   4.101   1.539 -2.3036  0.7121 -0.2127
 1428TIP3    H225776   6.015   4.056   1.683  1.3950 -0.4497 -0.5958
 1429TIP3   OH225777   5.059   0.512   1.640 -0.1993 -0.0536  0.3903
 1429TIP3    H125778   5.009   0.565   1.702 -0.9666  0.2105 -0.4237
 1429TIP3    H225779   5.147   0.507   1.677 -0.2724  1.2792  0.8008
 1430TIP3   OH225780   2.757   6.057   4.639 -0.1204 -0.1700  0.7425
 1430TIP3    H125781   2.824   6.036   4.704 -0.2963 -1.4963  0.5412
 1430TIP3    H225782   2.674   6.031   4.680 -0.9109  3.7307  1.9845
 1431TIP3   OH225783   5.829   6.244   3.949  0.2668  0.1349  0.1601
 1431TIP3    H125784   5.812   6.162   3.902 -0.6250  0.5363 -0.2529
 1431TIP3    H225785   5.810   6.312   3.885  0.0952  0.6759  0.7802
 1432TIP3   OH225786   3.060   5.589   2.951  0.2668  0.3676  0.5496
 1432TIP3    H125787   3.149   5.565   2.975 -0.3534 -0.9972  1.6541
 1432TIP3    H225788   3.021   5.624   3.032 -1.0015 -1.6435  0.8852
 1433TIP3   OH225789   2.534   0.989  16.882  0.4323 -0.1546 -0.4876
 1433TIP3    H125790   2.584   0.950  16.809  0.0210 -2.5207  0.3948
 1433TIP3    H225791   2.561   0.938  16.958 -2.6554 -0.9995  0.1662
 1434TIP3   OH225792   1.961   5.989   5.173 -0.4084 -0.7161  0.2463
 1434TIP3    H125793   1.936   5.985   5.265 -1.8626 -1.1584 -0.1430
 1434TIP3    H225794   2.010   5.907   5.158  0.4782 -0.3007  0.7768
 1435TIP3   OH225795   5.385   6.419  14.089 -0.1827 -0.7927 -0.8241
 1435TIP3    H125796   5.457   6.377  14.042  1.4147 -1.8247  2.2862
 1435TIP3    H225797   5.426   6.493  14.133 -1.1485 -1.0515  0.5622
 1436TIP3   OH225798   5.861   4.824   4.319  0.8168 -0.1874 -0.0967
 1436TIP3    H125799   5.907   4.908   4.318  2.4425 -0.9083  3.1726
 1436TIP3    H225800   5.833   4.813   4.409 -0.7021 -2.5099 -0.7736
 1437TIP3   OH225801   2.089   1.622   2.066  0.3296  0.4428 -0.0590
 1437TIP3    H125802   2.002   1.586   2.049  0.7144  0.1949 -1.6316
 1437TIP3    H225803   2.080   1.715   2.048  1.2852 -0.1050 -4.4600
 1438TIP3   OH225804   0.493   5.184  14.569 -0.4199  0.1131  0.2749
 1438TIP3    H125805   0.420   5.172  14.630 -0.6865  1.8266  0.3365
 1438TIP3    H225806   0.557   5.237  14.618  0.8695 -1.3172  0.2093
 1439TIP3   OH225807   3.375   1.451   4.645 -0.1402 -0.0905  0.0367
 1439TIP3    H125808   3.339   1.434   4.732 -0.1250 -1.3709 -0.1906
 1439TIP3    H225809   3.467   1.429   4.652  0.5794  2.6709  0.4673
 1440TIP3   OH225810   5.605   6.163  14.114 -0.5588 -0.0189 -0.6952
 1440TIP3    H125811   5.609   6.242  14.168 -1.7033 -0.4139  0.0192
 1440TIP3    H225812   5.641   6.189  14.030  0.1435  0.9503 -0.1166
 1441TIP3   OH225813   6.640   6.321   3.782 -0.3338 -0.8532  0.3927
 1441TIP3    H125814   6.675   6.248   3.834  0.1613 -0.6195  0.3959
 1441TIP3    H225815   6.545   6.311   3.787 -0.2864 -0.9956  1.1140
 1442TIP3   OH225816   1.863   6.292   6.246 -0.1936  0.4385 -0.1885
 1442TIP3    H125817   1.826   6.379   6.261 -0.4189  0.1615  0.9402
 1442TIP3    H225818   1.813   6.256   6.173  0.5864  1.6389 -1.3770
 1443TIP3   OH225819   2.686   0.478  15.129 -0.1957  0.2493 -0.6406
 1443TIP3    H125820   2.643   0.418  15.068 -2.5743  2.0153 -0.8732
 1443TIP3    H225821   2.623   0.549  15.140  2.3479  2.5902 -0.1892
 1444TIP3   OH225822   2.342   0.785  14.796 -0.3904 -0.3043  0.1388
 1444TIP3    H125823   2.304   0.698  14.807 -0.3118 -0.4245 -0.4917
 1444TIP3    H225824   2.339   0.801  14.702 -0.8942  0.5975  0.2945
 1445TIP3   OH225825   1.456   5.387  16.282  0.5826  0.1265 -0.2598
 1445TIP3    H125826   1.538   5.402  16.328  0.3519 -0.6839  0.4403
 1445TIP3    H225827   1.450   5.460  16.219  0.7090  1.4940  1.2570
 1446TIP3   OH225828   5.018   4.740   2.427  0.2766  0.6661  0.3408
 1446TIP3    H125829   5.038   4.759   2.519  0.6845  0.3623  0.3141
 1446TIP3    H225830   4.928   4.708   2.429  0.3308  0.5273  0.6516
 1447TIP3   OH225831   5.752   4.569   2.017 -0.5997  1.0816 -0.1008
 1447TIP3    H125832   5.698   4.596   2.091 -0.2996  1.5655 -0.0509
 1447TIP3    H225833   5.810   4.644   2.002  1.6983 -0.2911  1.3582
 1448TIP3   OH225834   2.557   3.408  11.021 -0.0959 -0.0894  0.4577
 1448TIP3    H125835   2.573   3.477  11.085  0.4518  2.2810 -2.0168
 1448TIP3    H225836   2.549   3.454  10.937  0.7856 -3.0653 -1.4575
 1449TIP3   OH225837   4.499   5.546  16.335  0.1443  0.0821 -0.1090
 1449TIP3    H125838   4.497   5.510  16.246 -0.3707  0.5622 -0.3001
 1449TIP3    H225839   4.568   5.498  16.379  0.1982 -0.3737 -0.6847
 1450TIP3   OH225840   6.669   5.436   4.820  0.0981 -0.0163  0.1566
 1450TIP3    H125841   6.691   5.529   4.830  0.7152  0.0500 -1.5660
 1450TIP3    H225842   6.676   5.420   4.726  0.8884 -2.0220  0.5159
 1451TIP3   OH225843   2.733   1.486   2.205  0.0324 -0.6620  0.1695
 1451TIP3    H125844   2.713   1.580   2.208  0.0048 -0.6753  0.4286
 1451TIP3    H225845   2.787   1.471   2.282  0.8426 -0.6802 -0.3975
 1452TIP3   OH225846   1.647   1.216   0.358 -0.5243  0.3728 -0.2079
 1452TIP3    H125847   1.723   1.180   0.404 -0.6516  0.9880  0.4951
 1452TIP3    H225848   1.630   1.153   0.287 -0.1665 -0.4539  0.4216
 1453TIP3   OH225849   6.361   2.877   2.692  0.1532  0.4502 -0.5023
 1453TIP3    H125850   6.331   2.908   2.778 -1.9438  2.8153 -1.9616
 1453TIP3    H225851   6.294   2.814   2.665  1.6460 -1.5427  0.1660
 1454TIP3   OH225852   4.120   1.322  15.624  0.5260  0.1388  0.0863
 1454TIP3    H125853   4.179   1.392  15.595  1.2261 -0.4613  0.0282
 1454TIP3    H225854   4.122   1.258  15.553  2.7401 -1.6481  1.6154
 1455TIP3   OH225855   3.036   1.996   0.987 -0.5599 -0.3816 -0.0206
 1455TIP3    H125856   3.045   2.079   0.940 -3.1762 -0.1033 -0.1398
 1455TIP3    H225857   3.072   2.014   1.074  2.6782 -0.3993 -1.2002
 1456TIP3   OH225858   2.609   4.876   2.548  0.4096  0.6552 -0.0534
 1456TIP3    H125859   2.572   4.821   2.616 -0.1654 -0.6761 -1.3983
 1456TIP3    H225860   2.643   4.815   2.482  0.8241  1.8888 -1.0362
 1457TIP3   OH225861   5.761   1.634   1.097  0.1540 -0.3204 -0.1017
 1457TIP3    H125862   5.822   1.701   1.066  0.0525 -0.2364 -0.1222
 1457TIP3    H225863   5.699   1.683   1.152 -0.2798 -0.2986 -0.6079
 1458TIP3   OH225864   0.683   3.309   3.673  0.4668  0.2438  0.2891
 1458TIP3    H125865   0.690   3.225   3.629  0.4724 -0.0531  0.8519
 1458TIP3    H225866   0.768   3.322   3.714  0.1102  0.0139  1.1069
 1459TIP3   OH225867   0.980   5.026  13.950 -0.2253  0.5928 -0.2063
 1459TIP3    H125868   0.995   5.064  13.864 -3.2381  2.2349 -0.1429
 1459TIP3    H225869   1.003   5.095  14.011 -1.9151  0.9373  0.0862
 1460TIP3   OH225870   4.919   2.007   4.013  0.5950 -0.3086 -0.5732
 1460TIP3    H125871   4.899   1.914   4.014 -3.2684  0.3568 -1.4440
 1460TIP3    H225872   4.934   2.030   4.104 -1.0957 -1.3159 -0.0097
 1461TIP3   OH225873   4.734   6.005   4.903  0.5750 -0.5351 -0.1459
 1461TIP3    H125874   4.752   5.919   4.941  1.6487 -0.6637 -0.8953
 1461TIP3    H225875   4.647   5.996   4.865  0.4360 -1.1100  0.2930
 1462TIP3   OH225876   3.428   4.772  14.349 -0.3288 -0.9211  0.7135
 1462TIP3    H125877   3.381   4.702  14.303 -1.2257  0.3950 -0.4693
 1462TIP3    H225878   3.449   4.735  14.435 -1.0966 -2.5056  0.2466
 1463TIP3   OH225879   5.509   3.387  14.056 -0.3334  0.8843  0.5231
 1463TIP3    H125880   5.577   3.320  14.046 -0.8406  0.5669 -1.0836
 1463TIP3    H225881   5.552   3.457  14.107  1.7699  1.4172 -1.7674
 1464TIP3   OH225882   0.641   5.258   2.353  0.6804 -1.0463  0.1741
 1464TIP3    H125883   0.607   5.185   2.301  0.7784 -0.5652 -0.5854
 1464TIP3    H225884   0.582   5.263   2.429  0.8557 -2.0940  0.3933
 1465TIP3   OH225885   2.904   0.107   5.784  0.1837  0.0720  0.1819
 1465TIP3    H125886   2.965   0.055   5.837  0.3594  0.5364  0.4403
 1465TIP3    H225887   2.946   0.193   5.776 -0.4101  0.3791  0.3234
 1466TIP3   OH225888   1.630   3.153   0.194  0.4226 -0.0223 -0.0154
 1466TIP3    H125889   1.620   3.111   0.279 -0.2285  1.6446  0.7825
 1466TIP3    H225890   1.665   3.085   0.137 -1.9415 -2.0985  0.8082
 1467TIP3   OH225891   0.747   0.152   5.014 -0.5242 -0.4020 -0.2201
 1467TIP3    H125892   0.725   0.106   5.095  2.6294 -1.4076  0.2069
 1467TIP3    H225893   0.837   0.126   4.996 -0.0594  2.2813 -2.3697
 1468TIP3   OH225894   6.570   1.992  16.319 -0.0698  0.2043  0.2234
 1468TIP3    H125895   6.635   2.020  16.383  0.0854 -1.3537  0.8021
 1468TIP3    H225896   6.593   2.038  16.239  1.1152  0.4754  0.6990
 1469TIP3   OH225897   3.363   6.560  13.175 -0.1443  0.2431  0.4922
 1469TIP3    H125898   3.359   6.469  13.144 -0.9145  0.7827 -1.0412
 1469TIP3    H225899   3.287   6.569  13.232 -0.4819  0.1303  0.0638
 1470TIP3   OH225900   5.186   3.330   2.307  0.1909 -0.4856 -0.2398
 1470TIP3    H125901   5.263   3.305   2.255  1.1987 -1.9279  1.8156
 1470TIP3    H225902   5.217   3.402   2.363 -0.4711  0.0809 -0.5840
 1471TIP3   OH225903   0.559   6.614  12.451 -0.2865 -0.0145  0.2056
 1471TIP3    H125904   0.604   6.619  12.536 -0.0176  0.4401  0.0392
 1471TIP3    H225905   0.587   6.692  12.405 -1.6326  0.5469  0.2829
 1472TIP3   OH225906   5.310   4.145   0.315 -0.1847 -0.3772  0.1922
 1472TIP3    H125907   5.396   4.186   0.330 -0.3135 -0.5169  1.4290
 1472TIP3    H225908   5.253   4.184   0.381 -0.3101 -2.5127  1.4469
 1473TIP3   OH225909   3.900   4.152   0.471  0.0055  0.1484 -0.3648
 1473TIP3    H125910   3.895   4.244   0.496  0.6145 -0.0370  0.4559
 1473TIP3    H225911   3.993   4.135   0.460 -0.0914 -0.4224 -0.3246
 1474TIP3   OH225912   6.106   2.015  13.350  0.2116  0.6522 -0.8042
 1474TIP3    H125913   6.172   2.084  13.347 -0.5046  1.7139  3.0929
 1474TIP3    H225914   6.148   1.942  13.396 -1.4022  1.7567  2.7866
 1475TIP3   OH225915   3.771   3.548  11.676 -0.2146  0.6517  0.5414
 1475TIP3    H125916   3.838   3.527  11.611 -2.5559 -1.4346 -1.4574
 1475TIP3    H225917   3.795   3.635  11.709  2.7678  0.4766 -0.8581
 1476TIP3   OH225918   3.078   5.963  15.048 -0.1959 -0.4245 -0.1495
 1476TIP3    H125919   3.099   5.873  15.026 -1.0144 -0.1067 -2.4901
 1476TIP3    H225920   3.085   6.011  14.965  2.3247  2.1401  1.3168
 1477TIP3   OH225921   4.056   4.275  13.686 -0.3900 -0.0216 -0.0617
 1477TIP3    H125922   4.009   4.203  13.645  0.4263 -0.8850  0.4882
 1477TIP3    H225923   4.115   4.233  13.749  0.3186  1.0972  0.0540
 1478TIP3   OH225924   0.387   0.477   4.744  0.0920 -0.0402 -0.5714
 1478TIP3    H125925   0.474   0.440   4.761  0.0437  0.8083  2.0058
 1478TIP3    H225926   0.326   0.406   4.766  0.0995 -0.0696 -0.6458
 1479TIP3   OH225927   0.955   5.569  14.729 -0.3274  0.4887 -0.5237
 1479TIP3    H125928   1.033   5.534  14.687 -0.8777 -2.9725  1.0270
 1479TIP3    H225929   0.974   5.567  14.823 -1.4211  1.9892 -0.2236
 1480TIP3   OH225930   1.634   6.402  11.413 -0.1532  0.6850 -0.2745
 1480TIP3    H125931   1.725   6.399  11.385 -0.2176 -0.8837 -0.3955
 1480TIP3    H225932   1.634   6.459  11.490  0.6113  2.1552 -1.3189
 1481TIP3   OH225933   0.592   4.647  11.403  0.6463  0.8805 -0.2663
 1481TIP3    H125934   0.500   4.662  11.381  0.6856 -0.1473 -1.2454
 1481TIP3    H225935   0.639   4.665  11.322  0.9275 -1.8179 -0.7950
 1482TIP3   OH225936   1.183   2.674   4.647  0.7927 -0.7411 -0.1703
 1482TIP3    H125937   1.271   2.641   4.666  0.8977  1.2746  3.7790
 1482TIP3    H225938   1.125   2.617   4.697  0.4740  1.2626  1.8966
 1483TIP3   OH225939   0.839   1.778   3.101  0.9335 -0.1919 -0.1030
 1483TIP3    H125940   0.753   1.738   3.112  0.9231 -0.2907 -0.5194
 1483TIP3    H225941   0.889   1.748   3.177  0.3413  0.5839  0.6185
 1484TIP3   OH225942   3.422   6.387  10.937  0.0359  0.1767 -0.6469
 1484TIP3    H125943   3.408   6.477  10.965  1.0722 -0.4290  2.1358
 1484TIP3    H225944   3.462   6.394  10.851 -0.7693  2.3149 -0.8962
 1485TIP3   OH225945   4.851   4.181   0.127  0.0503 -0.7209 -0.3222
 1485TIP3    H125946   4.842   4.100   0.076 -0.0950 -0.7841 -0.1990
 1485TIP3    H225947   4.945   4.191   0.142  0.1611 -0.3121 -1.2278
 1486TIP3   OH225948   2.847   0.980   4.545  0.1458 -0.3402  0.0166
 1486TIP3    H125949   2.793   1.036   4.600 -0.1651 -0.6903  0.0760
 1486TIP3    H225950   2.890   0.920   4.606  1.4812  0.6347  0.0866
 1487TIP3   OH225951   0.146   3.664  16.202 -0.5326 -0.6787 -0.3895
 1487TIP3    H125952   0.136   3.578  16.244  1.3417 -0.0885  1.4333
 1487TIP3    H225953   0.203   3.647  16.127 -1.0452 -1.1908 -0.6714
 1488TIP3   OH225954   3.708   5.993   0.579 -0.0902 -0.5719 -0.1187
 1488TIP3    H125955   3.670   5.966   0.496 -0.3321 -1.1529  0.1709
 1488TIP3    H225956   3.795   6.024   0.557  0.7530 -2.8993 -0.3314
 1489TIP3   OH225957   5.969   1.153  15.894  0.2429 -0.1214 -0.0937
 1489TIP3    H125958   5.975   1.193  15.807  0.2298  0.8648  0.3414
 1489TIP3    H225959   6.054   1.111  15.907  0.6681  0.6993 -0.1376
 1490TIP3   OH225960   0.351   4.592  14.338 -0.3310  0.2518 -0.2317
 1490TIP3    H125961   0.331   4.684  14.355  0.5149  0.3988  0.0616
 1490TIP3    H225962   0.275   4.558  14.290 -1.2509  0.7522  0.8240
 1491TIP3   OH225963   0.960   6.821   1.920  0.0494 -0.0501 -0.1769
 1491TIP3    H125964   0.968   6.807   2.015  1.2338  2.8232  0.2421
 1491TIP3    H225965   0.867   6.841   1.907 -0.3556 -1.5765  0.1478
 1492TIP3   OH225966   3.484   4.796  15.199 -0.3099 -0.0223  0.3780
 1492TIP3    H125967   3.419   4.857  15.165 -1.0920  0.0696  1.9246
 1492TIP3    H225968   3.501   4.827  15.288  0.1629 -1.3526  0.7796
 1493TIP3   OH225969   1.002   1.545  16.154  0.3743 -0.9118  0.2115
 1493TIP3    H125970   0.944   1.608  16.110 -1.4685 -1.7996  1.2072
 1493TIP3    H225971   1.015   1.475  16.090  1.7329  0.0593 -0.5996
 1494TIP3   OH225972   5.650   2.320  11.788 -0.3389  0.2613  0.2520
 1494TIP3    H125973   5.663   2.285  11.700 -0.6783 -0.2792  0.4128
 1494TIP3    H225974   5.555   2.330  11.797 -0.6849 -3.0166  1.7721
 1495TIP3   OH225975   4.524   3.445   4.281 -0.9653  0.2171 -0.3804
 1495TIP3    H125976   4.607   3.397   4.285  0.0711  1.9153 -0.2762
 1495TIP3    H225977   4.495   3.436   4.190  0.5429  1.4613 -1.0311
 1496TIP3   OH225978   6.116   5.654   2.476  0.1146  0.3600 -0.4828
 1496TIP3    H125979   6.029   5.694   2.481 -0.3447 -0.7243  0.8760
 1496TIP3    H225980   6.101   5.569   2.433  0.5851  0.3723 -0.6804
 1497TIP3   OH225981   0.782   4.616   0.417 -0.3125 -0.0596  0.2229
 1497TIP3    H125982   0.816   4.618   0.327  1.0094 -1.2141  0.6728
 1497TIP3    H225983   0.820   4.537   0.456  0.3514  1.1916  2.2671
 1498TIP3   OH225984   3.482   3.056   2.966  0.3912  0.0784 -0.0256
 1498TIP3    H125985   3.463   3.009   3.048  1.6766 -0.1040  0.1969
 1498TIP3    H225986   3.574   3.037   2.949 -0.2289 -1.2536 -2.4188
 1499TIP3   OH225987   6.374   1.225   3.508  0.1038 -0.3117  0.3512
 1499TIP3    H125988   6.336   1.143   3.477  0.6201 -0.4838  0.1660
 1499TIP3    H225989   6.341   1.291   3.447 -0.2560 -0.3936  0.4577
 1500TIP3   OH225990   4.288   3.897   3.962 -0.0325  0.1881  0.6886
 1500TIP3    H125991   4.360   3.912   3.902 -1.2857 -0.2844 -1.0305
 1500TIP3    H225992   4.221   3.960   3.936 -1.6821 -1.8567 -0.3455
 1501TIP3   OH225993   1.845   0.301   2.310 -0.1953  0.3843 -0.1359
 1501TIP3    H125994   1.796   0.347   2.242 -2.0338 -1.2744 -0.0327
 1501TIP3    H225995   1.864   0.215   2.271 -0.5116 -0.2689  1.0896
 1502TIP3   OH225996   0.776   3.089  13.551 -0.0964 -0.0214 -0.2909
 1502TIP3    H125997   0.783   3.067  13.644  1.8302  0.4153 -0.2961
 1502TIP3    H225998   0.700   3.039  13.521 -1.6927  0.9656  1.8131
 1503TIP3   OH225999   3.024   3.331   5.732 -0.0343 -0.0547  0.5563
 1503TIP3    H126000   2.945   3.365   5.774 -1.0362 -0.1797 -1.1395
 1503TIP3    H226001   3.045   3.252   5.782 -0.7807  0.1589  1.2342
 1504TIP3   OH226002   4.916   5.484  17.093 -0.5201  0.4732  0.1327
 1504TIP3    H126003   4.989   5.478  17.155 -0.1290  1.4507 -0.2161
 1504TIP3    H226004   4.844   5.440  17.137  0.6074 -1.6696 -0.0415
 1505TIP3   OH226005   3.549   6.423   1.910  0.2533 -0.2101  0.1233
 1505TIP3    H126006   3.588   6.336   1.911 -1.0487 -0.8118 -0.1351
 1505TIP3    H226007   3.467   6.414   1.958 -0.2602  0.6829 -0.5502
 1506TIP3   OH226008   4.261   5.569   0.368 -0.4734  0.3998  0.9782
 1506TIP3    H126009   4.223   5.607   0.289 -1.6537  0.3994  1.5216
 1506TIP3    H226010   4.336   5.625   0.387  0.2484 -0.0165 -0.5102
 1507TIP3   OH226011   1.090   1.556  13.231 -0.1500  0.0357  0.1972
 1507TIP3    H126012   1.104   1.489  13.298  0.0302  0.2994  0.4279
 1507TIP3    H226013   1.174   1.601  13.223 -0.6322  1.1562  1.0694
 1508TIP3   OH226014   6.759   6.810  15.164 -0.4616 -0.3475 -0.1483
 1508TIP3    H126015   6.725   6.724  15.189  0.7717 -1.4656 -2.0256
 1508TIP3    H226016   6.854   6.798  15.165 -0.2757  0.9924 -0.4788
 1509TIP3   OH226017   2.177   3.459   4.284  0.1232  0.0991 -0.4454
 1509TIP3    H126018   2.093   3.491   4.249  0.2516 -0.5527 -1.3802
 1509TIP3    H226019   2.185   3.370   4.250  1.3682  0.2816 -0.6665
 1510TIP3   OH226020   2.470   0.672  15.157 -0.1924  0.8069 -0.6682
 1510TIP3    H126021   2.404   0.632  15.213  0.4886 -1.0287 -1.1258
 1510TIP3    H226022   2.506   0.743  15.210 -0.0686 -0.4143  0.9594
 1511TIP3   OH226023   5.123   6.200   5.244  0.4936  0.0251 -0.5139
 1511TIP3    H126024   5.102   6.264   5.176  0.4062  1.9425  1.2391
 1511TIP3    H226025   5.040   6.156   5.262  0.2353  0.4166 -0.7354
 1512TIP3   OH226026   0.674   1.395  12.874  0.1449 -0.3417 -0.2966
 1512TIP3    H126027   0.767   1.399  12.851  0.6054  0.1806  1.4590
 1512TIP3    H226028   0.674   1.368  12.966 -1.3154  2.3570  0.5910
 1513TIP3   OH226029   1.477   2.958   5.833  0.4335  0.0915 -0.8921
 1513TIP3    H126030   1.511   3.036   5.876 -0.3068  0.2806 -0.6483
 1513TIP3    H226031   1.507   2.885   5.888  0.3725  0.2621 -0.6322
 1514TIP3   OH226032   2.241   5.003  14.212 -0.6980 -0.5627  0.2089
 1514TIP3    H126033   2.314   5.054  14.175 -0.3119  1.2997  3.2026
 1514TIP3    H226034   2.186   4.982  14.136 -0.1116  3.1165 -1.4791
 1515TIP3   OH226035   5.371   1.824   2.568 -0.0773  0.3667  0.0027
 1515TIP3    H126036   5.463   1.851   2.576  1.2079 -3.4423  0.4396
 1515TIP3    H226037   5.363   1.794   2.477  0.2695 -2.5509  0.8491
 1516TIP3   OH226038   0.610   6.434   6.444 -0.4696  0.0469 -0.3944
 1516TIP3    H126039   0.685   6.409   6.497  0.2763 -1.2717 -2.0035
 1516TIP3    H226040   0.615   6.529   6.437  1.8613 -0.0996 -1.5714
 1517TIP3   OH226041   3.572   3.853  14.361  0.6254  0.0106  0.5288
 1517TIP3    H126042   3.603   3.939  14.333  0.4972  0.3275  1.3424
 1517TIP3    H226043   3.540   3.812  14.280  1.7133  0.2769 -0.0554
 1518TIP3   OH226044   5.687   3.061  15.689 -0.0955 -0.1621 -0.4352
 1518TIP3    H126045   5.769   3.093  15.651  0.6650  0.4059  1.5482
 1518TIP3    H226046   5.715   3.008  15.763 -1.4441 -3.2472 -1.9797
 1519TIP3   OH226047   3.312   4.004  10.570 -0.3253  0.4867 -0.0693
 1519TIP3    H126048   3.315   4.000  10.475  2.5344 -2.2269 -0.0431
 1519TIP3    H226049   3.269   4.088  10.590 -0.6240  1.3443 -3.6792
 1520TIP3   OH226050   0.737   2.980   4.912 -0.3345  0.7578 -0.3037
 1520TIP3    H126051   0.816   3.034   4.917 -1.8833  3.0985  0.3646
 1520TIP3    H226052   0.670   3.039   4.878 -2.3192 -0.5254  1.1989
 1521TIP3   OH226053   3.317   4.483  16.301  0.8788  0.5747 -0.0139
 1521TIP3    H126054   3.357   4.407  16.259  0.5043  0.7370 -0.6622
 1521TIP3    H226055   3.388   4.547  16.306  0.5484  1.1389 -1.8401
 1522TIP3   OH226056   0.257   6.371  14.174 -0.4685 -0.6732 -0.0245
 1522TIP3    H126057   0.170   6.408  14.189 -0.1044  0.5449 -0.7796
 1522TIP3    H226058   0.292   6.356  14.262 -0.9497  0.0159  0.2928
 1523TIP3   OH226059   2.786   5.582   0.660 -0.4677  0.9435 -0.7289
 1523TIP3    H126060   2.730   5.657   0.680  0.3489  1.6437 -0.9679
 1523TIP3    H226061   2.838   5.611   0.585  1.6887  1.1527  0.7394
 1524TIP3   OH226062   5.169   5.822  12.068  0.0630  0.0320  0.8188
 1524TIP3    H126063   5.152   5.877  11.991  0.4113 -0.6963  0.2138
 1524TIP3    H226064   5.264   5.822  12.077  0.0977 -0.8936  0.5004
 1525TIP3   OH226065   4.440   5.890  11.779  0.1190 -0.2711  0.3083
 1525TIP3    H126066   4.402   5.904  11.866 -0.5019 -0.0129 -0.0024
 1525TIP3    H226067   4.531   5.920  11.788 -0.4441  1.4877  0.3756
 1526TIP3   OH226068   5.045   0.443  16.154  0.0286  0.6164 -0.0027
 1526TIP3    H126069   5.006   0.467  16.239 -1.7066 -0.3706 -0.4788
 1526TIP3    H226070   5.050   0.526  16.106 -1.4338  0.7881  0.1104
 1527TIP3   OH226071   1.952   5.968   3.098 -0.3186 -0.0984  0.3923
 1527TIP3    H126072   1.864   5.999   3.117 -0.5847  0.3164 -1.3212
 1527TIP3    H226073   1.942   5.874   3.080 -0.0042 -0.5805  2.5037
 1528TIP3   OH226074   2.403   1.652   0.464 -0.6384 -0.1455  0.0410
 1528TIP3    H126075   2.342   1.588   0.427  0.2116 -0.3796 -0.9726
 1528TIP3    H226076   2.490   1.615   0.449 -0.2408 -0.2530  2.2992
 1529TIP3   OH226077   2.764   6.235   2.204  0.2433 -0.4424  0.2626
 1529TIP3    H126078   2.849   6.277   2.216 -0.4531  0.9502  0.5845
 1529TIP3    H226079   2.743   6.249   2.112  0.3548 -0.7691  0.1877
 1530TIP3   OH226080   5.360   2.499   2.036 -0.1087  0.3626  0.3473
 1530TIP3    H126081   5.412   2.575   2.010 -0.2107  0.1867 -0.4035
 1530TIP3    H226082   5.282   2.504   1.981 -0.9575  0.6873  1.5287
 1531TIP3   OH226083   3.946   2.241   3.871 -0.3331  0.2584 -0.1252
 1531TIP3    H126084   3.904   2.269   3.789  2.1942  1.1368 -1.2374
 1531TIP3    H226085   3.966   2.148   3.857 -1.4237 -0.0397  0.2206
 1532TIP3   OH226086   5.904   2.839  16.744  0.3169  0.3667 -0.2752
 1532TIP3    H126087   5.860   2.877  16.668  1.2381  1.8159 -0.1269
 1532TIP3    H226088   5.890   2.745  16.736 -0.8055  0.6132 -1.4627
 1533TIP3   OH226089   6.739   1.654   4.506  0.9618  0.1797  0.7942
 1533TIP3    H126090   6.819   1.639   4.457 -1.0982 -1.5625 -2.3076
 1533TIP3    H226091   6.697   1.568   4.512 -2.5149  1.5248 -1.2743
 1534TIP3   OH226092   2.773   5.194  14.974 -0.1542  0.0341  0.1921
 1534TIP3    H126093   2.701   5.220  15.032 -0.1817  2.1184 -0.6919
 1534TIP3    H226094   2.741   5.115  14.930 -0.8711 -0.5034  1.6113
 1535TIP3   OH226095   1.037   6.094  12.686 -0.3913  0.1762 -0.0622
 1535TIP3    H126096   0.976   6.022  12.672 -2.8215  2.0203  0.1599
 1535TIP3    H226097   0.982   6.164  12.723  1.9832  1.8476  0.5324
 1536TIP3   OH226098   3.947   5.045   0.947 -0.3396  0.2231  0.1784
 1536TIP3    H126099   4.020   4.986   0.969  0.0137 -0.3611 -2.2569
 1536TIP3    H226100   3.870   5.002   0.984  0.2122 -0.5990  0.4222
 1537TIP3   OH226101   6.672   1.108   6.456 -0.1646 -0.2366  0.4066
 1537TIP3    H126102   6.741   1.083   6.518  0.2391 -1.6593 -0.5732
 1537TIP3    H226103   6.605   1.041   6.465  0.4473 -1.1713 -1.5251
 1538TIP3   OH226104   0.734   4.185   0.896 -0.2259  0.2394 -0.2416
 1538TIP3    H126105   0.825   4.167   0.870  0.0816  1.6924 -0.2346
 1538TIP3    H226106   0.683   4.171   0.816  0.1225  0.2958 -0.4735
 1539TIP3   OH226107   1.059   3.734  14.397 -0.0461  0.8130  0.0107
 1539TIP3    H126108   0.976   3.778  14.379 -0.6528  1.0864  2.8799
 1539TIP3    H226109   1.122   3.805  14.409 -0.0961  0.7658  0.6297
 1540TIP3   OH226110   3.197   1.082  11.500  0.5967  0.4994  0.3568
 1540TIP3    H126111   3.196   1.043  11.413  0.9031  0.6860  0.2681
 1540TIP3    H226112   3.241   1.016  11.555 -0.1808  0.1000  0.5096
 1541TIP3   OH226113   6.117   1.277   0.510  0.3865  0.1780 -0.1501
 1541TIP3    H126114   6.029   1.297   0.541  0.3599  0.8521 -0.6256
 1541TIP3    H226115   6.135   1.344   0.444  1.2704  0.0742 -0.0328
 1542TIP3   OH226116   0.881   3.428  17.083  0.2206 -0.1690  0.2398
 1542TIP3    H126117   0.863   3.515  17.049 -0.3834 -0.9243 -1.5324
 1542TIP3    H226118   0.823   3.419  17.159 -1.6034  0.1059 -1.0481
 1543TIP3   OH226119   4.388   5.341  17.187 -0.0957  0.2468 -0.4432
 1543TIP3    H126120   4.301   5.362  17.221 -1.6140 -0.5431 -3.5156
 1543TIP3    H226121   4.420   5.272  17.245 -0.4149  2.1625  2.1691
 1544TIP3   OH226122   3.688   1.908   1.230 -0.1841 -0.0696  0.2916
 1544TIP3    H126123   3.664   1.990   1.272  1.0456  0.9825 -0.9666
 1544TIP3    H226124   3.782   1.901   1.244 -0.0812 -0.6555 -0.6190
 1545TIP3   OH226125   6.785   1.918  15.396 -0.0447 -0.0047  0.7195
 1545TIP3    H126126   6.751   1.846  15.450 -2.0791 -0.1520 -0.6523
 1545TIP3    H226127   6.787   1.883  15.307  3.3520  0.1956  0.5554
 1546TIP3   OH226128   0.003   3.762  13.062 -0.1287 -0.4185 -0.2959
 1546TIP3    H126129   0.042   3.841  13.098 -1.0577  0.8553 -1.9534
 1546TIP3    H226130  -0.069   3.741  13.121 -1.4594  1.4786 -1.1512
 1547TIP3   OH226131   1.084   2.656  14.517 -0.3624 -0.2618  0.6095
 1547TIP3    H126132   1.053   2.640  14.428  0.3975  0.5094  0.1994
 1547TIP3    H226133   1.156   2.718  14.507 -0.0602 -0.4119  1.7345
 1548TIP3   OH226134   3.001   3.741   1.036  0.0299 -0.1611  0.0205
 1548TIP3    H126135   2.922   3.688   1.045  0.2937 -0.4155  0.9412
 1548TIP3    H226136   2.975   3.815   0.982 -0.7773 -0.3681  0.1216
 1549TIP3   OH226137   3.625   5.266   5.333  0.5891  0.1039  0.0852
 1549TIP3    H126138   3.653   5.180   5.364 -0.1220  0.3441  1.4870
 1549TIP3    H226139   3.585   5.307   5.410  1.3961  1.9016 -0.4006
 1550TIP3   OH226140   6.334   0.026   1.596 -0.5400  0.4718  0.3149
 1550TIP3    H126141   6.263  -0.036   1.579 -1.3661  1.1952  1.0033
 1550TIP3    H226142   6.360   0.009   1.687 -0.4785  0.8401  0.3680
 1551TIP3   OH226143   5.101   5.940  16.468  0.1764 -0.0856 -0.1973
 1551TIP3    H126144   5.123   5.959  16.376 -0.6794  2.5080  0.0526
 1551TIP3    H226145   5.015   5.897  16.463 -0.2804  0.8225 -0.6285
 1552TIP3   OH226146   6.183   2.758   1.818  0.1581  0.1807  0.2267
 1552TIP3    H126147   6.245   2.831   1.825  1.8492 -1.2159  0.6372
 1552TIP3    H226148   6.221   2.702   1.750 -1.4629 -0.0079 -0.5580
 1553TIP3   OH226149   4.458   6.500   4.935 -0.1074  0.2527  0.2716
 1553TIP3    H126150   4.428   6.411   4.951 -0.5109 -0.1770 -2.4417
 1553TIP3    H226151   4.383   6.544   4.894  0.1808  1.7812  1.2765
 1554TIP3   OH226152   4.815   5.430  15.556  0.2825  0.2304  0.1029
 1554TIP3    H126153   4.775   5.464  15.476 -0.4307  2.2077  1.2334
 1554TIP3    H226154   4.763   5.469  15.627  1.6509 -0.4754  1.5421
 1555TIP3   OH226155   2.921   5.171  13.881  0.0016  0.1449  0.1410
 1555TIP3    H126156   2.960   5.160  13.968 -0.2472  1.3968  0.4229
 1555TIP3    H226157   2.996   5.184  13.823  0.1712 -0.7366  0.1453
 1556TIP3   OH226158   0.359   5.164   1.699 -0.2408 -0.1520  0.4431
 1556TIP3    H126159   0.289   5.206   1.649  0.3577  0.3127 -0.0245
 1556TIP3    H226160   0.437   5.176   1.645  0.6976  1.4674  2.0213
 1557TIP3   OH226161   1.436   2.120   6.380 -0.0016  0.7783  0.6061
 1557TIP3    H126162   1.344   2.147   6.374 -0.3800 -0.5494  0.0205
 1557TIP3    H226163   1.437   2.054   6.449 -0.3337 -2.2303 -2.0264
 1558TIP3   OH226164   0.178   4.818  12.504  0.5531 -0.0473  0.5549
 1558TIP3    H126165   0.236   4.769  12.562  1.1975 -0.7275 -0.6276
 1558TIP3    H226166   0.230   4.831  12.425 -0.9436 -0.7564 -0.5802
 1559TIP3   OH226167   1.288   3.355  12.027  0.0489  0.1456 -0.3563
 1559TIP3    H126168   1.276   3.435  11.977 -2.1440 -0.6123 -1.1276
 1559TIP3    H226169   1.381   3.334  12.016  0.2058  1.4516 -1.8579
 1560TIP3   OH226170   4.093   1.527   0.425  0.4455  0.3455  0.1091
 1560TIP3    H126171   4.096   1.563   0.336  0.2260  0.7813  0.2722
 1560TIP3    H226172   4.182   1.493   0.440  0.4658  0.2141 -0.2966
 1561TIP3   OH226173   5.968   6.192   4.344 -0.3847 -0.5218 -0.6617
 1561TIP3    H126174   5.983   6.105   4.380  0.2168 -0.5266 -0.9075
 1561TIP3    H226175   5.882   6.187   4.303 -0.7285 -0.7491  0.0646
 1562TIP3   OH226176   2.102   1.948   5.698 -0.2440  0.8397  0.0859
 1562TIP3    H126177   2.066   1.912   5.617 -0.4616  2.3046 -0.4899
 1562TIP3    H226178   2.152   1.875   5.736 -1.3522 -0.3242 -0.5961
 1563TIP3   OH226179   3.109   6.798  13.192 -0.2862  0.0568  0.3512
 1563TIP3    H126180   3.073   6.820  13.278 -0.9770  0.6637 -0.0856
 1563TIP3    H226181   3.168   6.870  13.171  0.0486 -0.1990  0.4115
 1564TIP3   OH226182   1.299   1.142   6.403 -0.3781  0.0693 -0.0547
 1564TIP3    H126183   1.362   1.139   6.474 -0.9509  1.4432  0.5477
 1564TIP3    H226184   1.333   1.081   6.338  0.9015 -0.1411  0.7790
 1565TIP3   OH226185   4.464   1.692   3.118 -0.3227  0.8468 -0.3604
 1565TIP3    H126186   4.431   1.731   3.037  1.3654  0.5965 -1.2053
 1565TIP3    H226187   4.488   1.767   3.172  1.2140  1.0543 -1.2596
 1566TIP3   OH226188   1.566   0.583  11.020 -0.3303  0.4064  0.4950
 1566TIP3    H126189   1.533   0.558  10.934 -0.4816  0.7906  0.4380
 1566TIP3    H226190   1.519   0.664  11.041  0.0300  0.5543  0.7455
 1567TIP3   OH226191   3.286   2.276  14.407  0.2005  0.5388  0.0846
 1567TIP3    H126192   3.209   2.301  14.457 -0.0821  1.6104 -0.8471
 1567TIP3    H226193   3.358   2.281  14.468 -0.5118 -0.9658  1.1115
 1568TIP3   OH226194   4.356   5.284   5.707  0.0450 -0.1559  0.0517
 1568TIP3    H126195   4.404   5.259   5.786  2.6790 -0.6591 -1.5688
 1568TIP3    H226196   4.359   5.206   5.651 -0.6189  0.5723 -1.0498
 1569TIP3   OH226197   2.128   1.592   1.503  0.5602 -0.0804  0.1210
 1569TIP3    H126198   2.119   1.554   1.415  3.8676  0.7379 -0.6995
 1569TIP3    H226199   2.212   1.559   1.535  1.2624  2.6583  1.3629
 1570TIP3   OH226200   4.173   2.362   3.195 -0.2732 -0.9986  0.2752
 1570TIP3    H126201   4.170   2.453   3.224 -0.4791 -0.7129 -0.6029
 1570TIP3    H226202   4.135   2.363   3.107 -1.0565 -2.0690  0.5693
 1571TIP3   OH226203   4.950   5.749  14.511 -0.1558 -0.1593  0.0582
 1571TIP3    H126204   4.963   5.723  14.602 -0.1313  2.9512  1.0264
 1571TIP3    H226205   4.983   5.838  14.506  0.5402 -0.4758 -3.2280
 1572TIP3   OH226206   3.373   2.607   3.384  0.2178 -0.2137  0.6435
 1572TIP3    H126207   3.364   2.564   3.469  0.8596 -0.5326  0.5555
 1572TIP3    H226208   3.284   2.608   3.348  0.2148 -1.6287  0.5768
 1573TIP3   OH226209   4.351   1.978   4.358 -0.0503 -0.4143  0.2125
 1573TIP3    H126210   4.329   2.060   4.401 -1.8563 -0.7042 -0.0722
 1573TIP3    H226211   4.446   1.978   4.352 -0.0002  1.4780  0.5600
 1574TIP3   OH226212   3.066   1.917  12.738  0.1764 -0.3805 -0.2614
 1574TIP3    H126213   3.081   1.834  12.694  2.4321 -0.3141  0.2647
 1574TIP3    H226214   3.110   1.982  12.682 -0.1520  0.2308  0.1739
 1575TIP3   OH226215   2.453   4.464   3.561 -0.3936  0.3332 -0.2296
 1575TIP3    H126216   2.444   4.558   3.547 -0.4813  0.3896  0.1745
 1575TIP3    H226217   2.439   4.425   3.475 -2.0671  0.5783 -0.1111
 1576TIP3   OH226218   5.331   4.051   6.553 -0.4713  0.5603 -0.7596
 1576TIP3    H126219   5.330   4.115   6.624 -0.1036 -0.6085  0.3492
 1576TIP3    H226220   5.334   3.966   6.598  0.2539 -0.2002 -2.1756
 1577TIP3   OH226221   4.344   3.718   1.031  0.3522 -0.1353  0.2730
 1577TIP3    H126222   4.411   3.654   1.058  0.8659  0.2732 -0.0137
 1577TIP3    H226223   4.267   3.664   1.011  1.0546 -0.7688 -0.8490
 1578TIP3   OH226224   5.189   3.648  10.536 -0.1991  0.1021  0.4357
 1578TIP3    H126225   5.281   3.620  10.531 -0.6871 -1.6990  0.7290
 1578TIP3    H226226   5.193   3.739  10.564  1.4847 -0.2614  1.5340
 1579TIP3   OH226227   6.305   6.321   2.921 -0.0721 -0.0657  0.0829
 1579TIP3    H126228   6.238   6.389   2.910  1.7351  1.9181  0.6796
 1579TIP3    H226229   6.366   6.337   2.848 -1.1868 -3.1329 -1.6913
 1580TIP3   OH226230   3.357   2.709  11.367 -1.1411  0.0847 -0.1942
 1580TIP3    H126231   3.265   2.702  11.390 -0.7633 -2.1951  0.8911
 1580TIP3    H226232   3.398   2.633  11.408  1.2469  1.0743 -0.5682
 1581TIP3   OH226233   6.401   5.169   1.354 -0.1260 -0.2300 -0.3997
 1581TIP3    H126234   6.347   5.089   1.357 -1.7717  0.8319 -0.6942
 1581TIP3    H226235   6.386   5.205   1.267  0.1209  0.7218 -0.0585
 1582TIP3   OH226236   5.632   4.078   0.839 -0.1744  0.5169  0.4452
 1582TIP3    H126237   5.647   4.064   0.745 -2.5499 -0.3848  0.1434
 1582TIP3    H226238   5.697   4.144   0.864  0.9026  0.3478 -1.6819
 1583TIP3   OH226239   6.419   4.546  16.188  0.0688 -0.4865 -0.7063
 1583TIP3    H126240   6.500   4.579  16.227  0.8980  0.1907 -2.8412
 1583TIP3    H226241   6.369   4.625  16.166 -0.2232 -0.8345 -1.3125
 1584TIP3   OH226242   1.730   0.967  15.458  0.5577  0.4644 -0.2432
 1584TIP3    H126243   1.767   0.909  15.391  0.1766 -1.4672  1.1206
 1584TIP3    H226244   1.635   0.966  15.441  0.5226  0.4712 -0.0476
 1585TIP3   OH226245   6.230   6.005   3.955 -0.2927  0.2607 -0.1465
 1585TIP3    H126246   6.165   6.001   3.884 -0.8273 -1.1905  0.3962
 1585TIP3    H226247   6.184   6.053   4.025  0.1834  1.5614 -0.6841
 1586TIP3   OH226248   1.003   6.413  13.633 -0.0537 -0.2778  0.0347
 1586TIP3    H126249   1.071   6.386  13.572 -0.2116  0.4763 -0.4942
 1586TIP3    H226250   0.922   6.378  13.597 -0.2325  0.6997 -0.5493
 1587TIP3   OH226251   0.909   5.702   1.258  0.0159 -0.3555  0.3873
 1587TIP3    H126252   0.905   5.675   1.167 -1.7204  1.5120 -0.1492
 1587TIP3    H226253   1.002   5.721   1.273  0.2267  0.0298 -1.2224
 1588TIP3   OH226254   0.385   6.146   3.833 -0.2223  0.0324 -0.1980
 1588TIP3    H126255   0.392   6.159   3.738 -4.3424  3.2342 -0.3196
 1588TIP3    H226256   0.435   6.218   3.870 -1.1119  0.6051 -0.0824
 1589TIP3   OH226257   5.691   3.783   1.461  0.3585 -0.4961 -0.0265
 1589TIP3    H126258   5.778   3.799   1.424 -0.7407  0.1695 -2.5150
 1589TIP3    H226259   5.655   3.711   1.409 -1.5985  1.0476 -0.9436
 1590TIP3   OH226260   4.189   2.598   2.193 -0.8579 -0.0357 -0.6652
 1590TIP3    H126261   4.269   2.580   2.143 -1.4872 -2.0163 -1.0540
 1590TIP3    H226262   4.145   2.667   2.143  0.7492  1.3404 -0.2502
 1591TIP3   OH226263   5.231   3.059   0.460  0.2310 -0.1073  0.0815
 1591TIP3    H126264   5.172   3.054   0.535  0.2533  0.2653  0.1237
 1591TIP3    H226265   5.182   3.019   0.388  0.5907 -1.4125  0.5268
 1592TIP3   OH226266   1.886   5.862  16.192  0.3509 -0.0432  0.0349
 1592TIP3    H126267   1.958   5.866  16.129 -1.4028  1.7930 -2.0341
 1592TIP3    H226268   1.889   5.946  16.237  0.7821 -0.8269  1.5115
 1593TIP3   OH226269   3.447   6.380  16.411 -0.2694  0.3290 -0.1794
 1593TIP3    H126270   3.463   6.310  16.348  0.7762 -0.2361  0.6850
 1593TIP3    H226271   3.408   6.450  16.360  0.3110 -0.2202 -1.4043
 1594TIP3   OH226272   2.115   2.581   6.559  0.2725 -0.4558  0.3667
 1594TIP3    H126273   2.124   2.514   6.491  0.4574  0.3658 -0.4454
 1594TIP3    H226274   2.039   2.633   6.530  1.3858  0.9516 -0.1716
 1595TIP3   OH226275   1.704   4.148  17.107  0.3121  0.1457 -0.6834
 1595TIP3    H126276   1.716   4.243  17.107 -0.4082  0.3111  1.9209
 1595TIP3    H226277   1.757   4.117  17.180 -2.3325 -0.9432  0.9261
 1596TIP3   OH226278   0.685   2.933   0.826  0.4763 -0.1711 -0.1081
 1596TIP3    H126279   0.672   2.993   0.899  0.9817  0.8547 -0.8507
 1596TIP3    H226280   0.663   2.984   0.748  0.4574 -1.0878 -0.7203
 1597TIP3   OH226281   6.155   2.671  11.065 -0.3268  0.6182  0.7238
 1597TIP3    H126282   6.061   2.673  11.078 -0.2288  0.8781  1.4588
 1597TIP3    H226283   6.191   2.704  11.147  0.3963  0.7589  0.3598
 1598TIP3   OH226284   5.303   1.201  17.108  0.3049 -0.2618  0.2081
 1598TIP3    H126285   5.373   1.149  17.069  0.9999 -0.5723  1.8386
 1598TIP3    H226286   5.334   1.223  17.195 -1.5683 -0.2828  0.9235
 1599TIP3   OH226287   3.671   0.092  12.092 -0.0186  0.2471 -0.8777
 1599TIP3    H126288   3.721   0.055  12.019 -2.3970 -0.5759 -2.1901
 1599TIP3    H226289   3.668   0.022  12.157  0.5610  0.3288 -0.7556
 1600TIP3   OH226290   1.808   5.400  13.045 -0.0565  0.1016 -0.4166
 1600TIP3    H126291   1.868   5.416  12.972  0.1668  0.5047 -0.1504
 1600TIP3    H226292   1.848   5.445  13.120 -0.5031  0.0617 -0.1465
 1601TIP3   OH226293   2.701   1.369  16.997  0.1660  0.9257 -0.4581
 1601TIP3    H126294   2.615   1.337  16.971  0.1099 -1.8414  2.4002
 1601TIP3    H226295   2.695   1.378  17.092  3.0245  0.4958 -0.1384
 1602TIP3   OH226296   1.495   5.821   1.788  0.0430 -0.0056  0.8437
 1602TIP3    H126297   1.538   5.737   1.770 -0.0197  0.5114 -2.3445
 1602TIP3    H226298   1.546   5.886   1.740 -1.6001  1.3221  0.7610
 1603TIP3   OH226299   1.219   2.996  14.057 -0.8917 -0.0285  0.0723
 1603TIP3    H126300   1.256   2.999  14.145 -0.9503  0.1220  0.0925
 1603TIP3    H226301   1.224   3.086  14.026 -1.0552 -0.0438 -0.0019
 1604TIP3   OH226302   1.704   2.250   6.482 -0.2249  0.0390 -1.0869
 1604TIP3    H126303   1.671   2.261   6.572  0.3666  0.7222 -0.9495
 1604TIP3    H226304   1.684   2.158   6.461  0.2319 -0.3241 -0.0096
 1605TIP3   OH226305   1.474   1.382   2.996  0.3270  0.0320  0.1159
 1605TIP3    H126306   1.383   1.385   3.025  0.9078 -1.1674  2.2587
 1605TIP3    H226307   1.487   1.292   2.966  0.6548  0.3784 -0.8271
 1606TIP3   OH226308   0.680   4.924  13.489 -0.4112 -0.2014 -0.2795
 1606TIP3    H126309   0.622   4.878  13.428 -0.2975  1.4704 -1.7695
 1606TIP3    H226310   0.702   5.005  13.442  0.2231  0.8560  1.7531
 1607TIP3   OH226311   5.197   1.696  13.611 -0.1389 -0.0390  0.0796
 1607TIP3    H126312   5.103   1.701  13.598 -0.4322 -0.6130  1.6682
 1607TIP3    H226313   5.210   1.725  13.702  1.3018  0.7444 -0.3414
 1608TIP3   OH226314   3.296   6.573   4.276  0.0867  0.0525 -0.0072
 1608TIP3    H126315   3.300   6.556   4.182 -3.3504  2.2150 -0.7391
 1608TIP3    H226316   3.249   6.498   4.312 -0.7657  0.3464 -0.4774
 1609TIP3   OH226317   1.556   4.541   4.124  0.1764  0.3828  0.1907
 1609TIP3    H126318   1.631   4.505   4.171 -0.0175 -0.6262 -0.2248
 1609TIP3    H226319   1.594   4.600   4.059  0.7588 -1.0920 -0.8885
 1610TIP3   OH226320   1.364   2.269   5.846 -0.0887  0.0821 -0.0230
 1610TIP3    H126321   1.272   2.294   5.858  0.3770  1.4581  0.9680
 1610TIP3    H226322   1.384   2.213   5.921  0.4363  1.5609  0.9954
 1611TIP3   OH226323   6.027   3.181   3.753  0.1715  0.2679  0.2913
 1611TIP3    H126324   6.025   3.111   3.688 -0.8228  0.9028 -0.4063
 1611TIP3    H226325   5.942   3.225   3.742 -0.0672  0.3198  2.1070
 1612TIP3   OH226326   6.052   3.380  15.111  0.0954  0.0581  0.0989
 1612TIP3    H126327   6.121   3.417  15.056  1.2603  0.1579  1.5570
 1612TIP3    H226328   6.046   3.288  15.084  1.4382 -0.1803  0.5413
 1613TIP3   OH226329   2.408   5.430   4.184 -0.2629 -0.4587 -0.5796
 1613TIP3    H126330   2.491   5.386   4.202 -0.9191 -1.4364  0.1856
 1613TIP3    H226331   2.385   5.471   4.267 -1.3751 -1.6578 -0.2657
 1614TIP3   OH226332   1.568   4.507   2.412 -0.2046  0.3545  0.4414
 1614TIP3    H126333   1.518   4.433   2.447  0.1299  0.4658  1.1869
 1614TIP3    H226334   1.657   4.492   2.443  0.0267  0.6525 -0.0779
 1615TIP3   OH226335   1.843   3.605   5.128  0.0215  0.7831  0.5765
 1615TIP3    H126336   1.832   3.523   5.175  1.6097  0.8384  1.0967
 1615TIP3    H226337   1.932   3.601   5.093 -0.6526  1.3279 -1.3076
 1616TIP3   OH226338   6.088   3.136   2.204  0.4722  0.1099  0.1475
 1616TIP3    H126339   6.090   3.065   2.140  0.5781 -0.6946  1.0233
 1616TIP3    H226340   5.995   3.161   2.209  0.6234  1.0521 -1.2346
 1617TIP3   OH226341   6.004   6.796   3.659  0.4903 -0.3253 -0.1417
 1617TIP3    H126342   6.069   6.835   3.718  1.2076 -1.1025 -0.3929
 1617TIP3    H226343   6.040   6.811   3.572 -1.4904  2.5467 -0.6121
 1618TIP3   OH226344   4.408   5.009   4.515  0.2913  0.0534 -0.1220
 1618TIP3    H126345   4.462   5.087   4.524 -1.0438  0.7745  3.4157
 1618TIP3    H226346   4.454   4.942   4.566 -1.1412  0.1892  1.4521
 1619TIP3   OH226347   2.637   2.237  11.876 -0.0155 -0.6260  0.2093
 1619TIP3    H126348   2.598   2.299  11.813 -1.7914 -0.4069  1.4423
 1619TIP3    H226349   2.712   2.200  11.829  0.2901  1.4260 -1.0760
 1620TIP3   OH226350   5.131   4.488   2.361 -0.7077  0.1002  0.4554
 1620TIP3    H126351   5.128   4.581   2.383  2.3165  0.2746  0.5781
 1620TIP3    H226352   5.156   4.486   2.269 -1.4388 -0.5933  0.2677
 1621TIP3   OH226353   0.077   4.066  12.230  0.2842 -0.0110  0.5784
 1621TIP3    H126354   0.006   4.129  12.214  0.6941  0.7479  1.6254
 1621TIP3    H226355   0.155   4.121  12.238  0.9327 -0.8093 -0.1916
 1622TIP3   OH226356   0.237   3.915  16.592 -0.2318  0.4840  0.1654
 1622TIP3    H126357   0.176   3.845  16.616  1.8969 -1.0918  1.3232
 1622TIP3    H226358   0.240   3.911  16.496 -0.7845 -0.4406  0.1678
 1623TIP3   OH226359   5.191   6.296  15.946 -0.1332 -0.2322 -0.0189
 1623TIP3    H126360   5.275   6.337  15.925 -0.3943  0.4979  0.3387
 1623TIP3    H226361   5.145   6.361  15.999 -1.6581  0.1256 -1.7035
 1624TIP3   OH226362   0.042   3.051  12.874 -0.2289  0.5614  0.2360
 1624TIP3    H126363   0.058   3.084  12.962  1.6242  0.9663 -0.1903
 1624TIP3    H226364   0.087   2.967  12.871  0.3104  0.8601 -0.4982
 1625TIP3   OH226365   0.685   1.414  11.975 -0.1696 -0.3609  0.0591
 1625TIP3    H126366   0.602   1.459  11.989  0.9790  2.2906 -0.8242
 1625TIP3    H226367   0.727   1.463  11.904  2.3958 -1.2107  0.8589
 1626TIP3   OH226368   4.627   4.717   1.129 -0.0933  0.0346 -0.6731
 1626TIP3    H126369   4.637   4.627   1.159  3.0447  0.4320 -0.2022
 1626TIP3    H226370   4.583   4.762   1.201  1.8427 -0.3445  0.8260
 1627TIP3   OH226371   0.316   4.409  14.545 -0.2052 -0.0154 -0.3204
 1627TIP3    H126372   0.359   4.473  14.487  0.7028 -1.1375 -0.9385
 1627TIP3    H226373   0.252   4.365  14.489 -1.1206  0.6127  0.2109
 1628TIP3   OH226374   2.219   2.896   4.531  0.6579 -0.1327 -0.1628
 1628TIP3    H126375   2.256   2.939   4.454 -1.0539 -0.6066 -1.3022
 1628TIP3    H226376   2.196   2.968   4.591  0.7235  0.3278 -0.6890
 1629TIP3   OH226377   0.568   5.586  15.258 -0.5239 -0.1310 -0.3687
 1629TIP3    H126378   0.489   5.633  15.285 -0.4080  0.0073 -0.2751
 1629TIP3    H226379   0.641   5.637  15.292 -0.4080 -0.6302  0.1554
 1630TIP3   OH226380   2.853   4.931  13.191  0.1947 -0.0025  0.2102
 1630TIP3    H126381   2.894   5.015  13.212 -0.0764  0.3518 -0.6291
 1630TIP3    H226382   2.882   4.872  13.261  1.3554  0.4840  0.1680
 1631TIP3   OH226383   6.017   5.577  13.869 -0.0486 -0.2086 -0.2481
 1631TIP3    H126384   6.024   5.483  13.854  0.1707 -0.3703  0.8210
 1631TIP3    H226385   6.107   5.610  13.858 -0.2731  0.0515 -1.5908
 1632TIP3   OH226386   2.663   6.528  11.595 -0.1155 -0.6666 -0.0298
 1632TIP3    H126387   2.639   6.597  11.534  1.4376  0.0789  0.1751
 1632TIP3    H226388   2.637   6.562  11.681 -1.0503 -1.1439 -0.1091
 1633TIP3   OH226389   4.631   5.355  14.214 -0.1396 -0.0832 -0.1310
 1633TIP3    H126390   4.596   5.444  14.219 -1.6922 -0.7192  1.0966
 1633TIP3    H226391   4.659   5.335  14.303  0.7291 -0.6222 -0.5196
 1634TIP3   OH226392   1.351   5.886   4.725  0.4266  0.5157 -0.0568
 1634TIP3    H126393   1.301   5.884   4.806  1.0027 -0.1727  0.2863
 1634TIP3    H226394   1.307   5.824   4.668  1.5912 -1.0547  0.6828
 1635TIP3   OH226395   4.412   2.609  10.861  0.2216 -0.3879 -0.2181
 1635TIP3    H126396   4.448   2.661  10.933 -0.9932 -1.3463  1.1365
 1635TIP3    H226397   4.454   2.523  10.871 -0.0106 -0.5485 -0.6184
 1636TIP3   OH226398   3.207   1.432  16.592  0.0587 -0.2688  0.2972
 1636TIP3    H126399   3.114   1.447  16.604  0.0802 -1.0030  1.4705
 1636TIP3    H226400   3.223   1.345  16.628  0.8386 -1.0566 -1.7584
 1637TIP3   OH226401   0.123   3.363   4.286 -0.5653 -0.6475  0.5558
 1637TIP3    H126402   0.090   3.273   4.278 -2.2018 -0.1523  1.1595
 1637TIP3    H226403   0.051   3.417   4.254  1.2151  0.4179 -1.9298
 1638TIP3   OH226404   4.472   0.108  12.560  0.2874  0.2965  0.1214
 1638TIP3    H126405   4.528   0.035  12.531 -0.2905 -0.4104  0.7539
 1638TIP3    H226406   4.523   0.150  12.630  1.3696  1.5695 -1.3663
 1639TIP3   OH226407   5.645   4.516   3.432  0.0936  0.3631  0.2917
 1639TIP3    H126408   5.632   4.594   3.486 -0.1918  1.1362 -0.8736
 1639TIP3    H226409   5.578   4.454   3.464  0.2468  0.6203  1.1443
 1640TIP3   OH226410   4.428   6.719   2.601 -0.1427 -0.3176 -0.3668
 1640TIP3    H126411   4.410   6.707   2.508  1.0460 -1.1328 -0.5132
 1640TIP3    H226412   4.426   6.813   2.614  1.3497 -0.0680 -1.6065
 1641TIP3   OH226413   1.720   5.068   1.192 -0.2649  0.1953  0.2262
 1641TIP3    H126414   1.674   5.140   1.234 -3.9333 -2.0235  0.5262
 1641TIP3    H226415   1.728   5.094   1.101  0.0519  1.6587  0.6602
 1642TIP3   OH226416   6.483   0.748   0.599  0.3641  0.3434  0.1037
 1642TIP3    H126417   6.424   0.814   0.634 -1.3592 -1.5050  0.9071
 1642TIP3    H226418   6.526   0.790   0.524 -2.7339  1.5182 -1.1599
 1643TIP3   OH226419   0.701   4.326  12.871  0.0670  0.9757  0.1479
 1643TIP3    H126420   0.612   4.323  12.838  1.1346 -0.1954 -3.0259
 1643TIP3    H226421   0.731   4.415  12.853  0.4404  0.5172 -1.7015
 1644TIP3   OH226422   4.256   2.904  12.942  0.2570  0.2810  0.2977
 1644TIP3    H126423   4.246   2.893  13.036 -2.3897  0.0710  0.0709
 1644TIP3    H226424   4.173   2.875  12.905  1.7092 -1.0402 -2.2572
 1645TIP3   OH226425   2.637   1.197  13.013  0.0358  0.1913 -0.2875
 1645TIP3    H126426   2.682   1.113  13.021 -0.2456  0.1664  1.3579
 1645TIP3    H226427   2.557   1.176  12.964  1.4833  0.1451 -2.7656
 1646TIP3   OH226428   6.292   5.064  13.282 -0.4069  0.0144  0.2737
 1646TIP3    H126429   6.275   5.048  13.189 -2.7579 -2.0716  0.9785
 1646TIP3    H226430   6.350   4.992  13.309  0.8829  1.0258  0.3240
 1647TIP3   OH226431   5.079   1.729  14.956 -0.1476  0.4219 -0.7468
 1647TIP3    H126432   5.024   1.759  15.028 -1.1217 -1.0525 -0.8525
 1647TIP3    H226433   5.110   1.810  14.915  0.1049  1.2878  1.0542
 1648TIP3   OH226434   2.188   5.607  16.661  0.2813 -0.4584 -0.5275
 1648TIP3    H126435   2.187   5.618  16.756 -3.8364  1.5853 -0.6042
 1648TIP3    H226436   2.141   5.526  16.645 -2.1400  0.8932 -0.7544
 1649TIP3   OH226437   1.970   2.785  16.247  0.4380 -0.0079 -0.3592
 1649TIP3    H126438   1.979   2.707  16.302  0.8432 -0.3570 -0.9057
 1649TIP3    H226439   2.049   2.785  16.193 -0.2207  0.0051 -1.3534
 1650TIP3   OH226440   2.826   3.305  14.439  0.0139  0.2332  0.8433
 1650TIP3    H126441   2.905   3.356  14.420  0.5230 -0.9463 -0.3074
 1650TIP3    H226442   2.837   3.278  14.530 -0.2266  2.0657  1.4565
 1651TIP3   OH226443   5.854   5.719  14.389  0.8187  0.3168  0.1807
 1651TIP3    H126444   5.776   5.716  14.445  1.9526 -2.9383  1.8459
 1651TIP3    H226445   5.851   5.805  14.348 -3.3474  0.5586  0.5510
 1652TIP3   OH226446   1.609   0.570   0.869  0.0129 -0.1190  0.3542
 1652TIP3    H126447   1.541   0.551   0.804  0.2011 -0.2282  0.1901
 1652TIP3    H226448   1.646   0.653   0.841  0.3573 -0.3546  0.1000
 1653TIP3   OH226449   4.890   6.229   0.238 -0.3423  0.1874  0.4440
 1653TIP3    H126450   4.891   6.141   0.201  2.2121  0.4483 -0.3298
 1653TIP3    H226451   4.921   6.217   0.328 -0.0968  0.2689  0.3718
 1654TIP3   OH226452   5.802   2.398  12.972 -0.1850 -0.2984 -0.1120
 1654TIP3    H126453   5.806   2.408  13.067  3.8596 -1.6069  0.0386
 1654TIP3    H226454   5.782   2.305  12.959  0.8935 -0.4901 -0.4665
 1655TIP3   OH226455   6.196   6.434  16.339 -0.1439  0.1392 -0.0160
 1655TIP3    H126456   6.189   6.342  16.362 -0.2042  0.0491 -0.3814
 1655TIP3    H226457   6.282   6.461  16.372 -1.1846  0.6568  2.4796
 1656TIP3   OH226458   3.584   5.229   5.037  0.9583 -0.0418  0.2978
 1656TIP3    H126459   3.590   5.223   5.132  0.4434 -1.3090  0.2716
 1656TIP3    H226460   3.547   5.316   5.020 -1.0116 -0.6261  1.3642
 1657TIP3   OH226461   3.085   6.484   5.498  0.1103  0.5483  0.1597
 1657TIP3    H126462   3.171   6.527   5.500  0.2864  0.1895  0.4688
 1657TIP3    H226463   3.044   6.508   5.580  0.1394  0.2776  0.2566
 1658TIP3   OH226464   0.084   2.793   5.373 -0.0799 -0.1796 -0.3225
 1658TIP3    H126465   0.083   2.832   5.286 -0.0506 -0.4643 -0.4509
 1658TIP3    H226466  -0.007   2.768   5.390  0.0878 -1.0729 -0.7019
 1659TIP3   OH226467   2.644   2.095  15.878  0.0537 -0.0845  0.3907
 1659TIP3    H126468   2.628   2.023  15.817 -1.5731 -0.5512  1.3241
 1659TIP3    H226469   2.726   2.135  15.846 -0.8778 -0.0863 -2.2766
 1660TIP3   OH226470   6.667   3.492   3.089  0.0432 -1.2590  0.4786
 1660TIP3    H126471   6.669   3.396   3.093 -1.3787 -1.3240  0.2500
 1660TIP3    H226472   6.577   3.512   3.065  0.6175  0.1081 -0.6181
 1661TIP3   OH226473   3.911   3.018   5.467 -0.3213  0.3666  0.1925
 1661TIP3    H126474   3.859   3.083   5.420 -1.4685 -0.3564  0.4211
 1661TIP3    H226475   3.892   3.034   5.559  0.1758  0.3446  0.3021
 1662TIP3   OH226476   3.180   1.610  12.800 -0.0633 -0.4716 -0.4475
 1662TIP3    H126477   3.182   1.540  12.865  4.1739  0.1529  0.4115
 1662TIP3    H226478   3.143   1.685  12.846 -1.9156 -1.3101 -0.4849
 1663TIP3   OH226479   4.412   6.419   5.389 -0.5818 -0.2987  0.2752
 1663TIP3    H126480   4.419   6.324   5.397  1.0975 -0.3333 -1.1097
 1663TIP3    H226481   4.359   6.433   5.310 -0.9112 -0.0594  0.5309
 1664TIP3   OH226482   3.473   5.188   6.847  0.7180 -0.1088 -0.1548
 1664TIP3    H126483   3.385   5.150   6.841  1.0577 -0.8043 -0.9644
 1664TIP3    H226484   3.459   5.281   6.831 -0.1276  0.1575  1.8516
 1665TIP3   OH226485   6.840   6.650  11.577 -0.7847 -0.2594 -0.8286
 1665TIP3    H126486   6.813   6.668  11.667 -1.4965  1.7430 -1.3784
 1665TIP3    H226487   6.921   6.600  11.585  0.2615  1.5834  0.9581
 1666TIP3   OH226488   4.126   3.549  12.991  0.2079 -0.3773 -0.6597
 1666TIP3    H126489   4.131   3.464  12.945 -1.3813  0.1841 -1.9613
 1666TIP3    H226490   4.134   3.614  12.921 -0.8319  0.5286  0.0389
 1667TIP3   OH226491   5.841   3.056   4.773  0.5358 -0.0540  0.6442
 1667TIP3    H126492   5.824   3.073   4.680  1.4431  3.7670  1.0271
 1667TIP3    H226493   5.933   3.031   4.775  1.3718  2.6676  0.6307
 1668TIP3   OH226494   2.673   1.169   1.286  0.6263  0.3825 -0.1892
 1668TIP3    H126495   2.740   1.221   1.241  1.2140  0.5971  0.8906
 1668TIP3    H226496   2.718   1.087   1.308  1.1727  1.2376  2.1955
 1669TIP3   OH226497   3.893   2.261  11.511 -0.1274 -0.0415 -0.3305
 1669TIP3    H126498   3.978   2.225  11.538  0.1050  1.8233  1.7590
 1669TIP3    H226499   3.838   2.254  11.589 -0.9731  1.3786 -0.7619
 1670TIP3   OH226500   6.548   6.715  10.961 -0.1836 -0.1807 -0.0730
 1670TIP3    H126501   6.632   6.745  10.929  0.6905 -1.7228  0.6496
 1670TIP3    H226502   6.538   6.757  11.047  0.6886 -1.3232  0.6113
 1671TIP3   OH226503   3.393   5.956  14.342 -0.1369 -0.2747 -0.2534
 1671TIP3    H126504   3.416   5.914  14.259 -0.3396  0.0534 -0.4793
 1671TIP3    H226505   3.388   5.885  14.405  0.3493 -0.4862 -0.4530
 1672TIP3   OH226506   5.974   1.760   0.796 -0.1936 -0.2883  0.2600
 1672TIP3    H126507   5.966   1.853   0.771  0.9639  0.1864  1.5359
 1672TIP3    H226508   5.978   1.761   0.891  0.0846 -1.6381  0.2814
 1673TIP3   OH226509   1.268   2.959  14.890 -0.2837  0.2851 -0.1528
 1673TIP3    H126510   1.335   2.972  14.823 -1.0746  1.1974 -0.7903
 1673TIP3    H226511   1.298   2.882  14.939  1.9414  1.4358  0.4482
 1674TIP3   OH226512   3.564   1.583   4.091 -0.5157  0.4639 -0.0648
 1674TIP3    H126513   3.565   1.492   4.059  0.8075  0.4026  0.1111
 1674TIP3    H226514   3.482   1.589   4.140  0.3610 -1.3233  1.7987
 1675TIP3   OH226515   6.540   3.346   0.523 -0.2514 -0.3474  0.3481
 1675TIP3    H126516   6.557   3.404   0.448 -0.7636 -2.4825 -1.5039
 1675TIP3    H226517   6.552   3.258   0.489 -2.0390 -1.4809  2.3902
 1676TIP3   OH226518   5.174   5.926  11.656  0.0945  0.1808  0.0511
 1676TIP3    H126519   5.212   5.865  11.592 -0.0963  0.2237 -0.1052
 1676TIP3    H226520   5.168   6.009  11.609 -0.9094 -0.0108 -0.1862
 1677TIP3   OH226521   1.342   1.742  11.466  0.1213  0.4589 -0.0636
 1677TIP3    H126522   1.263   1.783  11.430  0.9266  2.3839  0.2843
 1677TIP3    H226523   1.375   1.687  11.395 -0.5939  0.9696 -0.8111
 1678TIP3   OH226524   5.938   5.872  12.849 -0.3370 -0.2027 -0.2503
 1678TIP3    H126525   5.859   5.817  12.847 -0.4876  0.0216 -2.4653
 1678TIP3    H226526   5.905   5.959  12.872 -0.6820 -0.2132 -0.6835
 1679TIP3   OH226527   3.496   1.053  13.204 -0.3036 -0.0777  0.4529
 1679TIP3    H126528   3.410   1.051  13.248 -0.2345 -0.5621  0.5734
 1679TIP3    H226529   3.557   1.077  13.274 -0.1881 -0.8882  0.6497
 1680TIP3   OH226530   0.777   1.715  16.785  0.4310 -0.0119 -0.0594
 1680TIP3    H126531   0.744   1.664  16.711  3.1427 -0.7461 -0.8797
 1680TIP3    H226532   0.869   1.731  16.764  0.5039  2.4800  1.7248
 1681TIP3   OH226533   3.039   2.848   0.834  0.0699 -0.0518  0.2283
 1681TIP3    H126534   3.123   2.813   0.805  0.9852  0.1045  2.4258
 1681TIP3    H226535   2.978   2.774   0.826  1.2378 -1.2729  1.7733
 1682TIP3   OH226536   5.128   0.985  17.087  0.2378 -0.3782 -0.9707
 1682TIP3    H126537   5.060   0.974  17.021 -0.4807  1.5652 -0.6376
 1682TIP3    H226538   5.173   1.066  17.062  0.6325 -0.1592  0.3226
 1683TIP3   OH226539   1.600   1.338  17.194 -0.9901  0.0313 -0.2733
 1683TIP3    H126540   1.537   1.324  17.124 -0.3754  1.5263 -1.1741
 1683TIP3    H226541   1.667   1.272  17.180 -1.3882 -0.3316 -0.4780
 1684TIP3   OH226542   3.643   5.962  15.588 -0.0869  0.1883  0.5701
 1684TIP3    H126543   3.676   6.001  15.668  0.3331  1.0283  0.0039
 1684TIP3    H226544   3.573   5.903  15.616 -2.0324  2.7184  1.3227
 1685TIP3   OH226545   3.590   1.995   1.852  0.0413  0.3108 -0.5604
 1685TIP3    H126546   3.585   1.899   1.857 -0.0044  0.3258 -0.3185
 1685TIP3    H226547   3.516   2.019   1.795 -0.1359  0.2253 -0.3676
 1686TIP3   OH226548   1.885   2.042  11.746  0.4404  0.1788  0.2385
 1686TIP3    H126549   1.892   2.050  11.651  1.5517  0.1969  0.3096
 1686TIP3    H226550   1.973   2.061  11.778 -0.3371  2.0793  1.4183
 1687TIP3   OH226551   5.221   6.782   4.029  0.1917 -0.4086  0.6595
 1687TIP3    H126552   5.230   6.696   3.989 -0.2136 -0.2151  0.1324
 1687TIP3    H226553   5.243   6.843   3.959  1.2209 -0.0974  1.2472
 1688TIP3   OH226554   1.802   0.072  17.056  0.3310  0.1277  0.8987
 1688TIP3    H126555   1.708   0.093  17.051  0.6163  1.2627 -0.1522
 1688TIP3    H226556   1.834   0.124  17.130  0.0616 -0.6506  1.5882
 1689TIP3   OH226557   1.572   2.352   3.511  0.0641 -0.1062  0.2902
 1689TIP3    H126558   1.532   2.338   3.425 -0.4893 -0.6047  0.6134
 1689TIP3    H226559   1.661   2.382   3.493 -0.1183 -0.0170 -0.4539
 1690TIP3   OH226560   0.952   0.276  15.555 -0.5449  0.3501 -0.3960
 1690TIP3    H126561   0.897   0.333  15.502 -0.2417  0.3067 -0.7658
 1690TIP3    H226562   0.894   0.239  15.621 -1.2859 -0.8535 -1.6771
 1691TIP3   OH226563   2.868   6.117  14.158  0.2993 -0.3504  0.2020
 1691TIP3    H126564   2.939   6.084  14.213 -0.8171  0.0852  2.0135
 1691TIP3    H226565   2.866   6.059  14.082  3.0049  0.0515 -0.2619
 1692TIP3   OH226566   5.590   3.903   3.742  0.5194 -0.2236 -0.9082
 1692TIP3    H126567   5.565   3.981   3.791  0.1795 -0.0064 -1.4150
 1692TIP3    H226568   5.549   3.915   3.656  1.7022 -0.2608 -1.4858
 1693TIP3   OH226569   3.863   5.790   5.651  0.2326  0.1057  0.1975
 1693TIP3    H126570   3.946   5.743   5.648  0.5017  0.6367 -1.2933
 1693TIP3    H226571   3.799   5.726   5.682  0.7086 -1.0532 -1.1488
 1694TIP3   OH226572   4.635   5.679  12.288  0.5392  0.0353  0.3087
 1694TIP3    H126573   4.685   5.701  12.210 -0.2825  0.2156 -0.1758
 1694TIP3    H226574   4.666   5.591  12.313  0.2718 -0.3402 -0.6558
 1695TIP3   OH226575   0.769   0.294   4.632  0.1849 -0.1804  0.0739
 1695TIP3    H126576   0.729   0.352   4.697 -0.8227 -0.2745 -0.4456
 1695TIP3    H226577   0.728   0.318   4.549 -0.1599 -1.5172 -0.1793
 1696TIP3   OH226578   4.624   6.107  14.425 -0.2244 -0.4359 -0.0351
 1696TIP3    H126579   4.551   6.048  14.402  0.9179 -2.0812  0.3803
 1696TIP3    H226580   4.657   6.073  14.508  0.2598  1.0529  0.4132
 1697TIP3   OH226581   2.320   1.598   4.316  0.0037  0.5769  0.5675
 1697TIP3    H126582   2.307   1.503   4.314  1.5744  0.3456  0.2357
 1697TIP3    H226583   2.366   1.618   4.235 -1.0573  1.7612  0.2277
 1698TIP3   OH226584   4.863   3.386  12.516 -0.3391  0.1667  0.8998
 1698TIP3    H126585   4.950   3.364  12.483 -0.8579  0.0614 -0.4598
 1698TIP3    H226586   4.841   3.469  12.474 -1.0148  0.0483  0.9936
 1699TIP3   OH226587   4.447   3.973   2.290  0.6483  0.4176 -0.1385
 1699TIP3    H126588   4.505   3.897   2.286 -0.9139 -0.8679  0.4858
 1699TIP3    H226589   4.430   3.996   2.199 -0.4501 -1.2773 -0.3980
 1700TIP3   OH226590   0.139   5.039  13.232  0.4002 -0.2479  0.1289
 1700TIP3    H126591   0.066   4.993  13.273 -0.0486 -0.2094 -0.6184
 1700TIP3    H226592   0.106   5.066  13.146  1.7458 -1.4441 -0.8042
 1701TIP3   OH226593   4.498   4.140   6.490 -0.4061  0.1320 -0.0038
 1701TIP3    H126594   4.429   4.136   6.556 -0.4206  1.2909  0.0709
 1701TIP3    H226595   4.549   4.218   6.513  1.2329 -0.9518  0.2220
 1702TIP3   OH226596   5.030   0.044   5.889  0.1447 -0.3734  0.1469
 1702TIP3    H126597   5.076   0.043   5.805 -3.3792 -2.3483 -1.9619
 1702TIP3    H226598   5.085  -0.010   5.946  0.4512 -2.8846 -2.3057
 1703TIP3   OH226599   6.521   1.121  17.184 -0.6012  0.0677 -0.3982
 1703TIP3    H126600   6.483   1.036  17.206 -0.0426  0.4220  2.1555
 1703TIP3    H226601   6.509   1.175  17.262  0.7923  1.7393 -1.2519
 1704TIP3   OH226602   4.727   3.884   4.564  0.4065 -0.2009 -0.2648
 1704TIP3    H126603   4.808   3.851   4.525  0.1683 -1.1390  0.0149
 1704TIP3    H226604   4.755   3.956   4.621  1.1426 -1.0078  0.4264
 1705TIP3   OH226605   6.726   4.301  14.483 -0.0318 -0.2376  0.3904
 1705TIP3    H126606   6.722   4.304  14.579 -0.6372  0.4534  0.3587
 1705TIP3    H226607   6.654   4.358  14.455  0.1817 -0.3848 -0.4764
 1706TIP3   OH226608   4.219   3.177  13.556 -0.0724  0.0648  0.7544
 1706TIP3    H126609   4.138   3.133  13.530  0.2344  0.0362 -0.1772
 1706TIP3    H226610   4.275   3.106  13.587  0.1023 -0.0968  0.0788
 1707TIP3   OH226611   5.515   0.172  16.971 -0.0959 -0.0559  0.6946
 1707TIP3    H126612   5.462   0.092  16.972  0.2873 -0.3090  1.6751
 1707TIP3    H226613   5.466   0.234  17.024 -0.2724  0.2859  0.1361
 1708TIP3   OH226614   0.204   6.374  13.374  0.0672 -0.2267  0.7406
 1708TIP3    H126615   0.300   6.374  13.372  0.0755  0.7505 -1.2333
 1708TIP3    H226616   0.182   6.360  13.466  2.1067  0.5993  1.4100
 1709TIP3   OH226617   1.039   0.894   1.634 -0.2865  0.8497 -0.3826
 1709TIP3    H126618   1.044   0.984   1.603 -0.2091  0.9802 -0.0008
 1709TIP3    H226619   0.996   0.901   1.719  2.8064  0.9576  1.3370
 1710TIP3   OH226620   6.519   0.739  10.266  0.4222  0.1990  0.0019
 1710TIP3    H126621   6.598   0.728  10.319 -0.2632  0.3686  1.0786
 1710TIP3    H226622   6.467   0.804  10.313  0.3044  1.2219 -1.4802
 1711TIP3   OH226623   0.566   1.520   1.991  0.1374  0.1895  0.3498
 1711TIP3    H126624   0.562   1.465   2.070  0.1379 -0.5081 -0.1268
 1711TIP3    H226625   0.595   1.460   1.922  1.2865  1.0513  0.0507
 1712TIP3   OH226626   5.518   1.736  17.031  0.1582  0.1529  0.0989
 1712TIP3    H126627   5.442   1.707  16.980  0.6670 -2.2077  0.5840
 1712TIP3    H226628   5.489   1.818  17.072 -2.2779 -0.8612  0.5793
 1713TIP3   OH226629   3.411   5.717  14.158  0.6953  0.3519 -0.4069
 1713TIP3    H126630   3.498   5.749  14.134  0.6152 -0.6525 -2.1352
 1713TIP3    H226631   3.376   5.678  14.078 -1.6013  1.2388  0.0810
 1714TIP3   OH226632   1.239   6.694  16.836 -0.2342 -0.0154  0.0907
 1714TIP3    H126633   1.321   6.651  16.813  0.8423  1.8856  0.1651
 1714TIP3    H226634   1.229   6.680  16.930 -2.3346 -3.9534 -0.4935
 1715TIP3   OH226635   1.460   6.746   2.929  0.0104 -0.1703 -0.0696
 1715TIP3    H126636   1.535   6.739   2.871  0.2817  1.5993 -0.0110
 1715TIP3    H226637   1.410   6.666   2.916  1.5470 -1.0595 -0.6175
 1716TIP3   OH226638   5.337   0.535   3.656  0.2050 -0.6879  0.2037
 1716TIP3    H126639   5.246   0.564   3.659 -0.0292 -0.9497 -2.2916
 1716TIP3    H226640   5.388   0.615   3.651 -0.0545 -0.5608 -0.5813
 1717TIP3   OH226641   1.574   6.568  11.654 -0.2885  0.5271 -0.3568
 1717TIP3    H126642   1.507   6.627  11.619  0.7194  1.7185 -0.3468
 1717TIP3    H226643   1.639   6.627  11.693  0.3801 -0.6339  0.3322
 1718TIP3   OH226644   3.099   0.601  15.492  0.4208  0.1996  0.1974
 1718TIP3    H126645   3.185   0.632  15.518 -0.1738  1.2517  0.9708
 1718TIP3    H226646   3.068   0.666  15.429 -0.2081  0.3674  0.6715
 1719TIP3   OH226647   1.328   2.042   2.533 -0.0323  0.5448  0.2655
 1719TIP3    H126648   1.314   1.996   2.450 -0.0834  1.2923 -0.1480
 1719TIP3    H226649   1.266   2.001   2.593 -2.1849  1.9916 -0.8470
 1720TIP3   OH226650   1.524   2.887   1.793 -0.5831  0.3968  0.1041
 1720TIP3    H126651   1.498   2.864   1.882 -2.1607  3.3247  0.5127
 1720TIP3    H226652   1.616   2.914   1.802 -0.4095 -0.3236  0.6205
 1721TIP3   OH226653   3.414   4.168   2.245  0.1551  0.6785 -0.7071
 1721TIP3    H126654   3.497   4.208   2.218  1.5351 -0.4201  1.6224
 1721TIP3    H226655   3.414   4.083   2.201  0.5648  0.4353 -0.2433
 1722TIP3   OH226656   0.254   1.903  13.558  0.1852  0.4070 -0.7280
 1722TIP3    H126657   0.345   1.881  13.576 -0.0166  0.4776  0.4683
 1722TIP3    H226658   0.258   1.988  13.514  0.6607  1.2343  0.8027
 1723TIP3   OH226659   3.926   3.793   0.669 -0.6450 -0.0528 -0.2369
 1723TIP3    H126660   3.886   3.771   0.753  0.1397  1.0336  0.4480
 1723TIP3    H226661   3.854   3.824   0.615 -0.7689  2.0647  1.0455
 1724TIP3   OH226662   3.533   6.546  15.170 -0.3928  0.2564 -0.3224
 1724TIP3    H126663   3.444   6.529  15.141 -0.1206  0.3743 -1.2687
 1724TIP3    H226664   3.533   6.637  15.200 -0.4056  0.5206 -1.1031
 1725TIP3   OH226665   0.699   6.391  15.499  0.0938  0.3262 -0.1454
 1725TIP3    H126666   0.764   6.323  15.517  1.4181  1.5563 -0.0586
 1725TIP3    H226667   0.716   6.458  15.565 -2.7966 -0.2553  1.3583
 1726TIP3   OH226668   1.396   0.671  11.241 -0.2499 -0.3172 -0.6147
 1726TIP3    H126669   1.436   0.584  11.240 -1.3700 -0.8496 -0.5575
 1726TIP3    H226670   1.302   0.654  11.250 -0.5988  0.8552 -1.7731
 1727TIP3   OH226671   6.551   5.100   4.078  0.2702  0.0271  0.5311
 1727TIP3    H126672   6.596   5.023   4.113  0.8899 -0.2936 -0.9013
 1727TIP3    H226673   6.471   5.107   4.130 -0.1094 -1.9608  0.2953
 1728TIP3   OH226674   1.130   2.555   1.882 -0.0574 -0.1212  0.0728
 1728TIP3    H126675   1.059   2.523   1.937 -1.0603 -0.8917 -1.5951
 1728TIP3    H226676   1.142   2.487   1.815  2.6419 -0.2829  0.6054
 1729TIP3   OH226677   4.866   3.630  15.256 -0.4579 -0.5624  0.1780
 1729TIP3    H126678   4.852   3.709  15.205  2.5358 -0.4026 -0.5637
 1729TIP3    H226679   4.814   3.563  15.211 -0.0074  0.1707 -1.5015
 1730TIP3   OH226680   2.813   5.771  12.431  0.0751 -0.3311  0.3805
 1730TIP3    H126681   2.863   5.852  12.422 -1.5903  0.6982  0.1510
 1730TIP3    H226682   2.770   5.759  12.347 -2.2841  0.3405  1.4181
 1731TIP3   OH226683   1.573   1.213   2.537  0.8480  0.5748  0.9293
 1731TIP3    H126684   1.593   1.305   2.558 -1.6354  1.3107  0.3828
 1731TIP3    H226685   1.603   1.202   2.447 -2.5486  2.2491 -0.5983
 1732TIP3   OH226686   0.971   4.105   1.359 -0.4604 -0.1637  0.0792
 1732TIP3    H126687   0.947   4.179   1.303  0.5903  0.1403  0.0192
 1732TIP3    H226688   0.924   4.121   1.441 -2.9175 -1.1902 -1.0248
 1733TIP3   OH226689   3.151   0.169  11.658 -0.1453  0.1477  0.1478
 1733TIP3    H126690   3.141   0.171  11.753 -0.5725 -0.4201  0.1172
 1733TIP3    H226691   3.127   0.080  11.633  0.8503  0.0248 -0.4010
 1734TIP3   OH226692   1.425   1.968  11.976  0.6911  0.1483 -1.2187
 1734TIP3    H126693   1.444   1.995  12.066 -0.8552 -0.9988 -0.5120
 1734TIP3    H226694   1.494   1.906  11.954 -1.0044 -2.6576  0.6963
 1735TIP3   OH226695   6.577   1.907   2.302  0.0539  0.4272 -0.0435
 1735TIP3    H126696   6.509   1.961   2.263 -0.0538  1.8113  1.9041
 1735TIP3    H226697   6.535   1.866   2.378  0.7036 -0.7644 -0.3014
 1736TIP3   OH226698   3.918   2.952  16.556  0.1105  0.1932 -0.5085
 1736TIP3    H126699   3.882   2.893  16.490 -0.8912 -0.7030  0.7795
 1736TIP3    H226700   3.907   3.040  16.520  0.6505 -0.3269 -2.0028
 1737TIP3   OH226701   0.746   0.345   3.414  0.0111 -0.3100 -0.0624
 1737TIP3    H126702   0.663   0.384   3.439 -0.3030 -0.8273 -0.2902
 1737TIP3    H226703   0.739   0.332   3.320  0.6293  0.3027 -0.1995
 1738TIP3   OH226704   2.098   6.003  14.411 -0.4185  0.2310  0.1933
 1738TIP3    H126705   2.192   5.985  14.418 -0.3980  0.4382  0.4787
 1738TIP3    H226706   2.065   5.938  14.350 -0.1640 -0.1317  0.4398
 1739TIP3   OH226707   0.034   5.203   4.357  0.2336 -0.4160  0.1748
 1739TIP3    H126708   0.069   5.289   4.381  0.1165 -0.2187 -0.3604
 1739TIP3    H226709   0.082   5.177   4.279 -0.6145 -0.2626 -0.4141
 1740TIP3   OH226710   3.639   1.015   2.507 -0.0419  0.2403  0.2586
 1740TIP3    H126711   3.661   0.933   2.461 -0.9382  0.0795  0.0933
 1740TIP3    H226712   3.546   1.006   2.527 -0.6613  2.0410 -1.4922
 1741TIP3   OH226713   0.004   1.687   1.809  0.2229 -0.0991  0.0203
 1741TIP3    H126714   0.061   1.735   1.748  0.2399 -0.4384 -0.2342
 1741TIP3    H226715  -0.004   1.600   1.770 -0.7200  0.0316 -0.1030
 1742TIP3   OH226716   6.645   4.500  15.010 -0.1183  0.2825 -0.7150
 1742TIP3    H126717   6.603   4.484  14.926 -1.0756  0.2245 -0.2314
 1742TIP3    H226718   6.574   4.527  15.068  0.3604 -0.7077  0.3616
 1743TIP3   OH226719   2.565   0.833   6.470  0.8938  0.1288 -0.1509
 1743TIP3    H126720   2.610   0.889   6.532 -1.4529 -0.6926  2.4851
 1743TIP3    H226721   2.475   0.867   6.468  0.4678 -0.9686 -1.7601
 1744TIP3   OH226722   4.530   3.021  16.941  0.3019 -0.3064 -0.1207
 1744TIP3    H126723   4.609   3.027  16.887 -0.5287  2.0200 -1.2232
 1744TIP3    H226724   4.536   3.095  17.001 -0.8853 -0.2475 -0.0499
 1745TIP3   OH226725   2.276   1.267  11.176  0.8101  0.0610 -0.0853
 1745TIP3    H126726   2.264   1.357  11.207 -0.4949 -0.5159  1.1996
 1745TIP3    H226727   2.370   1.259  11.160  0.9419  1.6430 -0.2122
 1746TIP3   OH226728   3.892   6.315   4.165  0.1919 -0.1768  0.1233
 1746TIP3    H126729   3.926   6.238   4.211 -0.8359 -0.2682  0.7701
 1746TIP3    H226730   3.964   6.343   4.109  0.9859 -0.9181  0.7396
 1747TIP3   OH226731   0.037   4.842   0.562  0.5312 -0.2960 -0.0907
 1747TIP3    H126732   0.053   4.814   0.472 -2.6375 -1.1587 -0.5153
 1747TIP3    H226733   0.026   4.937   0.556  1.4252 -0.2123 -0.4190
 1748TIP3   OH226734   2.424   4.412  11.597  0.3717 -0.1688 -0.1516
 1748TIP3    H126735   2.423   4.441  11.506  0.0853  0.9449  0.1909
 1748TIP3    H226736   2.480   4.334  11.597 -1.0423 -1.2401 -1.5654
 1749TIP3   OH226737   5.369   2.197  11.379 -0.9822  0.3008 -0.0641
 1749TIP3    H126738   5.410   2.126  11.329 -0.9798 -0.4479  0.9700
 1749TIP3    H226739   5.307   2.236  11.318  1.1423  1.4063 -1.6554
 1750TIP3   OH226740   5.792   2.816   4.888  0.3747 -0.5114  0.1214
 1750TIP3    H126741   5.812   2.900   4.846 -0.8635  0.7373  1.8927
 1750TIP3    H226742   5.704   2.794   4.858 -0.8475  0.7812  2.4548
 1751TIP3   OH226743   1.401   3.077   5.362  0.7613 -0.1157 -0.1674
 1751TIP3    H126744   1.338   3.085   5.433  2.2774  0.6452  1.1447
 1751TIP3    H226745   1.449   2.996   5.381  0.7017 -0.2924 -0.7327
 1752TIP3   OH226746   5.954   1.722   3.469 -0.7178  0.0822 -0.2605
 1752TIP3    H126747   6.009   1.679   3.535  1.6124  1.1467 -1.4168
 1752TIP3    H226748   6.016   1.763   3.408 -2.7967  0.5913 -2.1678
 1753TIP3   OH226749   5.494   3.207  11.937  0.2814 -0.3487 -0.1809
 1753TIP3    H126750   5.522   3.280  11.992  0.0303  0.6893 -1.3700
 1753TIP3    H226751   5.414   3.175  11.979  0.1019  0.4202  0.0953
 1754TIP3   OH226752   4.160   4.189  12.810  0.1221 -0.3860 -0.4756
 1754TIP3    H126753   4.162   4.178  12.715 -0.9315  1.0722 -0.6971
 1754TIP3    H226754   4.069   4.171  12.835 -0.1434  1.3510 -0.0648
 1755TIP3   OH226755   5.809   4.310   1.218 -0.4207  0.1770 -0.2766
 1755TIP3    H126756   5.782   4.257   1.293  3.2615 -0.2169  0.9892
 1755TIP3    H226757   5.850   4.387   1.258  4.0516 -1.2454 -1.5130
 1756TIP3   OH226758   2.465   3.931   5.516  0.1380 -0.6003 -0.2184
 1756TIP3    H126759   2.388   3.921   5.460 -1.1612 -1.2098  1.5852
 1756TIP3    H226760   2.472   4.025   5.531  0.3631 -0.4530 -1.1832
 1757TIP3   OH226761   6.782   3.242   1.491  0.7746 -0.4352 -0.2969
 1757TIP3    H126762   6.713   3.272   1.551  0.5925  2.0775 -1.6156
 1757TIP3    H226763   6.848   3.312   1.494  0.5949 -0.0258 -3.2329
 1758TIP3   OH226764   6.655   5.010   5.327 -0.1745  0.2709 -0.0226
 1758TIP3    H126765   6.668   5.099   5.293 -2.1733  0.4546 -0.4426
 1758TIP3    H226766   6.650   5.021   5.422  0.8642  0.4193  0.0184
 1759TIP3   OH226767   2.565   0.508  14.778  0.2757  0.0097 -0.1597
 1759TIP3    H126768   2.507   0.464  14.716 -0.2006 -2.2170  1.6914
 1759TIP3    H226769   2.507   0.557  14.836 -0.0358 -2.6465  2.0265
 1760TIP3   OH226770   3.702   5.753  13.809 -0.0326  0.0961 -0.0895
 1760TIP3    H126771   3.788   5.717  13.788 -0.1350  1.7696 -4.3945
 1760TIP3    H226772   3.640   5.683  13.789  0.1642 -0.8744  2.3569
 1761TIP3   OH226773   0.004   3.917   3.388 -0.5218 -0.1495 -0.1446
 1761TIP3    H126774  -0.025   3.864   3.314 -0.7707 -0.7906  0.3995
 1761TIP3    H226775  -0.058   3.896   3.458 -0.4726  0.6772  0.1539
 1762TIP3   OH226776   4.519   1.419   3.738  0.2469  0.2089 -0.2380
 1762TIP3    H126777   4.506   1.494   3.679 -0.7669  0.5569  0.4009
 1762TIP3    H226778   4.469   1.348   3.697 -1.7840  0.8679  0.9324
 1763TIP3   OH226779   1.933   1.711  11.407  0.2832 -0.0258  0.6065
 1763TIP3    H126780   1.896   1.676  11.327 -0.9352  1.9224  0.2473
 1763TIP3    H226781   2.026   1.687  11.403 -0.1333 -1.6264 -0.3961
 1764TIP3   OH226782   1.979   6.753   2.939 -0.3435 -0.1517 -0.4598
 1764TIP3    H126783   1.994   6.707   3.022 -1.9419 -0.1908 -0.1626
 1764TIP3    H226784   1.995   6.845   2.961 -2.5702  0.0922  0.4529
 1765TIP3   OH226785   3.348   6.363  12.000  0.2101  0.3709  0.1321
 1765TIP3    H126786   3.289   6.427  11.960  2.6957  3.5507  1.1602
 1765TIP3    H226787   3.320   6.358  12.091 -1.3687 -1.8797 -0.3964
 1766TIP3   OH226788   1.894   3.409   5.547  0.1707  0.7967 -0.2921
 1766TIP3    H126789   1.880   3.449   5.633  0.4464  0.1518  0.0658
 1766TIP3    H226790   1.985   3.379   5.549 -0.4211 -1.1256  0.0188
 1767TIP3   OH226791   1.926   5.130   3.552 -0.1822 -0.5636 -0.4151
 1767TIP3    H126792   1.863   5.105   3.484 -0.6308 -2.0440  0.4838
 1767TIP3    H226793   1.934   5.051   3.607  0.6295  0.3836  0.8820
 1768TIP3   OH226794   4.948   1.965  17.057  0.1378 -0.6293  0.3322
 1768TIP3    H126795   4.862   1.929  17.038  0.3163 -2.1400  2.0853
 1768TIP3    H226796   5.010   1.898  17.029  1.2304  2.0724 -4.9714
 1769TIP3   OH226797   3.540   3.625   0.382 -0.5356 -0.2085  1.0303
 1769TIP3    H126798   3.575   3.631   0.293 -0.7934  0.3759  0.9687
 1769TIP3    H226799   3.456   3.670   0.379 -1.2560 -1.4820  1.2110
 1770TIP3   OH226800   3.315   5.233  11.352 -0.1711  0.4157  0.4421
 1770TIP3    H126801   3.383   5.165  11.357  0.4410  0.8989 -0.8175
 1770TIP3    H226802   3.239   5.187  11.318 -0.1234  0.1164  0.7271
 1771TIP3   OH226803   5.457   3.754   5.630 -0.4306  0.7442 -0.1841
 1771TIP3    H126804   5.476   3.669   5.590  0.0501  1.2792 -1.1174
 1771TIP3    H226805   5.367   3.773   5.604 -0.8955  0.0707  0.8690
 1772TIP3   OH226806   0.881   1.141  12.935 -0.2223  0.4246  0.5157
 1772TIP3    H126807   0.801   1.102  12.900  1.2197 -0.9773 -1.4407
 1772TIP3    H226808   0.873   1.129  13.029 -2.1788  0.0768  0.3639
 1773TIP3   OH226809   4.410   0.623  14.854 -0.1240  0.4254  0.1995
 1773TIP3    H126810   4.464   0.670  14.791 -1.3178  1.2898 -0.2207
 1773TIP3    H226811   4.415   0.676  14.934 -1.4701  1.3346 -0.2753
 1774TIP3   OH226812   4.268   1.106  14.666  0.1561  0.2675 -0.2135
 1774TIP3    H126813   4.210   1.166  14.619 -0.8282  0.1903  0.8476
 1774TIP3    H226814   4.291   1.039  14.602 -1.5254 -0.0902 -0.4927
 1775TIP3   OH226815   5.990   3.143   5.557 -0.1725 -0.3951  0.1825
 1775TIP3    H126816   6.029   3.059   5.535  0.2268 -0.0009 -0.7115
 1775TIP3    H226817   6.059   3.207   5.538 -0.6932  0.1819  0.1881
 1776TIP3   OH226818   3.062   0.480   4.398 -0.4298 -0.3076  0.0799
 1776TIP3    H126819   3.147   0.464   4.358 -1.1635  2.7572 -3.3178
 1776TIP3    H226820   3.010   0.403   4.376 -0.1719  0.3620 -3.4907
 1777TIP3   OH226821   0.251   6.120  12.185 -0.2369 -0.0878 -0.0724
 1777TIP3    H126822   0.260   6.064  12.262  2.6704 -0.7935 -0.8053
 1777TIP3    H226823   0.170   6.091  12.143 -0.7375 -1.1723  1.5532
 1778TIP3   OH226824   3.899   1.684  16.095  0.0776 -0.3801 -0.8801
 1778TIP3    H126825   3.809   1.713  16.112  0.4273 -0.6472  1.8533
 1778TIP3    H226826   3.937   1.754  16.043 -1.8429 -0.5288 -2.5841
 1779TIP3   OH226827   4.760   2.740  15.322 -0.1481  1.1636 -0.3553
 1779TIP3    H126828   4.776   2.796  15.246  0.8697  1.2551 -0.0878
 1779TIP3    H226829   4.717   2.662  15.286  0.8702  0.9394 -1.1209
 1780TIP3   OH226830   6.600   5.201  15.995 -0.4707 -0.0101  0.5142
 1780TIP3    H126831   6.639   5.220  15.909  0.0321  0.5065  0.8500
 1780TIP3    H226832   6.549   5.280  16.015 -1.0264 -0.3475  0.4552
 1781TIP3   OH226833   0.123   0.670  12.236  0.0026 -0.2377 -0.1994
 1781TIP3    H126834   0.106   0.584  12.275  0.3872 -0.2640 -0.0870
 1781TIP3    H226835   0.202   0.657  12.184 -1.3629 -0.6344 -2.3181
 1782TIP3   OH226836   2.629   4.625   5.404 -0.0132 -0.2802 -0.6596
 1782TIP3    H126837   2.555   4.657   5.352  0.3861 -0.2098 -1.1925
 1782TIP3    H226838   2.588   4.573   5.474 -0.6913  1.4555  0.3090
 1783TIP3   OH226839   1.183   6.747  11.800 -0.1178 -0.2879  0.2979
 1783TIP3    H126840   1.192   6.842  11.789  1.8935 -0.5479 -0.9394
 1783TIP3    H226841   1.223   6.729  11.885  0.9875 -0.1626 -0.1728
 1784TIP3   OH226842   0.455   1.655   5.540 -0.0928 -0.6032  0.0114
 1784TIP3    H126843   0.476   1.641   5.633  2.4792 -0.7635 -0.5152
 1784TIP3    H226844   0.464   1.750   5.529  0.1964 -0.6528 -0.1866
 1785TIP3   OH226845   6.292   0.324   3.768 -0.1014  0.2327  0.3849
 1785TIP3    H126846   6.362   0.346   3.830 -0.2526 -0.8804  0.9608
 1785TIP3    H226847   6.233   0.267   3.817 -0.2487 -0.6379 -0.7624
 1786TIP3   OH226848   5.281   0.414   3.385 -0.1182  0.8161  0.0529
 1786TIP3    H126849   5.300   0.333   3.339 -0.7054  0.3655  0.5859
 1786TIP3    H226850   5.328   0.406   3.468  0.1439  1.1983 -0.0552
 1787TIP3   OH226851   6.124   3.716  10.991 -0.0659 -0.5089 -0.6912
 1787TIP3    H126852   6.060   3.665  10.941 -0.5326  0.0013 -0.6214
 1787TIP3    H226853   6.205   3.666  10.984  0.2222  0.1545 -3.0046
 1788TIP3   OH226854   6.377   3.194  11.599  0.0913  0.5333 -0.1120
 1788TIP3    H126855   6.328   3.135  11.542  1.0566  1.9612 -2.6123
 1788TIP3    H226856   6.429   3.136  11.655 -2.5204 -0.9482  0.9383
 1789TIP3   OH226857   0.805   5.035   4.531 -0.2671 -0.2237 -1.1010
 1789TIP3    H126858   0.719   5.060   4.564 -0.3244  0.1364 -1.5187
 1789TIP3    H226859   0.865   5.058   4.602 -0.5473 -0.8019 -0.6641
 1790TIP3   OH226860   6.757   4.991   5.996 -0.7201  0.3178 -0.0418
 1790TIP3    H126861   6.724   5.079   6.013  0.1168  0.3304  1.7875
 1790TIP3    H226862   6.743   4.944   6.078 -0.2823 -0.9848 -0.6805
 1791TIP3   OH226863   5.203   1.626   3.912  0.0030 -0.3816  0.5563
 1791TIP3    H126864   5.192   1.709   3.959 -1.0507 -0.1008 -0.1604
 1791TIP3    H226865   5.228   1.653   3.823 -0.2276 -0.8368  0.3535
 1792TIP3   OH226866   4.768   4.325   4.890 -0.4071 -0.3330  0.3999
 1792TIP3    H126867   4.690   4.349   4.840 -0.4759 -0.1191  0.6085
 1792TIP3    H226868   4.741   4.330   4.981  0.5428  2.4504  0.6470
 1793TIP3   OH226869   4.278   3.229  11.404 -0.0517 -0.2106  0.4165
 1793TIP3    H126870   4.183   3.234  11.409 -0.0804  0.8083 -0.6757
 1793TIP3    H226871   4.295   3.160  11.340 -0.1138  0.9837 -0.9160
 1794TIP3   OH226872   5.472   4.504  12.888  0.3433 -0.3913 -0.1338
 1794TIP3    H126873   5.508   4.553  12.815 -2.2799  0.2737 -1.1014
 1794TIP3    H226874   5.438   4.571  12.948  1.1682 -0.9615  1.0160
 1795TIP3   OH226875   1.674   0.715  15.772  0.1421  0.4478 -0.7503
 1795TIP3    H126876   1.668   0.629  15.815  2.2377  1.3111  1.5075
 1795TIP3    H226877   1.640   0.700  15.684 -1.6688 -2.1551  0.2418
 1796TIP3   OH226878   0.036   3.420   3.628 -0.2211  0.9107  0.7084
 1796TIP3    H126879   0.066   3.330   3.627 -0.8612  0.6834  1.1898
 1796TIP3    H226880   0.058   3.452   3.716  1.5237  1.7631 -0.0000
 1797TIP3   OH226881   2.788   2.773  12.257 -0.5197  0.2053 -0.1530
 1797TIP3    H126882   2.830   2.694  12.289 -0.8599  0.9778  2.4006
 1797TIP3    H226883   2.828   2.789  12.171  0.7520 -1.7623  0.0243
 1798TIP3   OH226884   2.646   0.793   3.307  0.1646 -0.2566 -0.1491
 1798TIP3    H126885   2.635   0.774   3.213 -0.8429 -1.0630  0.1173
 1798TIP3    H226886   2.611   0.716   3.351  1.8542 -0.4834  0.8982
 1799TIP3   OH226887   6.812   0.110  16.162 -0.6195 -0.2608 -0.6321
 1799TIP3    H126888   6.844   0.097  16.073 -1.1856  0.4419 -0.9484
 1799TIP3    H226889   6.808   0.205  16.173  0.9530 -0.3127  0.7063
 1800TIP3   OH226890   6.625   5.028   0.941 -0.2235  0.2824  0.0686
 1800TIP3    H126891   6.552   4.966   0.941  0.4248 -0.4832 -0.0125
 1800TIP3    H226892   6.676   5.006   0.863  0.6799  0.1230  0.6901
 1801TIP3   OH226893   4.424   5.777  17.139  0.2502 -0.4261 -0.4471
 1801TIP3    H126894   4.399   5.829  17.062  0.8564 -1.9385 -1.7077
 1801TIP3    H226895   4.399   5.688  17.117  1.0772 -1.0018  0.8405
 1802TIP3   OH226896   1.625   1.518   4.852  0.3466 -0.1720  0.3758
 1802TIP3    H126897   1.628   1.568   4.933 -1.3860 -0.3446  0.5879
 1802TIP3    H226898   1.561   1.564   4.798 -0.6869 -1.6666  0.2668
 1803TIP3   OH226899   6.109   4.869   0.946  0.8134  0.6986  0.1247
 1803TIP3    H126900   6.093   4.846   0.854  0.3624 -0.8932  0.5587
 1803TIP3    H226901   6.150   4.955   0.943  2.6853 -0.1571 -1.7032
 1804TIP3   OH226902   4.170   2.820   4.707 -0.2144  0.5641  0.1358
 1804TIP3    H126903   4.169   2.797   4.800  0.7164 -0.5334 -0.1057
 1804TIP3    H226904   4.258   2.857   4.692 -0.3629  0.7535 -0.3075
 1805TIP3   OH226905   3.371   6.395   3.010 -0.1637 -0.5787 -0.3056
 1805TIP3    H126906   3.277   6.378   3.015 -0.3810  0.7201  1.3055
 1805TIP3    H226907   3.406   6.356   3.090  0.6642 -1.0311 -0.8859
 1806TIP3   OH226908   3.981   4.514   1.261  0.3032  0.3405  0.2952
 1806TIP3    H126909   3.970   4.424   1.292  0.1930  0.2240 -0.0815
 1806TIP3    H226910   3.935   4.567   1.326 -0.5293  0.0393 -0.0432
 1807TIP3   OH226911   2.707   3.664  13.155  0.0684  0.7300 -0.1707
 1807TIP3    H126912   2.687   3.754  13.129 -0.7436  0.3849 -0.7882
 1807TIP3    H226913   2.738   3.622  13.074  2.7931  1.0526  0.5926
 1808TIP3   OH226914   5.813   5.155  11.575 -0.2017 -0.2502 -0.0618
 1808TIP3    H126915   5.900   5.141  11.539  0.6324 -0.1004  1.8061
 1808TIP3    H226916   5.775   5.224  11.520  0.2497 -1.3317 -1.8031
 1809TIP3   OH226917   0.661   2.309   5.740 -0.6551 -0.0495  0.2684
 1809TIP3    H126918   0.643   2.304   5.646 -1.7996  0.6774  0.4213
 1809TIP3    H226919   0.612   2.386   5.769 -0.5580 -0.4394  1.5143
 1810TIP3   OH226920   1.905   3.318  11.521  0.1495  0.2784  0.3831
 1810TIP3    H126921   1.940   3.319  11.432 -0.1503  0.8243  0.2693
 1810TIP3    H226922   1.942   3.239  11.560  0.4097  0.1200 -0.1745
 1811TIP3   OH226923   1.961   6.517  11.398 -0.2984 -0.3145 -0.0553
 1811TIP3    H126924   2.035   6.457  11.383 -0.3477  0.0804 -2.1342
 1811TIP3    H226925   1.909   6.511  11.318 -1.6300  0.7005  0.6963
 1812TIP3   OH226926   5.854   0.623  16.543 -0.5378  0.4269  0.4767
 1812TIP3    H126927   5.908   0.556  16.585 -0.2925 -0.3197 -0.9479
 1812TIP3    H226928   5.838   0.588  16.455 -0.9275  1.9709 -0.0856
 1813TIP3   OH226929   3.171   6.075   5.225 -0.2362  0.1382 -0.7711
 1813TIP3    H126930   3.078   6.078   5.249 -0.1714  1.0631 -0.6097
 1813TIP3    H226931   3.201   6.165   5.235  1.3602 -0.5956  1.7375
 1814TIP3   OH226932   0.116   6.306  15.963  0.1112 -0.0146 -0.3336
 1814TIP3    H126933   0.187   6.339  15.908 -0.1914  0.5039 -0.4215
 1814TIP3    H226934   0.157   6.238  16.016  0.3221 -0.8201 -1.4771
 1815TIP3   OH226935   4.227   1.377  10.922 -0.1847 -0.3844  0.0415
 1815TIP3    H126936   4.276   1.364  10.841  2.4780  1.2926  1.2591
 1815TIP3    H226937   4.232   1.294  10.968  0.0142 -0.7340 -0.6135
 1816TIP3   OH226938   3.839   1.322  16.136  0.1096  0.0874 -0.4288
 1816TIP3    H126939   3.844   1.267  16.214  2.0721  1.0516  0.1973
 1816TIP3    H226940   3.785   1.397  16.163  0.5156  0.2615 -0.0818
 1817TIP3   OH226941   4.963   5.657   0.239  0.4315  0.1220 -0.5617
 1817TIP3    H126942   5.058   5.661   0.228  0.5766  0.1719  0.5939
 1817TIP3    H226943   4.936   5.577   0.193  1.2005 -0.5700  0.1757
 1818TIP3   OH226944   0.473   6.123   5.314 -0.3419  0.0490  0.5568
 1818TIP3    H126945   0.421   6.188   5.267 -1.9089 -0.5799  1.3507
 1818TIP3    H226946   0.522   6.174   5.379  1.2645  0.8298 -1.1817
 1819TIP3   OH226947   1.533   2.219   6.711  0.4236  0.0230 -0.2601
 1819TIP3    H126948   1.538   2.124   6.700  1.7748  0.1775 -1.3655
 1819TIP3    H226949   1.452   2.234   6.759 -0.9358 -1.5508 -1.9137
 1820TIP3   OH226950   0.791   3.789   5.948 -0.8948  0.5985  0.1194
 1820TIP3    H126951   0.771   3.695   5.943  1.2429  0.1739 -1.7300
 1820TIP3    H226952   0.829   3.800   6.035 -1.5108 -0.1558  0.5045
 1821TIP3   OH226953   5.245   4.964  11.775  0.1506 -0.5376 -0.3543
 1821TIP3    H126954   5.203   5.025  11.835  1.5820 -0.0053  0.1499
 1821TIP3    H226955   5.338   4.986  11.779  0.4269 -1.2593 -1.8912
 1822TIP3   OH226956   1.198   4.438   2.047 -0.0945 -0.3903 -0.1037
 1822TIP3    H126957   1.178   4.480   2.131  1.0228  0.2241 -0.1358
 1822TIP3    H226958   1.132   4.369   2.039 -1.9416  1.2633 -0.0077
 1823TIP3   OH226959   1.148   3.382   4.170  0.1074  0.5270  0.1899
 1823TIP3    H126960   1.203   3.457   4.193  0.1801  0.2822  0.8230
 1823TIP3    H226961   1.063   3.402   4.209 -0.2158  0.8371 -0.6644
 1824TIP3   OH226962   4.395   3.714  15.220  0.2498 -0.0208  0.0444
 1824TIP3    H126963   4.381   3.728  15.127  0.4413  1.1569  0.1765
 1824TIP3    H226964   4.441   3.793  15.250 -1.3325  0.4337  1.4731
 1825TIP3   OH226965   1.486   2.088  13.113  0.0979  0.1322  0.0818
 1825TIP3    H126966   1.547   2.015  13.105 -3.2502 -2.9368  0.3681
 1825TIP3    H226967   1.463   2.090  13.205 -0.5901  0.9532 -0.0993
 1826TIP3   OH226968   5.502   4.189  14.548 -0.9262 -0.1993 -0.6524
 1826TIP3    H126969   5.511   4.152  14.461 -1.9059  0.5840 -1.0993
 1826TIP3    H226970   5.535   4.278  14.540  0.0835 -0.4896  0.0733
 1827TIP3   OH226971   6.052   3.317   2.692  0.4169  0.0973 -0.3770
 1827TIP3    H126972   6.135   3.353   2.662  0.7113 -0.3974 -0.1758
 1827TIP3    H226973   5.986   3.359   2.637  0.8749 -0.1728 -1.1529
 1828TIP3   OH226974   0.880   6.010   4.735 -0.2177  0.0174 -0.5168
 1828TIP3    H126975   0.904   5.971   4.651 -1.6815  1.3690 -1.6267
 1828TIP3    H226976   0.809   5.953   4.768 -0.6641  0.3293 -0.9315
 1829TIP3   OH226977   5.324   0.918  16.860  0.3849 -0.4816  0.8186
 1829TIP3    H126978   5.386   0.905  16.932 -0.2369 -1.2423  1.2321
 1829TIP3    H226979   5.238   0.903  16.899 -0.2076  1.9943  0.5938
 1830TIP3   OH226980   1.879   1.176  14.500 -0.3303  0.0486  1.0206
 1830TIP3    H126981   1.965   1.142  14.474 -0.1226  0.8353  0.6391
 1830TIP3    H226982   1.821   1.150  14.428  0.0789  1.5210  0.1122
 1831TIP3   OH226983   5.461   6.498  12.866 -0.4327  0.5009 -0.3988
 1831TIP3    H126984   5.517   6.421  12.880 -2.0038 -0.3957  1.4487
 1831TIP3    H226985   5.510   6.571  12.904 -0.9365 -0.4766  2.3848
 1832TIP3   OH226986   6.489   5.029   5.092  0.4597 -0.2069 -0.5933
 1832TIP3    H126987   6.410   5.050   5.141  1.2505  0.4622  0.4422
 1832TIP3    H226988   6.555   5.010   5.159  1.1029 -1.0502 -1.4398
 1833TIP3   OH226989   5.254   2.362  11.557  0.1712  0.4004 -0.4893
 1833TIP3    H126990   5.301   2.285  11.525 -1.2336 -0.1683 -1.2937
 1833TIP3    H226991   5.201   2.330  11.629 -0.4240  0.6026 -0.8275
 1834TIP3   OH226992   2.103   6.243   0.809 -0.0432 -0.0895  0.1098
 1834TIP3    H126993   2.136   6.281   0.890  0.8081 -3.4564  1.5052
 1834TIP3    H226994   2.170   6.263   0.744  1.0122 -0.3207  1.1016
 1835TIP3   OH226995   1.602   6.065   1.243 -0.5729  0.4481  0.1931
 1835TIP3    H126996   1.677   6.090   1.189 -0.0995  0.2901  0.7703
 1835TIP3    H226997   1.634   6.068   1.333 -0.5603 -1.9212  0.3255
 1836TIP3   OH226998   0.967   4.115  14.736 -0.4923 -0.4006 -0.5683
 1836TIP3    H126999   0.974   4.095  14.830  0.3917 -0.0461 -0.5509
 1836TIP3    H227000   1.008   4.040  14.693 -1.3292 -0.7941 -0.7046
 1837TIP3   OH227001   1.115   4.666   0.937  0.3840  0.0952  0.4867
 1837TIP3    H127002   1.113   4.760   0.955  0.1045  0.3366 -0.7047
 1837TIP3    H227003   1.176   4.657   0.864  0.5475 -0.6745  0.7102
 1838TIP3   OH227004   2.623   6.768  16.244  0.5637 -0.1522  0.5893
 1838TIP3    H127005   2.681   6.693  16.228  0.5147 -0.1676  0.4834
 1838TIP3    H227006   2.609   6.767  16.339  1.2954  0.2648  0.7093
 1839TIP3   OH227007   5.249   2.206   3.189  0.3949 -0.1025 -0.0099
 1839TIP3    H127008   5.324   2.265   3.183  2.3443 -2.3417  1.0359
 1839TIP3    H227009   5.237   2.191   3.282 -1.5833  0.3924 -0.1269
 1840TIP3   OH227010   3.708   6.415  13.727  0.1787  0.2260 -0.0455
 1840TIP3    H127011   3.702   6.448  13.816 -0.6372  2.9686 -1.0116
 1840TIP3    H227012   3.715   6.320  13.737  2.2663  0.5505  2.9619
 1841TIP3   OH227013   2.974   4.002   0.399 -0.2837 -0.3977  0.4533
 1841TIP3    H127014   2.935   4.080   0.359  0.9209  0.0234  0.0530
 1841TIP3    H227015   3.061   4.031   0.427  0.4097 -1.7416 -0.2297
 1842TIP3   OH227016   4.994   1.630   0.999  0.1948  0.0328 -0.2226
 1842TIP3    H127017   4.914   1.625   1.052  0.4288 -0.7345  0.0743
 1842TIP3    H227018   4.965   1.669   0.916 -1.0161 -2.4525 -1.0644
 1843TIP3   OH227019   4.026   5.530  13.383  0.2079 -0.0042  0.0238
 1843TIP3    H127020   4.006   5.601  13.322  0.5608 -0.6325 -0.8245
 1843TIP3    H227021   3.944   5.480  13.390 -0.0565  0.4933  0.6608
 1844TIP3   OH227022   3.993   0.641  13.486  0.3090  0.1697 -0.6105
 1844TIP3    H127023   4.036   0.723  13.510  0.4259 -0.1499  0.3289
 1844TIP3    H227024   4.060   0.574  13.500 -0.0206 -0.1669 -0.6316
 1845TIP3   OH227025   3.164   1.036  12.366  0.4989 -0.0918 -0.0248
 1845TIP3    H127026   3.088   1.042  12.423  1.5064 -1.9457  1.6023
 1845TIP3    H227027   3.195   1.127  12.358 -2.4594  0.9295 -1.7383
 1846TIP3   OH227028   0.067   0.086   4.540 -0.1794 -0.6770  0.2680
 1846TIP3    H127029   0.003   0.056   4.605 -0.2071  0.3109  0.7238
 1846TIP3    H227030   0.142   0.028   4.551 -0.8797 -1.6711 -0.0774
 1847TIP3   OH227031   2.511   6.489   5.704  0.3510 -0.8446 -0.3377
 1847TIP3    H127032   2.603   6.477   5.682  0.3164 -0.7196 -0.5576
 1847TIP3    H227033   2.468   6.503   5.620  0.5539  1.8892 -0.0969
 1848TIP3   OH227034   4.462   4.136  16.920  0.0318 -0.0051 -0.3389
 1848TIP3    H127035   4.388   4.076  16.916 -1.0039  0.9837  1.9472
 1848TIP3    H227036   4.439   4.206  16.858  0.3939 -1.0266 -1.6626
 1849TIP3   OH227037   1.351   6.702   2.624 -0.1032 -0.3702 -0.1322
 1849TIP3    H127038   1.349   6.642   2.699  0.4525 -0.8329 -0.4845
 1849TIP3    H227039   1.358   6.789   2.664  0.1691 -0.6133  0.3550
 1850TIP3   OH227040   5.581   2.387   4.382  0.2372  0.1551  0.1209
 1850TIP3    H127041   5.661   2.436   4.399  0.4545  0.8915 -2.5874
 1850TIP3    H227042   5.612   2.304   4.346 -0.2230 -0.6576  1.5045
 1851TIP3   OH227043   4.549   3.849  17.150  0.1530 -0.6042 -0.3584
 1851TIP3    H127044   4.514   3.933  17.180 -0.9529 -0.6112 -1.5650
 1851TIP3    H227045   4.598   3.870  17.071  2.7558 -0.6446  1.1170
 1852TIP3   OH227046   3.150   5.895   4.063  0.0131  0.4108  0.9389
 1852TIP3    H127047   3.244   5.891   4.080  0.2585 -0.1877 -0.3969
 1852TIP3    H227048   3.110   5.919   4.147  1.4055  1.3034  1.3695
 1853TIP3   OH227049   1.769   5.777  12.044 -0.4558 -0.0572  0.7293
 1853TIP3    H127050   1.847   5.797  11.992 -0.5454 -1.6568 -0.0860
 1853TIP3    H227051   1.726   5.862  12.057  0.0006  0.4947 -1.1207
 1854TIP3   OH227052   2.379   0.710   2.050 -0.6424  0.1813  0.2418
 1854TIP3    H127053   2.404   0.735   2.138 -0.0879 -1.8514  0.7201
 1854TIP3    H227054   2.453   0.735   1.995 -0.8249  1.0882  0.3985
 1855TIP3   OH227055   2.941   4.216  12.497 -0.0545 -0.5639 -0.1180
 1855TIP3    H127056   3.023   4.265  12.491  0.3001 -1.2762 -1.3783
 1855TIP3    H227057   2.910   4.234  12.586  2.8279 -2.4412  1.4285
 1856TIP3   OH227058   4.755   6.208   1.773  0.0704 -0.4502  0.4664
 1856TIP3    H127059   4.751   6.124   1.819  1.6049 -0.7624  0.0802
 1856TIP3    H227060   4.762   6.184   1.681 -1.0367  0.1454  0.2104
 1857TIP3   OH227061   6.674   0.638  14.099  0.4289  0.1861  0.2679
 1857TIP3    H127062   6.600   0.698  14.085  1.5620  1.2244 -1.7424
 1857TIP3    H227063   6.664   0.572  14.031  0.6495 -0.4324  0.8236
 1858TIP3   OH227064   5.231   4.614  13.358  0.4042  0.4104  0.1580
 1858TIP3    H127065   5.190   4.699  13.374  1.8537  0.8382  1.8608
 1858TIP3    H227066   5.201   4.559  13.430  0.7641 -0.0368 -0.0276
 1859TIP3   OH227067   3.345   1.499   0.222  0.2614 -0.1061 -0.1222
 1859TIP3    H127068   3.311   1.484   0.310  0.4156  0.2852  0.0031
 1859TIP3    H227069   3.437   1.520   0.235 -0.2803  2.6291 -0.1374
 1860TIP3   OH227070   0.756   2.731  11.287 -0.7203 -0.2506  0.5773
 1860TIP3    H127071   0.719   2.700  11.370 -2.3571  0.8191  0.2824
 1860TIP3    H227072   0.686   2.719  11.223  0.1982 -0.1860 -0.4719
 1861TIP3   OH227073   3.612   2.641   2.719 -0.2905  0.3142  0.2017
 1861TIP3    H127074   3.608   2.556   2.763 -0.4571 -0.3572 -1.0756
 1861TIP3    H227075   3.614   2.705   2.791 -2.2236 -0.6592  1.1923
 1862TIP3   OH227076   3.958   5.538   0.656 -0.5435 -0.8670  0.2255
 1862TIP3    H127077   4.033   5.539   0.717 -0.8390 -1.4707  0.6075
 1862TIP3    H227078   3.907   5.615   0.681  0.5922  0.3135 -0.8846
 1863TIP3   OH227079   5.098   2.357  16.902  0.3797  0.1005 -0.1824
 1863TIP3    H127080   5.139   2.381  16.819  0.8549 -0.5016 -0.1255
 1863TIP3    H227081   5.005   2.349  16.881  0.6671 -1.4703 -1.0055
 1864TIP3   OH227082   5.009   3.143  12.204  1.0220 -0.3822  0.1198
 1864TIP3    H127083   5.058   3.186  12.275  1.5376 -0.5122 -0.1560
 1864TIP3    H227084   4.925   3.119  12.244  0.4649  1.3939  0.1483
 1865TIP3   OH227085   6.804   0.842   6.437 -0.4529  0.5849  0.3749
 1865TIP3    H127086   6.867   0.775   6.464 -0.0117  0.8094 -0.0614
 1865TIP3    H227087   6.809   0.909   6.505 -0.7111  0.2895  0.6835
 1866TIP3   OH227088   2.146   4.559   4.060 -0.4301 -0.5809 -0.0370
 1866TIP3    H127089   2.180   4.490   4.002 -0.0492 -1.1270  0.8258
 1866TIP3    H227090   2.091   4.613   4.003  1.3767 -0.0325 -1.3659
 1867TIP3   OH227091   3.320   0.419  16.883 -0.3220 -0.2982 -0.0033
 1867TIP3    H127092   3.279   0.447  16.801  1.8877  0.8371 -0.8076
 1867TIP3    H227093   3.374   0.344  16.858  0.0194 -0.2297  0.5072
 1868TIP3   OH227094   3.495   3.165  14.778 -0.0382 -0.1605  0.3290
 1868TIP3    H127095   3.477   3.127  14.693  0.4920 -0.0168  0.1473
 1868TIP3    H227096   3.452   3.251  14.776  1.6295  0.6953 -0.5551
 1869TIP3   OH227097   2.667   1.084  12.108  0.4583 -0.4306  0.2944
 1869TIP3    H127098   2.623   1.017  12.161  1.3670 -0.4552  1.0500
 1869TIP3    H227099   2.726   1.128  12.169  0.6695  0.3362 -0.4415
 1870TIP3   OH227100   3.898   4.198   0.937  0.4198 -0.1532  0.1600
 1870TIP3    H127101   3.864   4.223   0.851 -0.0784 -1.8737 -0.1725
 1870TIP3    H227102   3.841   4.127   0.967  1.9028 -1.0835  0.9242
 1871TIP3   OH227103   3.946   3.751  13.040  0.2005 -0.3947  0.3688
 1871TIP3    H127104   3.880   3.722  13.104  0.1159  0.8560  0.8880
 1871TIP3    H227105   4.002   3.675  13.027 -0.1485 -0.8732  1.4844
 1872TIP3   OH227106   6.020   3.972   1.379 -0.0378 -0.0511  0.1761
 1872TIP3    H127107   6.080   4.017   1.320 -1.1038  1.3616  0.1017
 1872TIP3    H227108   6.006   3.886   1.338  0.5254  0.2761 -0.7403
 1873TIP3   OH227109   1.627   6.258   0.130  0.5630  0.4284  0.6871
 1873TIP3    H127110   1.574   6.231   0.206  0.0228  1.0099  0.5294
 1873TIP3    H227111   1.633   6.179   0.076 -2.3080  0.8961 -0.5383
 1874TIP3   OH227112   5.906   5.837   1.798  0.3887  0.1931 -0.1488
 1874TIP3    H127113   5.817   5.821   1.766 -0.1505  1.6371  0.5312
 1874TIP3    H227114   5.947   5.751   1.800 -0.7709 -0.4141 -1.1268
 1875TIP3   OH227115   6.377   1.931  15.427 -0.0043 -0.1821 -0.2044
 1875TIP3    H127116   6.425   1.981  15.493 -0.1203 -0.8357  0.3850
 1875TIP3    H227117   6.382   1.985  15.348  2.4754 -0.6138 -0.4248
 1876TIP3   OH227118   6.534   1.124  13.943  0.2100 -0.1134 -1.0165
 1876TIP3    H127119   6.553   1.128  13.849 -1.1377  0.7088 -1.2822
 1876TIP3    H227120   6.444   1.156  13.951  0.1398 -0.5967  0.5143
 1877TIP3   OH227121   5.888   5.099  16.210 -0.1298  0.4597 -0.6711
 1877TIP3    H127122   5.939   5.125  16.133 -1.2130  0.4719 -1.4134
 1877TIP3    H227123   5.798   5.123  16.188 -0.6368 -0.6282  0.1250
 1878TIP3   OH227124   5.034   0.680  17.128  0.3011  0.3291  0.3131
 1878TIP3    H127125   5.063   0.619  17.195  0.9856  0.6017  0.2710
 1878TIP3    H227126   5.086   0.759  17.143  2.3618 -0.4297 -2.0917
 1879TIP3   OH227127   1.219   5.982  12.403 -0.0357 -0.3987 -0.2459
 1879TIP3    H127128   1.185   5.944  12.322 -1.3734  0.2304  0.0025
 1879TIP3    H227129   1.313   5.965  12.399  0.2362  1.1695 -2.7902
 1880TIP3   OH227130   0.087   3.375   0.846  0.3722 -0.1666 -0.3289
 1880TIP3    H127131   0.037   3.444   0.801  0.2974  1.4631  2.0709
 1880TIP3    H227132   0.071   3.296   0.794  1.0335  1.6865 -3.6193
 1881TIP3   OH227133   2.509   1.345   1.907  0.2779 -0.6633  0.1117
 1881TIP3    H127134   2.535   1.272   1.963  1.0496  0.6202  1.4964
 1881TIP3    H227135   2.461   1.404   1.965  2.1112  1.2782 -0.2301
 1882TIP3   OH227136   3.728   6.747   0.498  1.0422 -0.4679  0.2400
 1882TIP3    H127137   3.785   6.811   0.539 -0.5834  1.2684 -0.0491
 1882TIP3    H227138   3.675   6.713   0.570  2.1076 -1.7788  0.4437
 1883TIP3   OH227139   3.606   6.545  15.809 -0.2252 -0.4011 -0.6346
 1883TIP3    H127140   3.625   6.634  15.779 -3.4283  0.2490 -1.0742
 1883TIP3    H227141   3.585   6.555  15.902 -0.8081 -0.6441 -0.7362
 1884TIP3   OH227142   4.239   6.745  13.716 -0.3467 -0.1052 -0.0504
 1884TIP3    H127143   4.179   6.808  13.675  0.0464 -1.7341 -3.4640
 1884TIP3    H227144   4.184   6.698  13.778 -1.4454  1.3877  0.1873
 1885TIP3   OH227145   0.452   2.231  15.961 -0.8707  0.0492  0.6792
 1885TIP3    H127146   0.453   2.140  15.930 -1.3816  0.1061  0.4834
 1885TIP3    H227147   0.424   2.282  15.885  0.4019  0.5018  0.4884
 1886TIP3   OH227148   2.690   6.034   3.683  0.4846  0.2809 -0.0025
 1886TIP3    H127149   2.690   5.938   3.689 -2.7121  0.1952  0.6562
 1886TIP3    H227150   2.673   6.052   3.590 -1.9983  0.0256  0.3300
 1887TIP3   OH227151   6.083   2.937   4.702  0.1513 -0.4862  0.4942
 1887TIP3    H127152   6.148   3.005   4.721  0.1280 -0.2475 -0.2748
 1887TIP3    H227153   6.110   2.863   4.757  0.2589  0.0879  1.2320
 1888TIP3   OH227154   2.066   6.302   0.089 -0.0047  0.2137  0.6841
 1888TIP3    H127155   2.028   6.380   0.049  0.5692  0.7072  1.0905
 1888TIP3    H227156   2.002   6.274   0.154 -0.3818  0.1198  0.2806
 1889TIP3   OH227157   1.560   4.109  12.416 -0.2889 -0.1135 -0.2088
 1889TIP3    H127158   1.634   4.168  12.429 -1.5678  1.6237 -0.4413
 1889TIP3    H227159   1.496   4.136  12.482 -1.1074 -0.9067 -0.6524
 1890TIP3   OH227160   1.553   5.484   3.507 -0.1353  0.2515  0.8570
 1890TIP3    H127161   1.571   5.399   3.549  0.0033 -0.3374 -0.3623
 1890TIP3    H227162   1.575   5.548   3.575  2.4446 -0.5727  0.9162
 1891TIP3   OH227163   6.772   5.850   6.560 -0.3781  0.4934  0.0919
 1891TIP3    H127164   6.753   5.944   6.559 -2.4999  0.0982 -0.3863
 1891TIP3    H227165   6.772   5.826   6.653  0.9124  1.0618  0.2666
 1892TIP3   OH227166   2.146   6.193  16.262 -0.5896 -0.1616  0.5021
 1892TIP3    H127167   2.215   6.134  16.292  0.6186  1.4206  0.9626
 1892TIP3    H227168   2.161   6.275  16.310 -2.4356  0.4241  0.1733
 1893TIP3   OH227169   1.636   3.466   6.061  0.2774 -0.0577 -0.2586
 1893TIP3    H127170   1.555   3.515   6.076  0.5421  0.2565  0.1727
 1893TIP3    H227171   1.698   3.504   6.124  0.4595 -1.0200  0.1542
 1894TIP3   OH227172   6.645   4.764  14.749 -0.4345 -0.0438 -0.0597
 1894TIP3    H127173   6.731   4.731  14.722 -0.2649  0.8472 -0.6640
 1894TIP3    H227174   6.664   4.852  14.784 -1.0111 -0.1262  0.4836
 1895TIP3   OH227175   5.933   1.114  12.346  0.5145  0.2827  0.2091
 1895TIP3    H127176   5.879   1.171  12.291  0.9248  0.7079  0.2361
 1895TIP3    H227177   5.881   1.035  12.357 -0.4945  1.0288  0.9739
 1896TIP3   OH227178   4.895   5.438  13.202 -0.2095  0.1068 -0.2135
 1896TIP3    H127179   4.894   5.485  13.119 -0.4168 -1.2024 -0.9759
 1896TIP3    H227180   4.803   5.416  13.218 -0.0905 -0.2132  0.0365
 1897TIP3   OH227181   2.035   0.695   5.346 -0.1872 -0.8821 -0.0865
 1897TIP3    H127182   2.027   0.790   5.357 -0.4881 -0.7478 -1.3314
 1897TIP3    H227183   2.046   0.662   5.435 -1.8055  0.1483  0.5537
 1898TIP3   OH227184   0.669   2.354  16.481  0.0208  0.4911 -0.4485
 1898TIP3    H127185   0.646   2.280  16.538 -2.3748  3.3261  2.6830
 1898TIP3    H227186   0.621   2.337  16.400 -2.0193 -0.5610  0.8882
 1899TIP3   OH227187   2.552   5.540   3.134  0.0032  0.1053  0.5783
 1899TIP3    H127188   2.528   5.467   3.190 -0.6365 -1.1703 -1.2530
 1899TIP3    H227189   2.474   5.556   3.080  0.7165  0.9916 -0.2321
 1900TIP3   OH227190   3.083   4.322   1.692 -0.4788  0.0165  0.1595
 1900TIP3    H127191   3.104   4.242   1.740 -1.0775  0.4267  1.1418
 1900TIP3    H227192   3.093   4.299   1.600  1.9049 -0.4779  0.4730
 1901TIP3   OH227193   0.515   1.911  13.640 -0.7047  0.9373 -0.1743
 1901TIP3    H127194   0.590   1.886  13.695 -0.7460 -0.2183 -0.6062
 1901TIP3    H227195   0.528   1.864  13.558 -2.7629 -0.7268  0.3469
 1902TIP3   OH227196   3.086   6.187   4.121 -0.2208  0.1923  0.1577
 1902TIP3    H127197   3.010   6.163   4.173 -0.0048  1.5567  1.1654
 1902TIP3    H227198   3.119   6.104   4.087 -0.0521 -0.8565  2.6845
 1903TIP3   OH227199   4.026   2.792  13.644  0.4244  0.2899  0.8546
 1903TIP3    H127200   4.029   2.840  13.726  1.0122  2.2609 -0.2449
 1903TIP3    H227201   4.109   2.743  13.641 -0.9566 -2.3922  2.8093
 1904TIP3   OH227202   5.432   3.381  15.790  0.3271  0.2169 -0.1500
 1904TIP3    H127203   5.446   3.290  15.764 -0.3283  0.0355  0.1260
 1904TIP3    H227204   5.401   3.423  15.710  0.8066  0.2481 -0.3268
 1905TIP3   OH227205   1.676   2.692  17.049 -0.7918  0.3260 -0.1180
 1905TIP3    H127206   1.674   2.599  17.028 -0.3398 -0.1817  1.8785
 1905TIP3    H227207   1.645   2.735  16.970 -1.0170 -1.5150 -1.0849
 1906TIP3   OH227208   4.131   0.997  11.291 -0.4482 -0.2142 -0.0583
 1906TIP3    H127209   4.220   0.965  11.301  0.2723  1.5764 -0.4221
 1906TIP3    H227210   4.137   1.063  11.222 -1.3655  2.3654  2.1478
 1907TIP3   OH227211   2.687   2.160  13.232 -0.4130 -0.7363 -0.3074
 1907TIP3    H127212   2.656   2.117  13.153  0.0247 -1.1511 -0.2554
 1907TIP3    H227213   2.667   2.253  13.218  1.8486 -0.4297 -1.9867
 1908TIP3   OH227214   4.597   1.357  15.179 -0.0524  0.1909  0.1424
 1908TIP3    H127215   4.654   1.326  15.109  1.1527 -0.8848  1.5093
 1908TIP3    H227216   4.657   1.386  15.248 -1.1690  0.5370  1.0057
 1909TIP3   OH227217   4.855   6.846  15.740 -0.2022 -0.2629 -0.5457
 1909TIP3    H127218   4.889   6.766  15.700  0.0597  0.5795 -2.0723
 1909TIP3    H227219   4.906   6.856  15.821 -0.1143 -1.5250 -0.4239
 1910TIP3   OH227220   0.854   5.117   6.265  0.1243  0.4723  0.2955
 1910TIP3    H127221   0.821   5.031   6.293 -0.7207  0.6784 -0.0320
 1910TIP3    H227222   0.801   5.180   6.313  0.5476  0.8143  0.3141
 1911TIP3   OH227223   6.504   6.700   5.113  0.0736  0.0573  0.1884
 1911TIP3    H127224   6.483   6.659   5.028 -0.0336 -1.5793  0.9698
 1911TIP3    H227225   6.422   6.696   5.162  0.8160 -1.6011  1.3687
 1912TIP3   OH227226   1.626   3.579  12.661 -0.0612  0.5691  0.0530
 1912TIP3    H127227   1.642   3.495  12.618 -0.5832  0.0203  0.9159
 1912TIP3    H227228   1.705   3.630  12.644 -0.3290  0.4511 -1.7345
 1913TIP3   OH227229   4.748   3.462   6.243 -0.4571 -0.6916  0.2840
 1913TIP3    H127230   4.741   3.367   6.233 -2.4608 -0.5800  0.1285
 1913TIP3    H227231   4.703   3.481   6.326  0.0446  0.1035  0.3865
 1914TIP3   OH227232   3.384   1.751   1.881 -0.0679 -0.3844  0.3927
 1914TIP3    H127233   3.359   1.721   1.968  0.3106 -0.9924  0.3005
 1914TIP3    H227234   3.311   1.806   1.852  0.8401  1.8165  2.0473
 1915TIP3   OH227235   2.290   6.100  14.672 -0.5773 -0.8182  0.1356
 1915TIP3    H127236   2.334   6.177  14.709 -0.0201 -2.1322  2.4412
 1915TIP3    H227237   2.325   6.091  14.584  0.3244  0.7932  0.2940
 1916TIP3   OH227238   2.805   3.242  15.353 -0.4895  0.2553  0.6732
 1916TIP3    H127239   2.800   3.147  15.366  0.6104  0.3097  1.7920
 1916TIP3    H227240   2.880   3.254  15.295 -0.8620  0.4184  0.2276
 1917TIP3   OH227241   3.355   1.840   0.544  0.8376 -0.4400 -0.0841
 1917TIP3    H127242   3.411   1.825   0.469  1.2141 -0.3047  0.1682
 1917TIP3    H227243   3.267   1.849   0.507  1.2871  1.9543 -0.7758
 1918TIP3   OH227244   6.429   3.922  10.986  0.5516  0.0153  0.2582
 1918TIP3    H127245   6.468   3.988  10.929 -1.0356 -0.8275 -1.9543
 1918TIP3    H227246   6.340   3.912  10.953 -0.3943 -0.6973  2.8202
 1919TIP3   OH227247   6.115   5.294   4.358  0.1131 -0.7573 -0.4390
 1919TIP3    H127248   6.161   5.333   4.284 -0.6447  1.1524  0.0182
 1919TIP3    H227249   6.123   5.359   4.428 -1.2276 -1.4377  0.3966
 1920TIP3   OH227250   5.110   5.425  12.555 -0.2548  0.3314 -0.0059
 1920TIP3    H127251   5.142   5.515  12.555 -0.3071  0.3559 -1.0812
 1920TIP3    H227252   5.059   5.417  12.474 -0.2704 -0.6598  0.0867
 1921TIP3   OH227253   2.153   0.437  12.485 -0.0471  0.3533 -0.1109
 1921TIP3    H127254   2.163   0.422  12.391 -0.2685  2.7771 -0.5962
 1921TIP3    H227255   2.064   0.408  12.505 -0.8855  1.9968 -1.2231
 1922TIP3   OH227256   5.925   0.767   5.410 -0.0318  0.1693 -0.1795
 1922TIP3    H127257   5.928   0.810   5.495 -0.0742 -0.4402  0.1319
 1922TIP3    H227258   5.847   0.713   5.413 -0.1643  0.3188 -0.6975
 1923TIP3   OH227259   6.738   2.651  11.764 -0.7015 -0.2312 -0.3541
 1923TIP3    H127260   6.832   2.646  11.746 -1.1540 -1.2661 -2.6911
 1923TIP3    H227261   6.733   2.659  11.860  1.7496  0.2506 -0.1904
 1924TIP3   OH227262   5.568   3.465   1.769 -0.0845 -0.1366  0.9864
 1924TIP3    H127263   5.490   3.480   1.716  0.3316 -0.3883  0.2956
 1924TIP3    H227264   5.639   3.454   1.706  0.9329  2.2149  1.5864
 1925TIP3   OH227265   5.379   0.688   2.642 -0.0058 -0.6213 -0.1252
 1925TIP3    H127266   5.444   0.695   2.573 -0.4994 -0.9071 -0.6341
 1925TIP3    H227267   5.395   0.602   2.682  0.9172 -0.0410  0.7888
 1926TIP3   OH227268   6.489   0.722  16.555  0.2760  0.0187 -1.2142
 1926TIP3    H127269   6.566   0.695  16.605 -1.8529 -0.2257  2.2628
 1926TIP3    H227270   6.507   0.813  16.531  1.9916 -0.3153 -1.3695
 1927TIP3   OH227271   2.499   2.487   2.369 -0.4555 -0.0534  0.8020
 1927TIP3    H127272   2.568   2.454   2.427 -0.0905  0.0685  0.4460
 1927TIP3    H227273   2.515   2.581   2.362 -0.4986 -0.0638  0.5148
 1928TIP3   OH227274   5.929   3.449  10.550  0.3480 -0.3058  0.1732
 1928TIP3    H127275   5.908   3.385  10.482  1.6288 -0.4548 -0.1211
 1928TIP3    H227276   5.863   3.517  10.541  0.3903 -0.4125 -1.1276
 1929TIP3   OH227277   6.213   0.160  13.293  0.6822  0.2982 -0.6475
 1929TIP3    H127278   6.152   0.224  13.329  1.6774  0.6723  0.4254
 1929TIP3    H227279   6.165   0.077  13.297  0.5888  0.3934  1.2245
 1930TIP3   OH227280   2.366   2.236  16.492  0.3795  0.8983 -0.0924
 1930TIP3    H127281   2.391   2.198  16.577 -2.1508 -0.2792  0.2222
 1930TIP3    H227282   2.424   2.193  16.429  0.9833  0.3031  0.8454
 1931TIP3   OH227283   6.368   1.355   5.277 -0.4786 -0.3712  0.1814
 1931TIP3    H127284   6.288   1.307   5.297 -0.8475  0.3636  0.4898
 1931TIP3    H227285   6.394   1.323   5.190 -1.7147  0.1796 -0.4139
 1932TIP3   OH227286   5.493   1.707  13.198  0.7145  0.5003  0.3626
 1932TIP3    H127287   5.449   1.764  13.261  1.3844 -0.6585  1.9608
 1932TIP3    H227288   5.533   1.639  13.252  0.6370 -1.0250 -1.3919
 1933TIP3   OH227289   4.594   0.243  14.056 -0.1698 -0.3538  0.4771
 1933TIP3    H127290   4.675   0.264  14.101  0.0503 -0.3206  0.0724
 1933TIP3    H227291   4.621   0.187  13.983 -0.3060  0.9879 -0.6387
 1934TIP3   OH227292   5.381   2.878  10.625  0.1289  0.3606 -1.0338
 1934TIP3    H127293   5.458   2.912  10.670 -0.2727 -0.5263  0.3937
 1934TIP3    H227294   5.414   2.845  10.541  1.2936  0.0442 -0.4663
 1935TIP3   OH227295   6.409   6.102   5.358 -0.1325  0.2959 -0.3822
 1935TIP3    H127296   6.325   6.075   5.322 -0.5635  1.2144 -0.0913
 1935TIP3    H227297   6.415   6.056   5.441 -1.0787  1.3844  0.3333
 1936TIP3   OH227298   0.422   5.798   4.582 -0.0459 -0.3960  0.1425
 1936TIP3    H127299   0.469   5.846   4.650  0.6036 -1.8562  0.7784
 1936TIP3    H227300   0.444   5.843   4.501  1.1316 -0.0627  0.6273
 1937TIP3   OH227301   6.086   4.035  14.572 -0.6663 -0.4390  0.6384
 1937TIP3    H127302   6.170   4.037  14.618 -0.2320 -1.4153 -0.0814
 1937TIP3    H227303   6.108   4.052  14.481 -1.3838  0.2904  0.5895
 1938TIP3   OH227304   1.292   5.740  16.827 -0.2677  0.5448  0.0596
 1938TIP3    H127305   1.205   5.779  16.842 -0.5095  0.2973 -0.6586
 1938TIP3    H227306   1.330   5.793  16.757  0.3081  0.8595  0.5957
 1939TIP3   OH227307   3.735   4.928  16.014  0.1009  0.0543  0.3909
 1939TIP3    H127308   3.685   4.919  15.933 -0.4012 -1.3209  0.8257
 1939TIP3    H227309   3.773   5.016  16.009 -1.0368  0.5143 -0.6929
 1940TIP3   OH227310   4.192   6.510  15.339 -0.1121 -0.2779 -0.4077
 1940TIP3    H127311   4.153   6.489  15.254 -0.4463 -0.7791 -0.1402
 1940TIP3    H227312   4.149   6.450  15.400 -0.1601  0.3406  0.1798
 1941TIP3   OH227313   4.629   4.087   4.366 -0.3857 -0.1337 -0.2742
 1941TIP3    H127314   4.567   4.152   4.398 -0.2008 -0.8153  1.5828
 1941TIP3    H227315   4.575   4.009   4.348 -0.2278 -0.3701  0.2646
 1942TIP3   OH227316   0.141   0.638  11.439 -0.1816 -0.4856  0.1160
 1942TIP3    H127317   0.172   0.725  11.465  0.2947 -0.3947 -0.7009
 1942TIP3    H227318   0.168   0.630  11.347 -0.8999 -1.1917 -0.0407
 1943TIP3   OH227319   2.444   5.156   1.539  0.2832 -0.4137 -0.7332
 1943TIP3    H127320   2.491   5.143   1.621  0.9915  2.1999 -0.6342
 1943TIP3    H227321   2.372   5.093   1.542  1.9665 -2.4139  0.5083
 1944TIP3   OH227322   2.699   5.199  15.556  0.3191  0.0251  0.4875
 1944TIP3    H127323   2.762   5.162  15.618 -0.7891  1.9930  2.9536
 1944TIP3    H227324   2.751   5.216  15.478  1.9504 -1.9201  1.0348
 1945TIP3   OH227325   2.639   6.139  16.832 -0.7627  0.1033 -0.1234
 1945TIP3    H127326   2.603   6.110  16.748 -1.4743  1.6324 -0.3871
 1945TIP3    H227327   2.668   6.059  16.875  1.6105 -0.5710 -2.7031
 1946TIP3   OH227328   2.070   5.579   5.321  0.0736  0.4121 -0.5119
 1946TIP3    H127329   2.143   5.518   5.323 -2.5540 -3.1520 -2.4780
 1946TIP3    H227330   2.041   5.585   5.412  0.1265 -1.7496 -0.3001
 1947TIP3   OH227331   6.147   0.757   4.647 -0.2186 -0.6303  0.2393
 1947TIP3    H127332   6.195   0.791   4.723  0.4264 -0.4636 -0.2313
 1947TIP3    H227333   6.213   0.752   4.578 -0.5486 -1.8156 -0.0138
 1948TIP3   OH227334   4.148   3.000  14.332 -0.1084 -0.3034  0.3760
 1948TIP3    H127335   4.065   2.980  14.376 -0.5802 -0.0817 -0.4079
 1948TIP3    H227336   4.127   3.001  14.239  1.0523 -1.5695  0.0645
 1949TIP3   OH227337   2.151   0.578   3.822 -0.1734 -0.3009 -0.2850
 1949TIP3    H127338   2.067   0.536   3.839 -0.1041 -0.1678  0.4196
 1949TIP3    H227339   2.129   0.667   3.795 -0.3251 -0.7899 -1.8664
 1950TIP3   OH227340   6.272   0.066   2.651  0.0696  0.3202  0.0899
 1950TIP3    H127341   6.184   0.103   2.654 -0.1546 -0.2431  0.5437
 1950TIP3    H227342   6.315   0.099   2.730 -0.1621 -0.4521  0.5457
 1951TIP3   OH227343   3.292   6.388  12.733  0.8900 -0.3972  0.2297
 1951TIP3    H127344   3.358   6.451  12.704 -0.0035 -0.3529 -1.7982
 1951TIP3    H227345   3.211   6.438  12.739  0.7926 -0.6777  1.7288
 1952TIP3   OH227346   0.149   3.302  16.816  0.3079 -0.3854 -0.2224
 1952TIP3    H127347   0.157   3.228  16.876  0.1634  1.2005  1.8584
 1952TIP3    H227348   0.210   3.281  16.744 -0.1110 -2.7195  0.0054
 1953TIP3   OH227349   0.193   5.330  11.318  0.1057 -0.3431 -0.5692
 1953TIP3    H127350   0.107   5.309  11.354  1.5294 -1.7987  2.3977
 1953TIP3    H227351   0.197   5.426  11.321 -0.6387 -0.3110  1.5187
 1954TIP3   OH227352   4.244   3.575   3.137  0.2485  0.0735  0.0610
 1954TIP3    H127353   4.333   3.548   3.113 -0.8840 -3.3252 -0.8745
 1954TIP3    H227354   4.241   3.565   3.232  1.0137  0.7746  0.1694
 1955TIP3   OH227355   0.849   3.751   0.748 -0.6514 -0.7093  0.2977
 1955TIP3    H127356   0.854   3.733   0.842  1.1436 -2.8903 -0.1142
 1955TIP3    H227357   0.902   3.831   0.737 -0.5664 -0.6415  1.0967
 1956TIP3   OH227358   2.715   3.009  15.505 -0.2681 -0.0426 -0.0820
 1956TIP3    H127359   2.632   2.962  15.496 -0.0971 -0.3498 -0.0324
 1956TIP3    H227360   2.729   3.013  15.600 -0.0427 -0.3001 -0.1075
 1957TIP3   OH227361   2.184   4.878   3.936 -0.9907 -0.1405  0.4151
 1957TIP3    H127362   2.092   4.874   3.961 -0.7233  1.2207  1.7285
 1957TIP3    H227363   2.221   4.796   3.968 -1.6252 -0.4664  0.3344
 1958TIP3   OH227364   4.913   5.843  15.745  0.1460  0.2245  0.0237
 1958TIP3    H127365   4.881   5.854  15.655  0.9996 -1.3159 -0.5133
 1958TIP3    H227366   5.005   5.867  15.740 -0.1325  1.5250  0.8350
 1959TIP3   OH227367   2.581   3.092  11.040 -0.0115 -0.1536 -0.4215
 1959TIP3    H127368   2.563   3.125  11.128  1.0502  0.4566 -0.4057
 1959TIP3    H227369   2.620   3.167  10.994 -1.0360 -0.3001 -1.5852
 1960TIP3   OH227370   4.960   2.657   4.040 -0.0512  0.3340 -0.4364
 1960TIP3    H127371   4.968   2.652   4.135 -1.3706  0.1686 -0.3177
 1960TIP3    H227372   4.921   2.574   4.014 -1.0198  0.9346 -0.9615
 1961TIP3   OH227373   1.449   6.547   4.621  0.6316  0.3011 -0.8687
 1961TIP3    H127374   1.458   6.455   4.597  0.3735 -0.3150  1.2032
 1961TIP3    H227375   1.511   6.559   4.692 -0.5476  1.2709  0.0271
 1962TIP3   OH227376   4.811   6.314  11.705  0.0457 -0.0685 -0.0546
 1962TIP3    H127377   4.896   6.298  11.746 -0.6938 -0.5115  1.3578
 1962TIP3    H227378   4.766   6.230  11.709 -0.2751  0.0340 -1.2672
 1963TIP3   OH227379   1.255   6.644   1.360  0.4934  0.1057 -0.4556
 1963TIP3    H127380   1.311   6.702   1.307  0.3208 -1.6270 -2.6853
 1963TIP3    H227381   1.183   6.621   1.301 -0.1090 -1.3790  0.8064
 1964TIP3   OH227382   1.010   0.313   1.144  0.5309 -0.4520  0.4542
 1964TIP3    H127383   0.992   0.252   1.216  1.7134 -0.3469  0.8721
 1964TIP3    H227384   1.051   0.388   1.187  2.9474 -1.1321 -0.4692
 1965TIP3   OH227385   0.346   3.656  14.782 -0.1496  0.2597 -0.7109
 1965TIP3    H127386   0.407   3.717  14.739  0.1842 -0.4076 -1.1930
 1965TIP3    H227387   0.305   3.608  14.710 -0.7667  0.2344 -0.3565
 1966TIP3   OH227388   0.798   5.564  13.243 -0.1771  0.0848  0.3225
 1966TIP3    H127389   0.716   5.542  13.199  0.3908 -2.2227  0.2753
 1966TIP3    H227390   0.828   5.481  13.281  1.5385  1.1107  1.3658
 1967TIP3   OH227391   4.688   6.451  14.143  0.6675  0.0946 -0.2979
 1967TIP3    H127392   4.784   6.450  14.136  0.7023 -0.9117  0.2262
 1967TIP3    H227393   4.671   6.454  14.237  0.1732  0.7357 -0.4005
 1968TIP3   OH227394   0.395   2.792  11.335  0.3370 -0.4044 -0.5409
 1968TIP3    H127395   0.412   2.886  11.341 -2.8144  0.2091  0.2025
 1968TIP3    H227396   0.442   2.754  11.409  1.2851  0.6159 -0.6014
 1969TIP3   OH227397   5.808   4.203  14.692  0.0315 -0.1680  0.4184
 1969TIP3    H127398   5.885   4.215  14.746 -0.9158 -1.9139  2.3189
 1969TIP3    H227399   5.804   4.108  14.676 -1.9465 -0.2071  0.8139
 1970TIP3   OH227400   4.603   4.874   4.623 -0.1365 -0.0221  0.2714
 1970TIP3    H127401   4.597   4.795   4.677 -0.3377 -0.6823 -0.6961
 1970TIP3    H227402   4.659   4.849   4.550 -0.7659  0.5179 -0.4078
 1971TIP3   OH227403   2.630   3.639  11.766  0.0132 -0.0890 -0.4656
 1971TIP3    H127404   2.666   3.632  11.854  0.8762 -0.5992 -0.8516
 1971TIP3    H227405   2.703   3.618  11.708 -0.7763 -0.6782 -1.2740
 1972TIP3   OH227406   3.956   1.401  12.227  0.3230  0.0320  0.5155
 1972TIP3    H127407   4.019   1.337  12.192  0.1473 -0.6051  1.3305
 1972TIP3    H227408   4.003   1.445  12.298  0.6030  1.1666 -0.3456
 1973TIP3   OH227409   5.737   2.137   2.249  0.2081 -0.1893  0.1126
 1973TIP3    H127410   5.762   2.208   2.309 -1.5464  0.4488  0.1435
 1973TIP3    H227411   5.766   2.168   2.163 -2.1577  1.4808 -0.1581
 1974TIP3   OH227412   6.588   6.256   1.514  0.3423  0.2307 -0.3937
 1974TIP3    H127413   6.626   6.209   1.588  0.2356  1.0185  0.1760
 1974TIP3    H227414   6.585   6.191   1.443 -0.6058 -0.8653  0.6108
 1975TIP3   OH227415   0.666   3.549   5.966 -0.2121 -0.1413 -0.2098
 1975TIP3    H127416   0.592   3.586   6.015  0.8665  1.0057  0.5976
 1975TIP3    H227417   0.662   3.455   5.982 -0.1749  0.1529  1.6886
 1976TIP3   OH227418   0.607   0.407  14.116 -0.0991 -0.1186 -0.0193
 1976TIP3    H127419   0.693   0.409  14.073  0.0475 -1.3173  0.1678
 1976TIP3    H227420   0.548   0.372  14.049 -0.6873  1.6777 -0.4955
 1977TIP3   OH227421   1.501   3.226  13.690  0.7233 -0.1869 -0.2920
 1977TIP3    H127422   1.581   3.186  13.724  0.0043  0.0682  1.8486
 1977TIP3    H227423   1.504   3.208  13.596  3.8875  0.8680 -0.5386
 1978TIP3   OH227424   0.932   0.932   2.860 -0.5016 -0.2278  0.2855
 1978TIP3    H127425   0.965   0.903   2.945 -0.8252 -0.7447  0.2387
 1978TIP3    H227426   0.887   0.856   2.824  0.4788 -0.3396 -0.7960
 1979TIP3   OH227427   6.554   6.022   2.279  0.3099  0.1176  0.2794
 1979TIP3    H127428   6.541   6.000   2.187 -0.2400  2.1426 -0.1763
 1979TIP3    H227429   6.497   5.962   2.327  1.3987 -1.6791 -0.5879
 1980TIP3   OH227430   4.417   3.074   4.340  0.6116 -0.5205  0.4901
 1980TIP3    H127431   4.380   3.162   4.343 -0.8897 -1.0578 -1.0988
 1980TIP3    H227432   4.510   3.088   4.321  0.0397  0.6947 -1.6705
 1981TIP3   OH227433   1.529   4.429   1.443  0.4726  0.3278 -0.2882
 1981TIP3    H127434   1.621   4.425   1.467  0.2511 -0.6476  0.4357
 1981TIP3    H227435   1.504   4.339   1.424 -0.4916  0.4780  0.1683
 1982TIP3   OH227436   3.516   3.853   3.941 -0.0739  0.2378 -0.0962
 1982TIP3    H127437   3.526   3.759   3.958  0.6271  0.1047 -1.1860
 1982TIP3    H227438   3.423   3.869   3.954 -0.0218 -0.3604  1.2631
 1983TIP3   OH227439   2.621   3.331   4.048 -0.1556 -0.8382  0.5935
 1983TIP3    H127440   2.660   3.417   4.067 -2.0045 -0.0895  1.2352
 1983TIP3    H227441   2.566   3.347   3.971 -1.2551 -1.1884  1.2834
 1984TIP3   OH227442   4.173   1.170  17.195  0.0864  0.4697  0.4729
 1984TIP3    H127443   4.121   1.177  17.275  0.1191  0.8232  0.4659
 1984TIP3    H227444   4.225   1.250  17.193  2.3007 -0.8472  1.6320
 1985TIP3   OH227445   2.713   2.096  15.231 -0.0785  0.0064  0.6096
 1985TIP3    H127446   2.749   2.065  15.147  0.5724  0.4706  0.7169
 1985TIP3    H227447   2.740   2.029  15.294  2.1772  1.2347  1.0234
 1986TIP3   OH227448   4.828   4.221  12.259 -0.1498  0.7540  0.4572
 1986TIP3    H127449   4.904   4.258  12.304 -0.9979  0.6184  2.0835
 1986TIP3    H227450   4.823   4.268  12.176  2.4295 -0.1141 -0.2634
 1987TIP3   OH227451   5.651   1.397  12.549  0.0503 -0.6941  0.7551
 1987TIP3    H127452   5.746   1.394  12.536  0.0159 -1.2288  0.5950
 1987TIP3    H227453   5.615   1.395  12.460 -0.1624 -3.2116  0.8048
 1988TIP3   OH227454   5.032   5.612   2.106 -0.3584 -0.4428  0.1755
 1988TIP3    H127455   5.047   5.686   2.165  1.0102 -0.7767  0.2735
 1988TIP3    H227456   5.090   5.543   2.139  1.2109 -0.3095 -2.1153
 1989TIP3   OH227457   1.702   6.671   1.130 -0.3001  0.6288 -0.4971
 1989TIP3    H127458   1.736   6.722   1.056 -1.0135  0.1703 -1.1617
 1989TIP3    H227459   1.778   6.659   1.187 -0.2179  2.8589 -0.0339
 1990TIP3   OH227460   1.245   2.377  14.749  0.3772 -0.1737  1.4397
 1990TIP3    H127461   1.297   2.305  14.784 -0.2342 -0.6733  1.3305
 1990TIP3    H227462   1.202   2.340  14.672 -1.5103 -0.3078  2.5012
 1991TIP3   OH227463   1.061   0.059  13.761 -0.2802  0.2182 -0.3750
 1991TIP3    H127464   1.121   0.054  13.836 -1.4466  2.5808  0.8490
 1991TIP3    H227465   1.040  -0.032  13.741  3.0985 -0.6718 -0.4283
 1992TIP3   OH227466   4.312   1.796   5.336  0.2289  0.2592 -0.7095
 1992TIP3    H127467   4.218   1.780   5.327  0.3379 -0.6181 -0.4081
 1992TIP3    H227468   4.352   1.740   5.269  0.6106 -0.5224  0.1467
 1993TIP3   OH227469   5.009   0.529  12.181 -0.1344 -0.5209  0.1147
 1993TIP3    H127470   5.052   0.527  12.266  0.8651  0.7255 -0.3394
 1993TIP3    H227471   5.073   0.491  12.121 -0.4048 -0.3706 -0.2727
 1994TIP3   OH227472   3.180   1.930  15.378 -0.2519 -0.4835  0.5137
 1994TIP3    H127473   3.195   1.913  15.285  0.6022  3.2397 -0.1758
 1994TIP3    H227474   3.251   1.884  15.423  1.5626  0.5982 -1.0708
 1995TIP3   OH227475   3.606   2.671   1.289 -0.0003 -0.6823  0.5108
 1995TIP3    H127476   3.621   2.621   1.209 -0.5143  1.7554 -1.2095
 1995TIP3    H227477   3.513   2.661   1.307  0.3111 -2.1137  1.4932
 1996TIP3   OH227478   1.755   6.463   1.623 -0.1627 -0.2347 -0.1000
 1996TIP3    H127479   1.832   6.519   1.620 -0.7033  0.6585  1.5992
 1996TIP3    H227480   1.711   6.477   1.539 -0.0293  1.5574  0.1041
 1997TIP3   OH227481   3.577   5.455  13.231  0.0990 -0.4040 -0.7090
 1997TIP3    H127482   3.627   5.537  13.227 -0.0719 -0.3039 -0.8371
 1997TIP3    H227483   3.552   5.439  13.140  1.6091 -1.5265 -0.9686
 1998TIP3   OH227484   4.011   5.039   3.549  0.6167  0.2697 -0.2783
 1998TIP3    H127485   4.034   5.114   3.604  0.8132  0.7186 -0.9566
 1998TIP3    H227486   3.915   5.041   3.544  0.5830  0.0799  0.2418
 1999TIP3   OH227487   1.622   6.160  14.677  0.2019  0.4693  0.0553
 1999TIP3    H127488   1.642   6.185  14.767 -0.1091  0.7747  0.0408
 1999TIP3    H227489   1.539   6.113  14.683 -0.1901  1.1216 -0.1583
 2000TIP3   OH227490   4.923   6.740   0.283  0.6395  0.1268  0.2404
 2000TIP3    H127491   4.949   6.650   0.301 -0.4073 -0.3263 -0.4179
 2000TIP3    H227492   4.854   6.733   0.218  0.3108  1.3975  0.4148
 2001TIP3   OH227493   3.674   4.456  16.586  0.5485 -0.2585 -0.2411
 2001TIP3    H127494   3.759   4.413  16.595  1.4147  1.4197 -0.0442
 2001TIP3    H227495   3.653   4.488  16.674 -1.2729 -2.3336  0.1629
 2002TIP3   OH227496   5.782   5.691  11.062  0.3575 -0.3703 -0.1227
 2002TIP3    H127497   5.775   5.786  11.068  2.2913 -0.1477 -0.7657
 2002TIP3    H227498   5.774   5.672  10.968 -0.4798 -0.9037  0.0443
 2003TIP3   OH227499   1.577   2.691  11.056 -0.0490 -0.0132 -0.3096
 2003TIP3    H127500   1.644   2.727  10.998  0.6622  0.9586  1.0661
 2003TIP3    H227501   1.610   2.604  11.081  0.2209  0.0607 -0.4113
 2004TIP3   OH227502   4.746   3.085   3.977 -0.2256 -0.3670  0.1363
 2004TIP3    H127503   4.747   3.130   4.061 -0.7330 -0.4484  0.1875
 2004TIP3    H227504   4.838   3.083   3.949  0.5274 -3.3235  2.2670
 2005TIP3   OH227505   1.116   5.129  13.264 -0.2662 -0.0726 -0.6464
 2005TIP3    H127506   1.043   5.126  13.202  1.0316 -2.5305 -2.2284
 2005TIP3    H227507   1.194   5.138  13.209  0.8329 -0.8687  0.7055
 2006TIP3   OH227508   1.153   6.174   5.207  0.1166 -0.0066  0.2427
 2006TIP3    H127509   1.143   6.136   5.120  1.3908  1.3047 -0.5244
 2006TIP3    H227510   1.071   6.220   5.224 -0.7459 -1.5355  0.4363
 2007TIP3   OH227511   2.069   3.184  13.088 -0.2961 -0.4146 -0.6227
 2007TIP3    H127512   2.110   3.271  13.082 -0.0991 -0.5054 -0.5926
 2007TIP3    H227513   2.111   3.133  13.019  0.0314 -0.6661 -0.2379
 2008TIP3   OH227514   2.328   4.957   2.061 -0.2169  0.5969 -0.6031
 2008TIP3    H127515   2.265   4.905   2.110 -0.9975  1.4623 -0.6522
 2008TIP3    H227516   2.403   4.965   2.119 -0.9562  1.2523  0.2952
 2009TIP3   OH227517   0.342   5.596  10.546 -0.0775 -0.0295  0.0327
 2009TIP3    H127518   0.368   5.687  10.560 -0.0509 -0.0199 -0.0810
 2009TIP3    H227519   0.352   5.554  10.632  0.1420  0.0151  0.0279
 2010TIP3   OH227520   6.753   2.143  14.899  0.5074  0.2293  0.2824
 2010TIP3    H127521   6.662   2.125  14.876  0.7063 -0.0388 -0.3298
 2010TIP3    H227522   6.782   2.207  14.835  0.7592  0.2915  0.4565
 2011TIP3   OH227523   0.502   6.613  13.655  0.6912 -0.5313  0.1611
 2011TIP3    H127524   0.415   6.641  13.683  1.7122  1.0453  2.0464
 2011TIP3    H227525   0.553   6.609  13.736  2.7698  0.1563 -1.0401
 2012TIP3   OH227526   0.674   3.799  15.496  0.0869  0.1324 -0.5066
 2012TIP3    H127527   0.585   3.834  15.503  0.4815  1.0143  0.4089
 2012TIP3    H227528   0.663   3.705  15.501 -0.7247  0.2647  0.5614
 2013TIP3   OH227529   5.351   6.009   1.137 -0.1191 -0.2928 -0.6488
 2013TIP3    H127530   5.309   5.950   1.200  0.8572 -0.2946  0.0247
 2013TIP3    H227531   5.394   5.951   1.075  0.9610 -0.3287  0.0945
 2014TIP3   OH227532   1.964   5.530   1.851  0.3805  0.0385 -0.2146
 2014TIP3    H127533   2.013   5.466   1.800  1.0887 -0.0991  0.5998
 2014TIP3    H227534   2.011   5.612   1.838  1.0865 -0.1688  0.8704
 2015TIP3   OH227535   6.671   4.884   0.712  0.1294  0.0549 -0.4218
 2015TIP3    H127536   6.641   4.943   0.643 -1.2001 -1.3482 -1.1127
 2015TIP3    H227537   6.760   4.860   0.686 -1.4659 -3.2005 -3.7283
 2016TIP3   OH227538   3.933   1.738  14.775 -0.1924 -0.1145  0.6495
 2016TIP3    H127539   3.850   1.769  14.739  0.2393  0.9621  0.5331
 2016TIP3    H227540   3.983   1.818  14.792  1.6939 -0.7371 -1.3972
 2017TIP3   OH227541   6.002   6.583   1.032  0.1389 -0.3875  0.7939
 2017TIP3    H127542   6.097   6.583   1.019 -0.0482 -0.6632 -0.7023
 2017TIP3    H227543   5.985   6.504   1.083  0.9674  1.0416  3.4819
 2018TIP3   OH227544   1.880   4.556  12.489 -0.0271  0.0142 -0.0035
 2018TIP3    H127545   1.883   4.652  12.487 -0.2997  0.0162 -1.5957
 2018TIP3    H227546   1.943   4.529  12.422 -1.0275 -0.8688 -0.6193
 2019TIP3   OH227547   3.926   4.695  12.259  0.0009 -0.3064  0.7606
 2019TIP3    H127548   3.973   4.778  12.267  0.7088 -0.6604  0.3345
 2019TIP3    H227549   3.981   4.641  12.203 -0.9655 -0.6955  0.1493
 2020TIP3   OH227550   2.777   1.602  16.812  0.1771  0.1645  0.3095
 2020TIP3    H127551   2.727   1.550  16.875 -1.7027 -0.0266 -1.2493
 2020TIP3    H227552   2.810   1.676  16.863  0.9269 -1.2848  2.0564
 2021TIP3   OH227553   4.684   1.547   0.047 -0.1878 -0.0559 -0.3883
 2021TIP3    H127554   4.655   1.497   0.123 -1.2094 -0.5830 -1.1113
 2021TIP3    H227555   4.609   1.548  -0.012 -0.2743  2.4617 -0.3542
 2022TIP3   OH227556   3.828   3.264  16.914 -0.2525 -0.4820  0.8078
 2022TIP3    H127557   3.778   3.214  16.850 -0.5236  0.2760  0.4107
 2022TIP3    H227558   3.917   3.228  16.909 -0.3001 -0.5054  0.0836
 2023TIP3   OH227559   1.773   0.003  16.220 -0.1953  0.7011 -0.2874
 2023TIP3    H127560   1.755   0.079  16.276  0.6785  1.9331 -1.5993
 2023TIP3    H227561   1.855   0.025  16.176 -0.5781 -0.4534 -1.6469
 2024TIP3   OH227562   6.806   0.601   2.397 -0.0764 -0.4613 -0.0322
 2024TIP3    H127563   6.739   0.632   2.337  1.3523  2.4151 -0.3129
 2024TIP3    H227564   6.836   0.518   2.359 -1.0560 -0.0549 -1.7742
 2025TIP3   OH227565   4.377   1.582   5.158  0.8101  0.4153  0.1570
 2025TIP3    H127566   4.295   1.555   5.199 -0.4078  0.8777 -1.8312
 2025TIP3    H227567   4.424   1.500   5.142 -0.7446 -0.2023 -1.5925
 2026TIP3   OH227568   1.376   4.557   5.920 -0.5227  0.4116  0.1547
 2026TIP3    H127569   1.378   4.520   6.009 -0.2687  0.2330  0.0764
 2026TIP3    H227570   1.467   4.579   5.901 -0.3647 -0.6999 -0.5305
 2027TIP3   OH227571   1.423   5.578  10.783 -0.2061  0.1658  0.1051
 2027TIP3    H127572   1.332   5.604  10.801  0.0143  0.4682  0.8443
 2027TIP3    H227573   1.425   5.484  10.800  0.2128  0.5763  2.8294
 2028TIP3   OH227574   3.554   3.217   1.192 -0.1702  0.3112  0.4732
 2028TIP3    H127575   3.644   3.188   1.200  0.1267  0.9582 -0.4260
 2028TIP3    H227576   3.556   3.311   1.213  0.1127  1.3372 -3.4504
 2029TIP3   OH227577   2.006   0.410  13.152  0.3035 -0.6271 -0.5935
 2029TIP3    H127578   1.938   0.360  13.197  2.8160 -0.9983  3.2882
 2029TIP3    H227579   1.983   0.501  13.167  0.0115 -0.7235 -0.4559
 2030TIP3   OH227580   1.383   4.892   5.017  0.5141  0.2055 -0.0233
 2030TIP3    H127581   1.320   4.821   5.007  0.2179  0.3934  0.4799
 2030TIP3    H227582   1.420   4.904   4.929  0.2316 -0.2534 -0.2089
 2031TIP3   OH227583   6.228   2.456   0.490 -0.1310  0.0606  0.3156
 2031TIP3    H127584   6.190   2.469   0.577 -0.4227  0.4622  0.1318
 2031TIP3    H227585   6.249   2.362   0.487 -0.6915 -0.0810  0.5920
 2032TIP3   OH227586   1.741   2.773   2.084  0.1822  0.3913 -0.3671
 2032TIP3    H127587   1.791   2.722   2.021 -0.6816 -1.4206  0.3585
 2032TIP3    H227588   1.806   2.796   2.151  0.2495 -1.3320  0.2094
 2033TIP3   OH227589   2.949   4.678   1.016  0.4565 -0.0111 -0.3238
 2033TIP3    H127590   2.954   4.620   0.940  0.6200 -0.7686  0.2578
 2033TIP3    H227591   3.028   4.731   1.011  0.1445  0.4143 -1.0407
 2034TIP3   OH227592   3.684   3.268  13.806 -0.4015 -0.7441  0.4450
 2034TIP3    H127593   3.688   3.176  13.831 -0.7902 -1.0959 -0.7331
 2034TIP3    H227594   3.773   3.301  13.821  0.3128 -1.8714 -1.1357
 2035TIP3   OH227595   0.319   6.474  16.406  0.0163 -0.1198 -0.6822
 2035TIP3    H127596   0.315   6.402  16.470  0.6770  2.0801  2.0477
 2035TIP3    H227597   0.245   6.459  16.348 -1.4513 -1.5824  1.4163
 2036TIP3   OH227598   4.452   2.634   2.024  0.5783 -0.3154  0.2091
 2036TIP3    H127599   4.488   2.555   1.983  1.9443  0.0339  0.6784
 2036TIP3    H227600   4.520   2.662   2.085 -0.6830  0.1622  1.4381
 2037TIP3   OH227601   4.144   0.160  15.901 -0.1003 -0.1309 -0.2262
 2037TIP3    H127602   4.103   0.236  15.942  1.4890  1.0424 -0.6946
 2037TIP3    H227603   4.219   0.139  15.957 -0.2016 -1.0129 -0.3972
 2038TIP3   OH227604   2.294   5.855   3.111 -0.2069  0.8794  0.4476
 2038TIP3    H127605   2.381   5.885   3.085 -0.3618  2.4855  1.6542
 2038TIP3    H227606   2.251   5.933   3.145 -1.7779 -0.0986  0.7821
 2039TIP3   OH227607   1.743   3.763   3.443  0.1267 -0.0634  0.1545
 2039TIP3    H127608   1.758   3.857   3.432 -1.3060  0.1703  0.0674
 2039TIP3    H227609   1.764   3.725   3.357 -0.6615  0.3717 -0.2398
 2040TIP3   OH227610   5.242   4.272   4.029  0.2831  0.2484 -0.2805
 2040TIP3    H127611   5.201   4.214   3.966  1.2994  1.7051 -2.3950
 2040TIP3    H227612   5.312   4.220   4.069  1.4190  0.0588 -2.3917
 2041TIP3   OH227613   5.559   0.240  15.862 -0.8609  0.1447 -0.4387
 2041TIP3    H127614   5.651   0.217  15.875 -1.0569 -1.3817 -1.5668
 2041TIP3    H227615   5.549   0.322  15.910  0.5719 -0.6925  1.4397
 2042TIP3   OH227616   1.422   1.149   3.975  0.7288  0.1252 -0.0984
 2042TIP3    H127617   1.473   1.227   3.952 -0.3607  0.6218 -0.8821
 2042TIP3    H227618   1.414   1.153   4.071  0.7252  0.9421 -0.1289
 2043TIP3   OH227619   1.712   3.671   5.552 -0.1740  0.4298  0.0373
 2043TIP3    H127620   1.784   3.624   5.595 -1.4423 -2.4160 -0.7617
 2043TIP3    H227621   1.648   3.685   5.621  0.0712  0.7557  0.2054
 2044TIP3   OH227622   6.011   0.667  11.159 -0.3843 -0.2887  0.0431
 2044TIP3    H127623   6.022   0.719  11.239  0.0878 -1.4347  0.7579
 2044TIP3    H227624   5.918   0.644  11.157 -0.6781  0.8632 -0.4842
 2045TIP3   OH227625   6.726   6.440   3.067  0.0186  0.0735  0.2949
 2045TIP3    H127626   6.725   6.512   3.130  0.0261 -0.3012  0.7350
 2045TIP3    H227627   6.682   6.474   2.990  0.6134  0.7680  0.2473
 2046TIP3   OH227628   3.548   3.231   0.429 -0.1814  0.5103  0.0705
 2046TIP3    H127629   3.586   3.318   0.442 -0.7463  0.9174 -0.8309
 2046TIP3    H227630   3.469   3.248   0.377 -0.0992 -0.5760 -0.4268
 2047TIP3   OH227631   1.843   1.216   1.488 -0.0002  0.1442  0.3068
 2047TIP3    H127632   1.893   1.283   1.536 -0.0769  0.2515  0.2391
 2047TIP3    H227633   1.907   1.176   1.429  0.5949 -1.4418  1.9740
 2048TIP3   OH227634   5.991   2.586  16.010  0.2765 -0.1784 -0.3839
 2048TIP3    H127635   5.923   2.638  16.052  0.4956 -0.1276 -0.0886
 2048TIP3    H227636   6.001   2.626  15.923  1.8640  1.6084  0.5434
 2049TIP3   OH227637   1.811   4.682   5.178  0.4209  0.5706 -0.4891
 2049TIP3    H127638   1.742   4.662   5.241  1.7870 -2.0846  0.3397
 2049TIP3    H227639   1.767   4.682   5.093 -0.4256 -3.3576 -0.2632
 2050TIP3   OH227640   1.405   2.257   0.610 -0.3417 -0.2160  0.1763
 2050TIP3    H127641   1.429   2.176   0.656  0.7076 -1.0117 -1.6812
 2050TIP3    H227642   1.433   2.327   0.669  2.7866 -1.1630  0.0014
 2051TIP3   OH227643   1.400   6.117  15.828 -0.5258 -0.1428  0.8773
 2051TIP3    H127644   1.437   6.080  15.907  0.1450  0.8164  1.0378
 2051TIP3    H227645   1.446   6.073  15.756 -1.4055 -1.2883  0.9891
 2052TIP3   OH227646   2.388   5.058   5.729 -0.1610  0.5337  0.4077
 2052TIP3    H127647   2.321   5.110   5.686 -0.8826 -0.8649 -0.2575
 2052TIP3    H227648   2.465   5.113   5.730 -0.3415  0.9330 -2.0215
 2053TIP3   OH227649   3.341   2.025  17.191 -0.1920 -0.2891  0.6534
 2053TIP3    H127650   3.405   2.069  17.134 -0.4002  0.5088  1.0214
 2053TIP3    H227651   3.278   1.986  17.130 -0.8512  1.2264  0.3151
 2054TIP3   OH227652   6.195   3.727  16.975 -0.9860  0.2792  0.0431
 2054TIP3    H127653   6.288   3.751  16.974 -1.0251  0.4355  0.1352
 2054TIP3    H227654   6.194   3.633  16.960 -0.6782 -0.1530  2.4040
 2055TIP3   OH227655   3.119   1.189   5.577  0.1578  0.2000 -0.4335
 2055TIP3    H127656   3.200   1.241   5.574  0.8292 -0.8355 -1.1160
 2055TIP3    H227657   3.148   1.101   5.603 -1.0493  0.2945  1.4567
 2056TIP3   OH227658   2.822   3.012  11.967  0.3355  0.3628 -0.0531
 2056TIP3    H127659   2.868   2.929  11.954 -0.0818  0.4573 -2.7521
 2056TIP3    H227660   2.741   3.003  11.917  0.7522  2.7213 -1.3202
 2057TIP3   OH227661   1.492   4.081  13.176 -0.0581  0.1982 -0.2875
 2057TIP3    H127662   1.513   3.987  13.179  0.1047  0.1434 -2.1653
 2057TIP3    H227663   1.409   4.089  13.222  0.0641 -0.8254  0.1335
 2058TIP3   OH227664   5.876   5.327  10.781  0.1133  0.0881 -0.3801
 2058TIP3    H127665   5.816   5.292  10.846  0.8548  0.0822  0.3160
 2058TIP3    H227666   5.833   5.407  10.749 -0.6991 -0.4312 -0.5997
 2059TIP3   OH227667   3.741   3.459   0.104 -0.3626  0.4803  0.2198
 2059TIP3    H127668   3.713   3.370   0.082 -0.6777  0.6734 -0.1667
 2059TIP3    H227669   3.818   3.475   0.050 -1.5213  1.1986 -1.2936
 2060TIP3   OH227670   4.960   3.491  16.346 -0.0096  0.4041 -0.2656
 2060TIP3    H127671   5.018   3.526  16.413 -1.5683  0.3480  1.1948
 2060TIP3    H227672   4.904   3.428  16.393 -1.5453  0.8100 -1.4573
 2061TIP3   OH227673   5.725   4.520  15.067 -0.1673  0.6959 -0.4160
 2061TIP3    H127674   5.748   4.428  15.081 -0.5427  0.5639 -0.6546
 2061TIP3    H227675   5.703   4.553  15.154 -0.8449  0.3310 -0.4389
 2062TIP3   OH227676   3.122   5.766  13.627 -0.2841 -0.3657  0.6730
 2062TIP3    H127677   3.135   5.672  13.610  2.4300 -0.0019  0.2763
 2062TIP3    H227678   3.098   5.803  13.542 -1.0675 -0.6314  0.7693
 2063TIP3   OH227679   3.405   2.899  17.184 -0.2362 -0.3211 -0.4067
 2063TIP3    H127680   3.341   2.956  17.142  0.8842  0.6593 -0.8382
 2063TIP3    H227681   3.449   2.955  17.249  1.6317 -0.3337 -1.5876
 2064TIP3   OH227682   0.080   3.661   0.460  0.4780 -0.1587 -0.4259
 2064TIP3    H127683   0.095   3.662   0.365  3.0490 -3.7907 -0.2872
 2064TIP3    H227684   0.167   3.679   0.497 -0.4383  0.9648  1.2755
 2065TIP3   OH227685   5.077   2.904  11.772  0.1789 -0.3472  0.2630
 2065TIP3    H127686   4.996   2.945  11.803  0.4653 -0.1910  0.8222
 2065TIP3    H227687   5.138   2.977  11.759  0.6160 -0.5570  1.0384
 2066TIP3   OH227688   2.988   5.651   0.491 -0.3772 -0.2306  0.4496
 2066TIP3    H127689   3.006   5.744   0.507  0.1427 -0.2942  0.2684
 2066TIP3    H227690   3.075   5.612   0.478 -0.5671 -0.8047  0.8538
 2067TIP3   OH227691   0.716   4.684   0.858  0.1267 -0.0626  0.3367
 2067TIP3    H127692   0.713   4.618   0.927  0.7978  0.0847  0.5158
 2067TIP3    H227693   0.657   4.753   0.888  0.7923  0.2235  1.0054
 2068TIP3   OH227694   2.212   2.860   2.655  0.3013 -0.0653  0.0133
 2068TIP3    H127695   2.154   2.799   2.610 -0.1398 -0.2710  0.8408
 2068TIP3    H227696   2.184   2.858   2.746  0.6920  0.9038  0.1747
 2069TIP3   OH227697   2.552   2.696   5.178 -0.4400 -0.0647 -0.3121
 2069TIP3    H127698   2.600   2.722   5.100  1.8151 -1.0470  0.6389
 2069TIP3    H227699   2.547   2.600   5.172 -0.5699 -0.1180  0.5480
 2070TIP3   OH227700   2.556   6.304  11.138 -0.4136  0.1607  0.5954
 2070TIP3    H127701   2.613   6.255  11.079 -0.7913  1.3593 -0.8500
 2070TIP3    H227702   2.470   6.265  11.126 -0.7123  1.0952 -0.5477
 2071TIP3   OH227703   3.448   3.479   4.576 -0.1858 -0.8712  0.2204
 2071TIP3    H127704   3.487   3.485   4.489 -2.1093  1.1874 -0.6112
 2071TIP3    H227705   3.470   3.562   4.618  0.1996 -1.5909  1.4766
 2072TIP3   OH227706   2.053   6.687  15.080 -0.3226 -0.2372 -0.3229
 2072TIP3    H127707   2.063   6.682  15.175 -1.9213  0.6133 -0.0695
 2072TIP3    H227708   2.061   6.596  15.051 -2.6971 -0.9708  1.0041
 2073TIP3   OH227709   1.186   0.745  11.588 -0.1220 -0.1129  0.1149
 2073TIP3    H127710   1.182   0.793  11.671  0.5863  1.5515 -0.7607
 2073TIP3    H227711   1.280   0.739  11.570 -0.3017  0.5973 -1.1317
 2074TIP3   OH227712   6.600   2.720   1.470 -0.1205 -0.3735  0.0487
 2074TIP3    H127713   6.609   2.626   1.456 -1.2760 -0.5606  0.5127
 2074TIP3    H227714   6.604   2.758   1.382  3.0436 -0.5656  0.0046
 2075TIP3   OH227715   4.809   4.636  10.820  0.1633  0.3211 -0.0483
 2075TIP3    H127716   4.788   4.722  10.783 -0.1646  0.5132  0.5587
 2075TIP3    H227717   4.905   4.635  10.825  0.1462  1.1561  1.0453
 2076TIP3   OH227718   4.678   2.308   4.967  0.3797 -0.5056 -0.3025
 2076TIP3    H127719   4.623   2.331   4.892 -0.2712 -0.3650  0.2066
 2076TIP3    H227720   4.618   2.308   5.041  1.2265  0.5474  0.4221
 2077TIP3   OH227721   6.044   2.982   2.459  0.6682 -0.2016 -0.1839
 2077TIP3    H127722   5.999   3.004   2.540 -2.3868  1.6982 -2.1798
 2077TIP3    H227723   6.119   3.041   2.456  0.6184 -0.0517  1.0541
 2078TIP3   OH227724   5.983   2.311   1.726 -0.3500 -0.4166 -0.1399
 2078TIP3    H127725   6.077   2.297   1.737 -0.0380 -0.2272 -2.1794
 2078TIP3    H227726   5.963   2.387   1.781  0.6623 -0.5007  0.3694
 2079TIP3   OH227727   4.940   3.270   5.187 -0.3636 -0.2398 -0.4488
 2079TIP3    H127728   4.935   3.314   5.102  0.8030  1.6760  0.4194
 2079TIP3    H227729   4.932   3.177   5.166 -0.8184  0.2289 -2.5700
 2080TIP3   OH227730   0.275   3.063   1.495 -0.1837  0.1730  0.1544
 2080TIP3    H127731   0.192   3.038   1.454  0.4722  0.1342 -1.1842
 2080TIP3    H227732   0.313   3.127   1.435  0.0125  1.4247  1.5578
 2081TIP3   OH227733   5.518   2.361  16.282 -0.2361 -0.0213  0.5246
 2081TIP3    H127734   5.531   2.294  16.215  0.6401  1.4207 -0.8474
 2081TIP3    H227735   5.466   2.429  16.238 -1.5786 -0.0218  2.0355
 2082TIP3   OH227736   2.595   1.218  16.255  0.1154  0.1021  0.3293
 2082TIP3    H127737   2.550   1.255  16.331 -4.1774 -1.8919 -0.8947
 2082TIP3    H227738   2.559   1.267  16.180  0.9412 -0.7986 -0.6892
 2083TIP3   OH227739   5.094   3.821   6.303 -0.1226 -0.4640  0.1354
 2083TIP3    H127740   5.003   3.795   6.313  0.1656 -1.0113  1.5185
 2083TIP3    H227741   5.091   3.912   6.275 -1.0789 -0.5309 -0.0013
 2084TIP3   OH227742   3.136   1.770  16.261 -0.1915  0.8756 -0.0649
 2084TIP3    H127743   3.060   1.771  16.203  0.8323 -1.2878 -1.5914
 2084TIP3    H227744   3.107   1.719  16.337 -0.5775  0.9781 -0.1392
 2085TIP3   OH227745   6.694   4.579  11.545  0.0078 -0.2345 -0.2391
 2085TIP3    H127746   6.662   4.609  11.630  1.1664 -0.7766  0.4160
 2085TIP3    H227747   6.672   4.650  11.485 -1.6633 -0.2461  0.3088
 2086TIP3   OH227748   5.920   5.041   1.225  0.0694  0.0541 -0.2321
 2086TIP3    H127749   5.958   5.033   1.138  1.9528  0.9546  0.4406
 2086TIP3    H227750   5.938   5.131   1.252 -2.0995  0.3515  0.4020
 2087TIP3   OH227751   5.050   3.495   0.331  0.8917 -0.5081  0.2697
 2087TIP3    H127752   5.085   3.565   0.386 -2.0695  1.5650 -0.2248
 2087TIP3    H227753   4.985   3.451   0.386 -0.7281  0.3538 -0.8532
 2088TIP3   OH227754   5.448   2.482   4.078 -0.7438  0.5976  0.4086
 2088TIP3    H127755   5.400   2.481   4.161 -0.5411 -0.5773  0.5247
 2088TIP3    H227756   5.517   2.547   4.092 -1.2500  1.0561  0.8402
 2089TIP3   OH227757   2.819   3.300   2.348 -1.0617 -0.0110  0.1450
 2089TIP3    H127758   2.871   3.298   2.268 -3.7419  2.1543 -1.8676
 2089TIP3    H227759   2.873   3.348   2.411  0.7676 -1.0127 -0.5836
 2090TIP3   OH227760   5.429   3.055   1.361  0.1558 -0.7091 -0.0706
 2090TIP3    H127761   5.339   3.081   1.343 -0.4924 -2.7975 -0.0422
 2090TIP3    H227762   5.469   3.044   1.275  0.2800 -0.1933 -0.0845
 2091TIP3   OH227763   6.506   2.011  15.090  1.1067 -0.0129 -0.0027
 2091TIP3    H127764   6.558   2.055  15.157  0.0686  1.4687 -0.1168
 2091TIP3    H227765   6.569   1.982  15.025  1.8831  0.8073  0.3689
 2092TIP3   OH227766   3.353   6.808  14.922  0.5084 -0.1129  0.2512
 2092TIP3    H127767   3.424   6.872  14.930 -0.7107  1.0491  4.4376
 2092TIP3    H227768   3.363   6.752  14.999 -1.3034 -1.9019 -0.7461
 2093TIP3   OH227769   6.405   2.229  16.110  0.2491 -0.6508 -0.7041
 2093TIP3    H127770   6.386   2.145  16.068 -2.7024  0.3198 -1.5028
 2093TIP3    H227771   6.331   2.245  16.168  0.8483  1.3341 -0.3961
 2094TIP3   OH227772   3.407   1.990  13.867  0.0706  0.0962 -0.1240
 2094TIP3    H127773   3.340   2.048  13.905 -0.5916  1.0110 -2.4748
 2094TIP3    H227774   3.475   2.049  13.836  1.1606 -0.7068  0.6819
 2095TIP3   OH227775   4.862   5.484   2.843 -0.2581 -0.2275  0.8764
 2095TIP3    H127776   4.922   5.478   2.917  1.0134  2.3483  0.1378
 2095TIP3    H227777   4.808   5.560   2.862 -0.0104  0.3951 -0.7541
 2096TIP3   OH227778   3.158   5.312  16.691  0.0534 -0.6110 -0.7162
 2096TIP3    H127779   3.207   5.352  16.619  0.4052  1.4314  0.5874
 2096TIP3    H227780   3.223   5.261  16.739 -0.0247 -1.3486 -1.3678
 2097TIP3   OH227781   6.147   6.224   4.642 -0.0842 -0.1783  0.1316
 2097TIP3    H127782   6.173   6.299   4.589  1.6182 -2.2745 -2.1806
 2097TIP3    H227783   6.104   6.263   4.718 -0.7483  3.0541 -1.7257
 2098TIP3   OH227784   4.766   3.403  14.107 -0.2995 -0.0745  0.5344
 2098TIP3    H127785   4.692   3.344  14.095 -0.2150  0.0472 -0.7513
 2098TIP3    H227786   4.841   3.344  14.123  0.2432 -0.5682 -3.0202
 2099TIP3   OH227787   2.571   0.813  14.936 -0.1936  0.2552 -0.3567
 2099TIP3    H127788   2.537   0.747  14.997 -2.0539  2.3974  1.0833
 2099TIP3    H227789   2.524   0.796  14.855 -1.1392  0.1592  0.1897
 2100TIP3   OH227790   1.334   0.491   0.702  0.0187 -0.0646 -0.3614
 2100TIP3    H127791   1.282   0.502   0.781 -0.8710 -0.5277 -0.8670
 2100TIP3    H227792   1.312   0.403   0.671  0.0351  0.2690 -1.3535
 2101TIP3   OH227793   6.093   4.458   3.074  0.3587  0.4234 -0.4165
 2101TIP3    H127794   6.112   4.389   3.137  1.7431  0.4538 -0.7704
 2101TIP3    H227795   6.116   4.420   2.989 -0.8649  0.6099 -0.8581
 2102TIP3   OH227796   1.425   3.476  15.751  0.1558 -0.0724 -0.0233
 2102TIP3    H127797   1.401   3.405  15.811  2.8114 -1.6716 -0.7004
 2102TIP3    H227798   1.482   3.533  15.803  0.8498 -0.3803 -0.4262
 2103TIP3   OH227799   1.078   3.108   6.165 -0.6716  0.4408 -0.1726
 2103TIP3    H127800   1.088   3.127   6.258 -1.5587 -1.7314  0.4300
 2103TIP3    H227801   1.126   3.026   6.151 -2.9810 -0.8758 -0.9233
 2104TIP3   OH227802   0.093   1.509   4.775 -0.6379 -0.4150 -0.2649
 2104TIP3    H127803   0.033   1.438   4.796  0.7784 -1.2773  1.0349
 2104TIP3    H227804   0.077   1.574   4.843  0.5066 -1.0522  0.6415
 2105TIP3   OH227805   1.169   3.378   3.124 -0.2612  0.1600 -0.7475
 2105TIP3    H127806   1.147   3.285   3.117  0.0623  0.0500 -0.3443
 2105TIP3    H227807   1.085   3.423   3.129 -0.4208 -0.2580  0.8109
 2106TIP3   OH227808   5.069   4.210  14.922  0.4386 -0.4931  0.2337
 2106TIP3    H127809   4.974   4.217  14.922  0.5088  0.8263 -0.1060
 2106TIP3    H227810   5.100   4.299  14.903  1.7102 -1.3680 -2.2803
 2107TIP3   OH227811   3.842   4.188  15.973 -0.2536  0.2331 -0.3251
 2107TIP3    H127812   3.914   4.241  16.007 -0.2263 -0.0524  0.0768
 2107TIP3    H227813   3.820   4.129  16.045 -0.6862  0.1095 -0.5526
 2108TIP3   OH227814   5.041   2.161   5.612  0.2665  0.0614  0.3460
 2108TIP3    H127815   5.118   2.105   5.623 -1.0034 -1.6794  0.9648
 2108TIP3    H227816   4.986   2.141   5.688  0.2656  3.1612  1.3046
 2109TIP3   OH227817   1.422   5.796  12.909  0.4398  0.2517 -0.2063
 2109TIP3    H127818   1.353   5.738  12.877  0.0520  2.0949 -3.0677
 2109TIP3    H227819   1.495   5.783  12.848  0.8250  1.7369 -0.1059
 2110TIP3   OH227820   0.154   1.070   4.833  0.6136 -0.4730 -0.1147
 2110TIP3    H127821   0.136   0.977   4.818 -0.7180 -0.4528  1.0375
 2110TIP3    H227822   0.243   1.072   4.866 -0.2132 -1.7422  2.5290
 2111TIP3   OH227823   2.807   5.966   2.577 -0.6560 -0.7023  0.5156
 2111TIP3    H127824   2.799   6.034   2.644  0.7486 -0.3617  0.3653
 2111TIP3    H227825   2.854   5.895   2.621 -0.8603 -1.0040  0.2503
 2112TIP3   OH227826   5.867   3.308  10.966 -0.6269  0.3499  0.6293
 2112TIP3    H127827   5.802   3.275  11.027 -1.6970 -1.1546 -1.2022
 2112TIP3    H227828   5.835   3.281  10.880  0.9051  2.1908 -0.6059
 2113TIP3   OH227829   4.522   1.945  13.686  0.1819 -0.1346 -0.1786
 2113TIP3    H127830   4.501   1.941  13.593 -0.6500 -0.1819  0.0098
 2113TIP3    H227831   4.501   1.858  13.720  1.3828 -0.4281 -0.1208
 2114TIP3   OH227832   5.733   3.501  14.252 -0.1683  0.1652  0.4215
 2114TIP3    H127833   5.810   3.464  14.295 -0.4220  1.1905  1.8122
 2114TIP3    H227834   5.769   3.550  14.178  0.6220  1.3029  1.5164
 2115TIP3   OH227835   1.789   3.047  15.525  0.1844  0.0455 -0.0516
 2115TIP3    H127836   1.770   2.990  15.451  0.6602  0.6979 -0.6856
 2115TIP3    H227837   1.796   2.988  15.600  3.3409 -1.0882 -1.1152
 2116TIP3   OH227838   2.369   4.334  16.270  0.1829  0.2125 -0.2011
 2116TIP3    H127839   2.325   4.400  16.324  0.1087  0.4518 -0.5530
 2116TIP3    H227840   2.355   4.363  16.180  0.8170  0.1327 -0.3265
 2117TIP3   OH227841   2.909   1.771   0.925 -0.6618 -0.2185  0.3424
 2117TIP3    H127842   2.928   1.861   0.954 -1.6428  0.5032 -1.1450
 2117TIP3    H227843   2.989   1.743   0.881 -0.5815  0.1876  0.2203
 2118TIP3   OH227844   5.109   6.187   0.081  0.6168  0.3893 -0.1620
 2118TIP3    H127845   5.192   6.234   0.073  0.9828  0.4431  2.8158
 2118TIP3    H227846   5.048   6.251   0.116 -0.1771 -0.1350 -0.5650
 2119TIP3   OH227847   1.340   0.182   3.106  0.1165 -0.2587  0.2990
 2119TIP3    H127848   1.303   0.250   3.162 -0.0011 -0.6329  0.6744
 2119TIP3    H227849   1.423   0.219   3.076 -0.3173  0.3809 -0.1517
 2120TIP3   OH227850   2.006   2.538  14.362  0.3415  0.2203 -0.6256
 2120TIP3    H127851   2.052   2.455  14.372 -1.0254 -0.4829  0.1184
 2120TIP3    H227852   2.036   2.573  14.278  2.2347 -0.1643 -0.1664
 2121TIP3   OH227853   4.902   5.639  12.047 -0.4497  0.3038  0.2956
 2121TIP3    H127854   4.934   5.720  12.086 -3.3009  1.0109  1.4337
 2121TIP3    H227855   4.902   5.656  11.953  0.2780  1.0722  0.4171
 2122TIP3   OH227856   2.137   6.665  15.349 -0.0864 -0.1943  0.1184
 2122TIP3    H127857   2.227   6.633  15.354  0.1104  0.2757 -0.3529
 2122TIP3    H227858   2.142   6.754  15.383 -0.1298  0.2913 -1.1147
 2123TIP3   OH227859   0.385   3.306   4.230  0.6668  0.2326 -0.1550
 2123TIP3    H127860   0.299   3.330   4.264 -0.7543 -0.1175 -3.1123
 2123TIP3    H227861   0.415   3.234   4.286 -1.0349  0.2641  0.8466
 2124TIP3   OH227862   2.817   3.977   4.583  0.3015  0.6300  0.0069
 2124TIP3    H127863   2.783   3.888   4.593 -0.3971  1.0962  2.7347
 2124TIP3    H227864   2.757   4.018   4.521  0.4942 -0.6929 -1.1118
 2125TIP3   OH227865   4.766   5.525   1.496 -0.0007  0.3221 -0.0100
 2125TIP3    H127866   4.737   5.482   1.416  0.4827  0.4413 -0.2532
 2125TIP3    H227867   4.855   5.554   1.477  0.1425  0.2949  0.5919
 2126TIP3   OH227868   1.911   1.382   2.792  0.4528  0.3347 -0.5079
 2126TIP3    H127869   1.966   1.460   2.798 -0.0136  0.6602 -0.4399
 2126TIP3    H227870   1.853   1.399   2.717  0.9079 -0.3054 -1.0177
 2127TIP3   OH227871   5.929   4.389  11.716 -0.1998  0.3008  0.6260
 2127TIP3    H127872   5.909   4.478  11.747 -1.4794  0.3197 -0.1838
 2127TIP3    H227873   5.862   4.334  11.757  0.3254 -0.2351  0.7757
 2128TIP3   OH227874   6.617   6.040  17.111 -0.0024  0.0420  0.1182
 2128TIP3    H127875   6.550   5.975  17.132 -0.7206  0.9175  0.6204
 2128TIP3    H227876   6.699   5.992  17.112 -0.4363 -0.6982  1.2333
 2129TIP3   OH227877   3.864   3.391   2.701  0.3523 -0.1009 -0.2011
 2129TIP3    H127878   3.936   3.364   2.758  0.6625  0.2993 -0.3979
 2129TIP3    H227879   3.907   3.426   2.623 -0.0139  1.6102  0.3379
 2130TIP3   OH227880   1.690   1.899  12.242 -0.0965  0.2595 -0.3235
 2130TIP3    H127881   1.611   1.873  12.290  0.4124  1.9309  1.5276
 2130TIP3    H227882   1.662   1.974  12.189 -0.0895 -0.1153 -0.8726
 2131TIP3   OH227883   2.350   5.502  14.080  0.2833 -1.0666 -0.1498
 2131TIP3    H127884   2.290   5.435  14.046 -3.0191  1.4737  0.0857
 2131TIP3    H227885   2.412   5.517  14.009  0.0293 -3.0743 -0.8724
 2132TIP3   OH227886   0.714   1.571  14.401  0.2332 -0.3714 -0.0801
 2132TIP3    H127887   0.765   1.624  14.462 -0.1534  0.1255 -0.1813
 2132TIP3    H227888   0.769   1.495  14.384  0.4692 -0.3870  0.6766
 2133TIP3   OH227889   0.038   6.193   1.372  0.1316  0.0151 -0.7624
 2133TIP3    H127890   0.043   6.154   1.285  1.9021 -0.6313 -0.4210
 2133TIP3    H227891   0.071   6.124   1.431  0.1259  0.8629  0.2591
 2134TIP3   OH227892   4.721   5.936   1.848  0.1761 -0.0526 -0.2549
 2134TIP3    H127893   4.742   5.863   1.791 -4.6539  0.3101 -3.0382
 2134TIP3    H227894   4.688   5.896   1.928 -0.9568 -0.9281 -1.1365
 2135TIP3   OH227895   2.014   1.300  15.968  0.1433  0.2259  0.2031
 2135TIP3    H127896   2.014   1.231  15.902  1.2831  1.6831 -1.4159
 2135TIP3    H227897   2.101   1.296  16.008 -0.2902 -0.1751  1.1512
 2136TIP3   OH227898   6.074   0.961  12.936  0.9777 -0.8352  0.3212
 2136TIP3    H127899   6.074   0.984  13.029  1.0903  1.1793 -0.1268
 2136TIP3    H227900   6.031   1.035  12.893  2.6245 -0.7892 -1.4054
 2137TIP3   OH227901   0.330   5.737  14.126 -0.3581 -0.7811 -0.3007
 2137TIP3    H127902   0.301   5.825  14.153 -0.9917 -0.2432 -2.4718
 2137TIP3    H227903   0.260   5.679  14.155 -0.9226 -0.2655 -0.5969
 2138TIP3   OH227904   6.419   0.737   1.571 -0.4859 -0.2682  0.4059
 2138TIP3    H127905   6.479   0.719   1.499 -0.7717  0.5570 -0.0454
 2138TIP3    H227906   6.458   0.691   1.646  0.4986 -0.0770  0.0272
 2139TIP3   OH227907   6.583   4.640   6.382 -0.3159 -0.2008 -0.3487
 2139TIP3    H127908   6.500   4.604   6.350 -1.0619  0.7004  0.4907
 2139TIP3    H227909   6.560   4.727   6.416  0.6303 -0.6076  1.4722
 2140TIP3   OH227910   2.218   3.392   6.262  0.3426  0.3518  0.0178
 2140TIP3    H127911   2.167   3.374   6.341  0.0503  1.9036  0.2024
 2140TIP3    H227912   2.158   3.438   6.204  0.5816 -0.7044 -1.0972
 2141TIP3   OH227913   4.640   5.803   1.526  0.1360  0.3983 -0.5505
 2141TIP3    H127914   4.564   5.764   1.482 -0.1896 -0.6764  0.8878
 2141TIP3    H227915   4.693   5.727   1.554  0.9698  1.0870 -0.2187
 2142TIP3   OH227916   2.749   1.356   6.002 -0.1378 -0.0507  0.0754
 2142TIP3    H127917   2.776   1.265   6.018  1.7002  0.7890  2.2656
 2142TIP3    H227918   2.662   1.362   6.040  0.5552 -0.4297  1.8059
 2143TIP3   OH227919   2.270   4.328  12.637  0.5944  0.1213 -0.0110
 2143TIP3    H127920   2.306   4.306  12.552 -1.5329  0.2606 -1.0167
 2143TIP3    H227921   2.210   4.256  12.658  1.5008 -0.2097  1.6760
 2144TIP3   OH227922   3.108   6.003   2.821  0.6768  0.0603  0.3542
 2144TIP3    H127923   3.030   5.950   2.811  0.6386  0.1053  0.4164
 2144TIP3    H227924   3.076   6.091   2.838  0.7357 -0.1077  1.4374
 2145TIP3   OH227925   4.354   2.908  13.510  0.7283 -0.4964 -0.5552
 2145TIP3    H127926   4.315   2.866  13.433  0.0098 -0.0674 -0.4353
 2145TIP3    H227927   4.326   2.854  13.584 -1.2256  0.8319 -0.2651
 2146TIP3   OH227928   6.150   6.275  14.701 -0.5365 -0.3020  0.4735
 2146TIP3    H127929   6.073   6.331  14.691  0.7882  2.6531  4.1865
 2146TIP3    H227930   6.221   6.323  14.659 -0.1653 -1.6867 -0.5648
 2147TIP3   OH227931   6.449   3.808  11.606  0.1073  0.0677  0.2358
 2147TIP3    H127932   6.515   3.871  11.579  0.1470  0.4197  1.1198
 2147TIP3    H227933   6.420   3.839  11.692 -0.8124 -0.3873  0.1016
 2148TIP3   OH227934   5.240   5.151  14.561 -0.0965  0.2253 -0.4189
 2148TIP3    H127935   5.188   5.232  14.552  0.7646  0.8791  0.3612
 2148TIP3    H227936   5.239   5.132  14.654 -0.8200 -1.0486 -0.6654
 2149TIP3   OH227937   1.804   2.287  12.091 -0.4728  0.0672  0.2039
 2149TIP3    H127938   1.801   2.195  12.067 -0.4459  0.1767 -0.2159
 2149TIP3    H227939   1.722   2.303  12.137  0.2950 -0.6133  1.9043
 2150TIP3   OH227940   5.858   3.927   2.802 -0.5213 -0.0864 -0.7372
 2150TIP3    H127941   5.939   3.963   2.765  0.1336  0.1242  0.8039
 2150TIP3    H227942   5.857   3.835   2.773 -0.2226  0.1610 -1.5467
 2151TIP3   OH227943   1.481   6.363  12.730  0.4683  0.4460 -0.0262
 2151TIP3    H127944   1.538   6.326  12.663  0.8735  1.0829 -0.0445
 2151TIP3    H227945   1.497   6.458  12.726 -0.2312  0.5871  0.2983
 2152TIP3   OH227946   1.188   4.226  12.233 -0.3258 -0.6926  0.4512
 2152TIP3    H127947   1.187   4.320  12.211 -1.0122  0.1386  3.4933
 2152TIP3    H227948   1.112   4.190  12.188  0.9717 -0.2841 -2.2727
 2153TIP3   OH227949   3.158   5.688  14.578 -0.4544  0.3036 -0.0974
 2153TIP3    H127950   3.098   5.704  14.651  0.5715  2.7137  0.2948
 2153TIP3    H227951   3.220   5.760  14.581  1.3595 -1.0725 -1.6477
 2154TIP3   OH227952   3.044   1.712   3.720  0.6195  0.0794 -0.6597
 2154TIP3    H127953   3.083   1.768   3.652  1.9825 -0.6137 -0.4804
 2154TIP3    H227954   3.119   1.684   3.773 -0.3781  0.2569  0.8778
 2155TIP3   OH227955   2.672   2.608   1.872 -0.0218  0.3176  0.3066
 2155TIP3    H127956   2.718   2.688   1.846  1.4091 -0.4618  0.3533
 2155TIP3    H227957   2.655   2.561   1.791  2.7031 -1.1821  0.4946
 2156TIP3   OH227958   4.743   3.958  12.367  0.1484 -0.3268  0.0729
 2156TIP3    H127959   4.752   4.044  12.326  0.0355 -1.0308 -1.4779
 2156TIP3    H227960   4.650   3.936  12.357 -0.4013  0.3919  2.6736
 2157TIP3   OH227961   0.377   4.496   1.107 -0.3814 -0.4032  0.0811
 2157TIP3    H127962   0.465   4.481   1.073  0.1351 -0.9860  1.6412
 2157TIP3    H227963   0.385   4.488   1.202 -1.9056  0.6143  0.3373
 2158TIP3   OH227964   2.865   0.995  16.115  0.6119  0.7938 -0.4168
 2158TIP3    H127965   2.941   0.987  16.058 -0.0816  0.4521 -1.3067
 2158TIP3    H227966   2.887   0.943  16.192  0.8895 -0.0864 -1.0845
 2159TIP3   OH227967   2.860   4.290  15.207 -0.1773 -0.5823  0.5119
 2159TIP3    H127968   2.798   4.262  15.140  0.9287  0.4400 -0.9805
 2159TIP3    H227969   2.939   4.240  15.189  1.3422  2.2298 -1.2851
 2160TIP3   OH227970   1.893   3.398  11.091  0.0990 -0.3704  0.0876
 2160TIP3    H127971   1.959   3.392  11.022 -0.1078 -0.2952 -0.1190
 2160TIP3    H227972   1.903   3.317  11.141  0.0393 -0.5681 -0.2210
 2161TIP3   OH227973   0.475   5.998  12.750 -0.2011  0.5421 -0.1971
 2161TIP3    H127974   0.426   6.019  12.670  1.5889  1.9435 -0.9850
 2161TIP3    H227975   0.559   6.042  12.739  0.4149  0.0593  2.1070
 2162TIP3   OH227976   4.023   3.850   0.163  0.1630 -0.0046  0.0209
 2162TIP3    H127977   4.064   3.853   0.076  0.2943 -1.9344 -0.0339
 2162TIP3    H227978   4.096   3.849   0.224  0.3284 -3.4369 -0.0762
 2163TIP3   OH227979   6.376   5.156  13.807  0.3934 -0.1552  0.6389
 2163TIP3    H127980   6.414   5.132  13.722  2.2346 -0.4322  1.4885
 2163TIP3    H227981   6.328   5.079  13.835 -1.1335  0.2897 -0.5823
 2164TIP3   OH227982   2.879   0.762   4.740  0.6788  0.0693 -0.1188
 2164TIP3    H127983   2.800   0.814   4.754  0.4595  0.2054 -1.7074
 2164TIP3    H227984   2.894   0.719   4.824 -1.8883 -1.0869 -0.1499
 2165TIP3   OH227985   5.564   4.020   1.156 -0.2959 -0.2218 -0.0128
 2165TIP3    H127986   5.530   3.951   1.099  1.1685  0.4779 -1.8294
 2165TIP3    H227987   5.576   4.096   1.099 -0.4831  1.1180  1.6198
 2166TIP3   OH227988   5.563   0.653  16.658 -0.8324 -0.5045 -0.4508
 2166TIP3    H127989   5.609   0.724  16.704 -1.0627 -0.7277  0.1344
 2166TIP3    H227990   5.632   0.598  16.623 -0.6401 -0.6922  0.2005
 2167TIP3   OH227991   1.209   4.257  13.131  0.1311 -0.2305  0.2107
 2167TIP3    H127992   1.152   4.334  13.134  1.3050  0.6406  1.0570
 2167TIP3    H227993   1.284   4.285  13.078 -1.1777 -2.0930 -2.8583
 2168TIP3   OH227994   5.562   5.200   5.026 -0.3449 -0.1797 -0.4473
 2168TIP3    H127995   5.607   5.168   4.948  0.5336  0.2658 -0.1411
 2168TIP3    H227996   5.530   5.121   5.069  1.1401 -0.6315 -0.0916
 2169TIP3   OH227997   2.166   0.616   2.958  0.2346 -0.3995 -0.0463
 2169TIP3    H127998   2.119   0.662   2.888  0.9728 -0.5681 -0.6742
 2169TIP3    H227999   2.257   0.614   2.928  0.2461 -2.2193 -0.0225
 2170TIP3   OH228000   5.864   5.374  11.098  0.1885 -0.3335 -0.1111
 2170TIP3    H128001   5.791   5.335  11.050  0.5282 -1.1623  0.0262
 2170TIP3    H228002   5.886   5.453  11.049  0.4181 -1.0679 -1.2268
 2171TIP3   OH228003   0.713   5.714  14.711  0.0811  0.7377  0.0860
 2171TIP3    H128004   0.791   5.660  14.698  0.3102  0.9353  0.6040
 2171TIP3    H228005   0.739   5.801  14.680 -0.7184  0.2821 -2.0394
 2172TIP3   OH228006   4.044   3.397  16.530 -0.1481 -0.0335  0.3362
 2172TIP3    H128007   4.048   3.376  16.623 -0.7103  0.9118  0.5872
 2172TIP3    H228008   4.093   3.479  16.522  1.0366 -0.7888 -0.4288
 2173TIP3   OH228009   0.506   5.623  15.608 -0.1996  0.0700  0.3277
 2173TIP3    H128010   0.554   5.581  15.679  1.3064  2.4719  0.8746
 2173TIP3    H228011   0.575   5.658  15.550 -1.3188  1.4133 -0.2538
 2174TIP3   OH228012   2.626   1.735  11.570 -0.5222  0.2277  0.5088
 2174TIP3    H128013   2.668   1.651  11.586 -1.1974  0.0088  1.1797
 2174TIP3    H228014   2.688   1.784  11.516 -0.1066 -0.6787  0.1604
 2175TIP3   OH228015   1.522   5.813  15.445  0.2017  0.9609 -0.2022
 2175TIP3    H128016   1.590   5.803  15.378  0.5092 -0.5871  0.3104
 2175TIP3    H228017   1.441   5.789  15.401  0.1040  1.8686 -0.5446
 2176TIP3   OH228018   3.511   2.892  12.289  0.3465  0.1898  0.0211
 2176TIP3    H128019   3.536   2.880  12.381  1.4581 -0.5670 -0.3501
 2176TIP3    H228020   3.438   2.831  12.276  0.0369  0.4634  0.4540
 2177TIP3   OH228021   5.046   3.333   1.045 -0.3081  0.6059 -0.1284
 2177TIP3    H128022   5.057   3.315   0.952  0.1462  0.1810 -0.0005
 2177TIP3    H228023   5.022   3.425   1.049 -0.5556  0.5690 -0.6782
 2178TIP3   OH228024   4.374   5.394  13.694 -0.6355 -0.3925  0.2813
 2178TIP3    H128025   4.417   5.309  13.690  0.5200  0.2055 -0.4417
 2178TIP3    H228026   4.443   5.456  13.720 -1.5250  0.2916  1.1179
 2179TIP3   OH228027   4.484   1.717   0.893  0.1556  0.2153 -0.0487
 2179TIP3    H128028   4.434   1.705   0.813  1.0127  1.3518 -0.7769
 2179TIP3    H228029   4.430   1.774   0.947  0.6056  1.3651 -0.7929
 2180TIP3   OH228030   6.002   4.949  12.347 -0.3639 -0.1376 -0.6284
 2180TIP3    H128031   6.054   5.023  12.314 -0.6291  0.9356  1.2438
 2180TIP3    H228032   5.920   4.954  12.297  0.0428  0.1765 -1.2782
 2181TIP3   OH228033   5.017   5.466  10.910 -0.5355  0.3934 -0.6500
 2181TIP3    H128034   5.081   5.504  10.970 -0.8647  0.7637 -0.5285
 2181TIP3    H228035   4.963   5.540  10.882 -1.0416  0.0555 -0.5896
 2182TIP3   OH228036   1.677   4.741   3.000  0.0205 -0.3089  0.1186
 2182TIP3    H128037   1.737   4.753   3.073  1.2104 -1.5685 -0.5950
 2182TIP3    H228038   1.591   4.728   3.041  0.3158  0.8978  1.1827
 2183TIP3   OH228039   6.188   4.947   2.441 -0.5195  0.0773  0.1480
 2183TIP3    H128040   6.207   4.906   2.357 -2.4500 -0.4891 -0.0752
 2183TIP3    H228041   6.144   4.878   2.491 -1.4469  1.0788  0.7626
 2184TIP3   OH228042   2.777   5.815   4.272 -0.4367 -0.3147 -0.1503
 2184TIP3    H128043   2.837   5.888   4.259  0.9560 -0.9138  2.2216
 2184TIP3    H228044   2.825   5.753   4.327 -3.3804 -0.4943  2.5857
 2185TIP3   OH228045   0.323   4.487  10.378  0.6541  0.6330  0.3129
 2185TIP3    H128046   0.375   4.410  10.403  0.8652  0.2892 -1.0948
 2185TIP3    H228047   0.382   4.561  10.392  0.0914  0.7018  2.7272
 2186TIP3   OH228048   2.227   5.276   6.053 -0.3283  0.3146  0.3135
 2186TIP3    H128049   2.225   5.298   5.960 -0.3696 -1.2098 -0.0762
 2186TIP3    H228050   2.243   5.360   6.097 -2.2983  1.4272 -0.9132
 2187TIP3   OH228051   3.569   3.458  12.305 -0.5416  0.7989  0.0584
 2187TIP3    H128052   3.569   3.548  12.273 -1.4128  0.9557  0.4710
 2187TIP3    H228053   3.533   3.407  12.232 -1.4820  1.0000  0.3804
 2188TIP3   OH228054   0.480   1.438  16.157 -0.5988 -0.0450  0.1839
 2188TIP3    H128055   0.543   1.487  16.211 -0.0983 -0.2509 -0.2031
 2188TIP3    H228056   0.397   1.448  16.203 -0.8323  2.3305 -0.6082
 2189TIP3   OH228057   4.815   4.834   3.487  0.0595  0.2821  0.2420
 2189TIP3    H128058   4.773   4.920   3.487  1.1960  0.8800 -1.0466
 2189TIP3    H228059   4.793   4.797   3.401  1.2615  0.1781 -0.0421
 2190TIP3   OH228060   6.364   1.240  14.923 -0.6998 -0.0749  0.5942
 2190TIP3    H128061   6.306   1.236  14.847  0.2088  0.5636 -0.1568
 2190TIP3    H228062   6.426   1.310  14.902 -1.4073  1.2603  2.6311
 2191TIP3   OH228063   6.368   5.400   2.890  0.2215  0.2338 -0.2886
 2191TIP3    H128064   6.433   5.351   2.941  1.1054  1.9702  0.3703
 2191TIP3    H228065   6.328   5.459   2.954  0.6509  1.7609 -1.3708
 2192TIP3   OH228066   3.711   3.251   2.351  0.5281 -0.3289  0.2380
 2192TIP3    H128067   3.766   3.323   2.318 -1.4174  2.0546  1.8992
 2192TIP3    H228068   3.690   3.276   2.441 -5.1735  0.2886 -0.8940
 2193TIP3   OH228069   6.652   4.079  16.051  0.2285 -0.2670  0.6648
 2193TIP3    H128070   6.705   4.123  15.984  0.7595 -1.1657  0.4825
 2193TIP3    H228071   6.686   3.990  16.054 -0.8553 -0.6808  1.0090
 2194TIP3   OH228072   5.650   1.464  17.054  0.5530  0.2168  0.1004
 2194TIP3    H128073   5.614   1.437  17.138  1.0647  0.0425  0.2719
 2194TIP3    H228074   5.622   1.555  17.043  1.4055  0.6104  0.9948
 2195TIP3   OH228075   3.247   3.803  16.050 -0.0627 -0.3934  0.2802
 2195TIP3    H128076   3.281   3.747  15.980  1.4649  1.4335 -0.5151
 2195TIP3    H228077   3.206   3.876  16.004  1.7275  1.2847  1.2462
 2196TIP3   OH228078   1.263   6.745  14.290  0.0670 -0.0528  0.3700
 2196TIP3    H128079   1.353   6.711  14.288  0.8439  1.8211  1.3551
 2196TIP3    H228080   1.272   6.838  14.271 -1.8971 -0.1261 -1.2977
 2197TIP3   OH228081   5.437   2.723  11.839 -0.4891 -0.1506 -0.4229
 2197TIP3    H128082   5.384   2.767  11.905  1.3725  0.9101  0.4320
 2197TIP3    H228083   5.457   2.790  11.774  0.7327 -0.2248 -0.1417
 2198TIP3   OH228084   2.576   5.663  13.755  0.6847 -0.6799  0.3180
 2198TIP3    H128085   2.587   5.660  13.660  0.8357 -1.6899  0.3560
 2198TIP3    H228086   2.598   5.753  13.779  0.7743 -0.4507 -0.5883
 2199TIP3   OH228087   0.875   0.682   2.686 -0.2291 -0.4948 -0.4144
 2199TIP3    H128088   0.872   0.596   2.643 -1.2847 -1.0344  0.6905
 2199TIP3    H228089   0.929   0.735   2.628  0.9094 -2.0500 -0.8439
 2200TIP3   OH228090   3.499   4.288  12.427  0.5305 -0.1598 -0.3311
 2200TIP3    H128091   3.548   4.284  12.510 -2.8763 -3.5262  1.8514
 2200TIP3    H228092   3.549   4.233  12.367  1.0294 -0.9907  0.8076
 2201TIP3   OH228093   4.189   0.693   2.023  0.0194 -0.0157  0.4012
 2201TIP3    H128094   4.171   0.784   2.000  0.9672  0.1861  0.4348
 2201TIP3    H228095   4.110   0.646   1.996  0.0070  0.6215 -0.7489
 2202TIP3   OH228096   4.449   5.431  12.481  1.0378  0.2555 -0.0133
 2202TIP3    H128097   4.544   5.432  12.473  1.0300  0.3620 -0.1042
 2202TIP3    H228098   4.417   5.458  12.395  0.8870 -1.5306 -0.5452
 2203TIP3   OH228099   5.250   6.590  14.767 -0.5853 -0.7599  0.2580
 2203TIP3    H128100   5.317   6.567  14.703  3.0228  2.1623  2.5868
 2203TIP3    H228101   5.251   6.517  14.829 -0.8669 -1.5388 -0.6292
 2204TIP3   OH228102   3.032   2.911   6.234 -0.5351  0.0542  0.3519
 2204TIP3    H128103   3.032   2.987   6.292 -1.0944  0.7373 -0.5229
 2204TIP3    H228104   3.111   2.920   6.182 -0.9746  0.4465 -0.2610
 2205TIP3   OH228105   5.547   0.622  11.744  0.0630  0.4657 -0.4286
 2205TIP3    H128106   5.533   0.579  11.828  0.7349 -0.6575 -0.8624
 2205TIP3    H228107   5.591   0.704  11.766 -0.6359  0.6293  0.3746
 2206TIP3   OH228108   6.535   6.012   4.987 -0.1449  0.3193  0.3327
 2206TIP3    H128109   6.562   5.944   5.048  1.3138  0.4862 -0.0901
 2206TIP3    H228110   6.614   6.064   4.971 -1.2118  2.1712  0.6906
 2207TIP3   OH228111   5.384   0.598  12.232 -0.6288  0.2504  0.4594
 2207TIP3    H128112   5.402   0.520  12.285  2.3927 -0.4745 -1.3745
 2207TIP3    H228113   5.306   0.575  12.182  0.6224 -2.0846 -0.6345
 2208TIP3   OH228114   2.721   3.946  13.010  0.3988  0.0776 -0.3828
 2208TIP3    H128115   2.803   3.898  13.021 -0.3302 -0.9843  0.6670
 2208TIP3    H228116   2.714   3.999  13.089 -0.0692 -0.0595 -0.3322
 2209TIP3   OH228117   6.421   2.646   4.191 -0.7013 -0.1901 -0.4369
 2209TIP3    H128118   6.366   2.594   4.250  0.6280 -2.1392 -0.8215
 2209TIP3    H228119   6.505   2.652   4.237 -0.7319  1.4297 -0.5422
 2210TIP3   OH228120   0.141   3.217   4.687 -0.0132  0.3238  0.6646
 2210TIP3    H128121   0.092   3.296   4.662  0.2478  1.4171  3.2492
 2210TIP3    H228122   0.218   3.217   4.630 -0.8754  0.9699 -0.5437
 2211TIP3   OH228123   0.244   1.552  14.206 -0.1762 -0.1950 -0.1720
 2211TIP3    H128124   0.197   1.471  14.226  0.2554 -0.8354 -1.6212
 2211TIP3    H228125   0.325   1.546  14.257 -0.2996 -0.5069 -0.0121
 2212TIP3   OH228126   2.130   5.261  14.662  0.2105 -0.0042  0.9957
 2212TIP3    H128127   2.094   5.277  14.575 -0.8975  0.2772  1.4861
 2212TIP3    H228128   2.085   5.182  14.693  1.6785 -0.9728  0.7452
 2213TIP3   OH228129   5.261   6.257   2.788  0.8912 -0.0611  0.3209
 2213TIP3    H128130   5.278   6.196   2.860  2.2086  1.4101  1.3435
 2213TIP3    H228131   5.261   6.203   2.710  0.4123 -1.5827  1.3329
 2214TIP3   OH228132   5.711   5.491   3.795  0.7733 -0.0081  0.2080
 2214TIP3    H128133   5.659   5.463   3.720 -0.1778 -1.2275  1.2716
 2214TIP3    H228134   5.660   5.561   3.835  1.2204  0.5577 -0.2030
 2215TIP3   OH228135   0.862   3.717  11.346  0.1497  0.7111 -0.1216
 2215TIP3    H128136   0.924   3.787  11.365  2.7664 -1.0017 -1.7373
 2215TIP3    H228137   0.839   3.730  11.254  0.5478 -0.4431 -0.3967
 2216TIP3   OH228138   2.806   3.022   2.112  0.2593  0.4792  0.0875
 2216TIP3    H128139   2.823   2.929   2.122 -0.5616  0.3115 -0.0440
 2216TIP3    H228140   2.718   3.035   2.148  0.3571  1.1988  0.0935
 2217TIP3   OH228141   6.590   0.808  15.391 -0.3204  0.3012  0.0268
 2217TIP3    H128142   6.555   0.896  15.406 -2.3346 -0.4528  0.0982
 2217TIP3    H228143   6.582   0.795  15.296 -1.5664 -0.3546  0.1923
 2218TIP3   OH228144   4.264   2.260  12.140 -0.5261  0.2426 -0.3964
 2218TIP3    H128145   4.294   2.351  12.143 -0.6581  0.2629  2.0058
 2218TIP3    H228146   4.344   2.208  12.143 -0.5206  0.2848  0.1951
 2219TIP3   OH228147   6.238   6.829  15.230 -0.3430 -0.1365 -0.2085
 2219TIP3    H128148   6.156   6.781  15.215 -1.1749  1.1847 -0.1014
 2219TIP3    H228149   6.274   6.843  15.143 -2.0592  2.2666 -0.6471
 2220TIP3   OH228150   3.136   2.518  13.306 -0.1145  0.9483  0.2770
 2220TIP3    H128151   3.221   2.547  13.339  1.1999 -0.8826 -1.2531
 2220TIP3    H228152   3.131   2.426  13.329 -0.5678  0.4203 -1.7160
 2221TIP3   OH228153   5.711   3.730   2.227  0.4347  0.1215 -0.0420
 2221TIP3    H128154   5.786   3.768   2.180 -0.4212  1.2370 -0.5455
 2221TIP3    H228155   5.656   3.805   2.249 -1.4761 -0.8120 -1.3576
 2222TIP3   OH228156   3.057   1.866  13.844  0.2430 -0.0548 -0.8718
 2222TIP3    H128157   2.966   1.856  13.873  0.6599 -0.8258  0.2180
 2222TIP3    H228158   3.062   1.956  13.812 -0.1118  1.1526  2.0953
 2223TIP3   OH228159   0.424   2.387   1.978  0.4429 -0.4317  0.1457
 2223TIP3    H128160   0.488   2.387   1.907 -1.0567 -1.4398 -1.2651
 2223TIP3    H228161   0.370   2.309   1.962 -1.6493  0.7986  0.8122
 2224TIP3   OH228162   0.047   2.544   0.077 -0.2083  0.0433  0.2166
 2224TIP3    H128163   0.090   2.626   0.051  0.9114 -0.6815 -0.3265
 2224TIP3    H228164  -0.044   2.569   0.092 -0.3316  1.0635 -1.7761
 2225TIP3   OH228165   2.072   4.109  17.127 -0.0133  0.1939  0.6363
 2225TIP3    H128166   2.014   4.090  17.200 -0.0213 -1.2848  0.2761
 2225TIP3    H228167   2.012   4.133  17.055 -0.0550  0.7496  0.8540
 2226TIP3   OH228168   0.028   6.504  13.871  0.5061  0.2707  0.9609
 2226TIP3    H128169  -0.047   6.557  13.901  1.0083  0.9080  1.1190
 2226TIP3    H228170   0.019   6.421  13.918 -1.1778 -0.4009 -0.4677
 2227TIP3   OH228171   5.155   4.892  13.066  0.4481 -0.1351  0.4442
 2227TIP3    H128172   5.123   4.896  13.156 -2.1243  2.1811 -0.4439
 2227TIP3    H228173   5.076   4.880  13.013  1.9203 -1.7294 -1.5666
 2228TIP3   OH228174   6.830   3.435  15.280  0.1869  0.1712 -0.2507
 2228TIP3    H128175   6.878   3.352  15.281  0.7646  0.5014 -0.5153
 2228TIP3    H228176   6.738   3.409  15.280  0.3544 -0.4996 -1.4623
 2229TIP3   OH228177   0.750   0.166   2.557 -0.0928 -0.5175 -0.0243
 2229TIP3    H128178   0.783   0.076   2.549 -1.4312 -1.1080  0.7372
 2229TIP3    H228179   0.691   0.176   2.482  2.9421  1.1342 -2.4143
 2230TIP3   OH228180   3.976   6.603  11.819  0.6626  0.0577  0.9170
 2230TIP3    H128181   3.985   6.645  11.734  1.3740 -0.4332  0.7437
 2230TIP3    H228182   4.032   6.525  11.814  1.6422  0.6372  2.2306
 2231TIP3   OH228183   3.906   0.785   1.320  0.1096 -0.3063 -0.2027
 2231TIP3    H128184   3.963   0.846   1.275  0.4888 -2.1767 -2.4159
 2231TIP3    H228185   3.965   0.719   1.358 -0.4128 -0.8210 -0.2597
 2232TIP3   OH228186   1.969   0.206  11.423  0.4744 -0.0133 -0.4660
 2232TIP3    H128187   2.046   0.246  11.463 -0.3710  0.3404  0.8616
 2232TIP3    H228188   2.004   0.153  11.351  1.8508  0.9829 -0.5690
 2233TIP3   OH228189   1.224   1.257  13.793 -0.3478 -0.3107 -0.0119
 2233TIP3    H128190   1.163   1.295  13.857  0.0942 -0.3820  0.4595
 2233TIP3    H228191   1.303   1.237  13.844  0.8226  1.6100 -0.9915
 2234TIP3   OH228192   0.344   6.797  11.804  0.1904 -0.2427 -0.1438
 2234TIP3    H128193   0.435   6.780  11.781  0.3483 -0.7468  0.7874
 2234TIP3    H228194   0.311   6.712  11.834  0.6008  0.6639  3.2986
 2235TIP3   OH228195   1.425   0.233  15.304  0.8438 -0.0384 -0.4979
 2235TIP3    H128196   1.346   0.202  15.261  1.4348 -1.0520 -0.9023
 2235TIP3    H228197   1.443   0.168  15.372  0.4958  0.9981  0.6231
 2236TIP3   OH228198   0.255   6.555  11.982  0.1141  0.0818  0.4231
 2236TIP3    H128199   0.176   6.576  12.032 -0.0270 -0.3620  0.3951
 2236TIP3    H228200   0.313   6.514  12.047  0.0620 -0.1881  0.3022
 2237TIP3   OH228201   4.340   1.961   2.632  0.0962  0.4106  0.0620
 2237TIP3    H128202   4.382   2.047   2.624  1.4297 -0.2041  0.2243
 2237TIP3    H228203   4.329   1.931   2.542 -1.2922  1.1515 -0.0472
 2238TIP3   OH228204   0.855   0.855   0.436 -0.2862  0.2872 -0.8905
 2238TIP3    H128205   0.790   0.792   0.466  0.2890 -0.8790 -2.0200
 2238TIP3    H228206   0.825   0.881   0.349  2.4179 -2.9277 -3.0297
 2239TIP3   OH228207   5.412   5.673   1.945  0.2206 -0.1892  0.4675
 2239TIP3    H128208   5.330   5.624   1.937 -0.3136  0.6464  0.6562
 2239TIP3    H228209   5.384   5.764   1.956  1.1116 -0.0923  2.2794
 2240TIP3   OH228210   4.978   6.265  14.685  0.3620  0.0424 -0.4486
 2240TIP3    H128211   5.074   6.263  14.683  0.3928 -2.6893 -2.7010
 2240TIP3    H228212   4.953   6.184  14.729 -0.9616  0.9485  0.5479
 2241TIP3   OH228213   2.564   4.563  11.972  0.2107 -0.3524 -0.2731
 2241TIP3    H128214   2.589   4.646  11.932 -0.7952 -0.4924 -1.2515
 2241TIP3    H228215   2.618   4.498  11.927 -1.2664 -0.5679 -1.8529
 2242TIP3   OH228216   0.349   3.649   0.503  0.4359  1.0457 -0.1992
 2242TIP3    H128217   0.391   3.675   0.585 -1.9689  2.4353  0.7167
 2242TIP3    H228218   0.330   3.556   0.515  1.1602  0.9604  0.3302
 2243TIP3   OH228219   2.408   1.493   2.819  0.7243  0.0184 -0.1964
 2243TIP3    H128220   2.388   1.468   2.909  0.0398 -0.7485 -0.5421
 2243TIP3    H228221   2.360   1.429   2.765 -0.4332  1.6143 -1.1289
 2244TIP3   OH228222   4.091   1.990  14.476  0.4207  0.0370  0.4346
 2244TIP3    H128223   4.144   1.910  14.472  0.0191 -0.2185  0.0498
 2244TIP3    H228224   4.005   1.963  14.442  0.5931  0.8928 -0.6977
 2245TIP3   OH228225   4.156   1.108  11.877 -0.8205 -0.0345 -0.7187
 2245TIP3    H128226   4.243   1.070  11.872  0.3203  1.9576  1.7564
 2245TIP3    H228227   4.096   1.033  11.873  0.7870 -1.3510 -4.0170
 2246TIP3   OH228228   1.510   0.457  13.544  0.2623  0.6315  0.4134
 2246TIP3    H128229   1.500   0.442  13.450 -2.1872  1.9842  0.3889
 2246TIP3    H228230   1.605   0.460  13.557  0.6871 -0.7494 -1.7856
 2247TIP3   OH228231   4.663   1.102  15.571  0.6124  0.3492  0.4828
 2247TIP3    H128232   4.637   1.141  15.488 -0.0252  0.2881  0.6413
 2247TIP3    H228233   4.634   1.011  15.565  2.2942 -0.1909  0.0231
 2248TIP3   OH228234   4.651   5.651   4.436  0.2200 -0.0717  0.3719
 2248TIP3    H128235   4.721   5.593   4.467  0.4474  0.5301  0.9955
 2248TIP3    H228236   4.590   5.655   4.509  0.9860  1.7262  0.9617
 2249TIP3   OH228237   1.274   6.611  15.137 -0.2983 -0.4799 -0.7434
 2249TIP3    H128238   1.292   6.672  15.065 -1.9255 -0.6211 -1.3226
 2249TIP3    H228239   1.189   6.639  15.170 -0.3656 -1.5148 -0.0229
 2250TIP3   OH228240   5.874   6.109   3.516  0.3140 -0.4057  0.8455
 2250TIP3    H128241   5.829   6.183   3.474  1.3978  0.4381  1.1122
 2250TIP3    H228242   5.816   6.084   3.588  0.0331  0.3504  0.8947
 2251TIP3   OH228243   6.653   2.051   3.855  0.1352  0.1009  0.3357
 2251TIP3    H128244   6.576   2.047   3.911  0.6842  0.9022  1.1823
 2251TIP3    H228245   6.713   2.110   3.901  2.0709 -2.0187  0.7373
 2252TIP3   OH228246   0.328   6.772  12.859 -0.6110  0.2187  0.1431
 2252TIP3    H128247   0.304   6.733  12.944  0.3734 -0.2635  0.2170
 2252TIP3    H228248   0.272   6.849  12.851  0.3289  1.1603  1.9644
 2253TIP3   OH228249   4.236   5.604  15.187 -0.2043  0.7241 -0.2171
 2253TIP3    H128250   4.207   5.513  15.175  0.7810  0.4541 -0.7366
 2253TIP3    H228251   4.156   5.656  15.185 -0.6937 -0.0195 -1.1943
 2254TIP3   OH228252   4.141   5.314   0.459 -0.4300  0.0282  0.2603
 2254TIP3    H128253   4.211   5.292   0.520  1.7433 -0.7383 -2.3230
 2254TIP3    H228254   4.174   5.390   0.411  0.0476 -2.0716 -2.9891
 2255TIP3   OH228255   2.953   5.678   3.185 -0.0995 -0.0122 -0.0416
 2255TIP3    H128256   2.919   5.604   3.236 -1.5356  1.5536  1.4004
 2255TIP3    H228257   3.018   5.719   3.242  0.7571 -0.1857 -0.8679
 2256TIP3   OH228258   4.210   5.919   4.285 -0.4878 -0.4200 -0.3383
 2256TIP3    H128259   4.286   5.859   4.280 -0.0905  0.1031 -0.7302
 2256TIP3    H228260   4.169   5.912   4.198 -0.0591  0.3563 -0.6140
 2257TIP3   OH228261   2.901   2.677  14.061  0.0436 -0.1997 -0.2931
 2257TIP3    H128262   2.862   2.733  13.994  1.1353 -0.6794 -1.3569
 2257TIP3    H228263   2.995   2.685  14.048  0.2650 -3.1808 -1.3206
 2258TIP3   OH228264   4.578   6.586  13.921 -0.1042 -0.9694  0.1986
 2258TIP3    H128265   4.573   6.501  13.878  0.3075 -1.5897  1.3378
 2258TIP3    H228266   4.599   6.566  14.012  0.0515  0.3543  0.4774
 2259TIP3   OH228267   3.049   0.012  13.478  0.0291 -0.2930  0.2508
 2259TIP3    H128268   3.048   0.005  13.573  0.3898  2.0223  0.5043
 2259TIP3    H228269   2.960   0.038  13.455  0.7901  3.0614  0.4890
 2260TIP3   OH228270   2.429   0.961  16.536 -0.2887 -0.1722 -0.2747
 2260TIP3    H128271   2.397   0.877  16.504 -0.9892  0.2042 -0.5794
 2260TIP3    H228272   2.376   1.026  16.491 -1.7345  0.3850  2.0269
 2261TIP3   OH228273   1.475   1.380  12.187  0.0370  0.0789  0.0037
 2261TIP3    H128274   1.528   1.439  12.241  0.6605 -1.4917  1.1892
 2261TIP3    H228275   1.391   1.425  12.177  0.1412  0.7314  1.7469
 2262TIP3   OH228276   3.902   2.016   5.495 -0.2681 -0.0338 -0.0873
 2262TIP3    H128277   3.860   2.102   5.502 -0.5064 -0.2562  1.7834
 2262TIP3    H228278   3.981   2.024   5.549  2.3616  0.4474 -3.6974
 2263TIP3   OH228279   4.148   3.427   6.260 -0.2499 -0.1013 -0.3978
 2263TIP3    H128280   4.079   3.489   6.235 -1.1192 -0.0346  1.9639
 2263TIP3    H228281   4.136   3.353   6.199  0.0767  1.4862 -2.5059
 2264TIP3   OH228282   0.678   5.708  15.832 -0.4135 -1.0967 -0.0496
 2264TIP3    H128283   0.682   5.716  15.927  0.4273  0.8218 -0.2145
 2264TIP3    H228284   0.730   5.630  15.813 -1.6737 -2.2811  1.1124
 2265TIP3   OH228285   3.364   5.112   0.193  0.2167  0.1868  0.2320
 2265TIP3    H128286   3.383   5.194   0.147 -0.7649  0.2243 -0.1302
 2265TIP3    H228287   3.351   5.138   0.284  0.6286  0.3292  0.2523
 2266TIP3   OH228288   6.522   0.374   3.955  0.1690 -0.1944  0.2357
 2266TIP3    H128289   6.593   0.417   3.908 -0.2631 -1.5085 -1.7318
 2266TIP3    H228290   6.565   0.330   4.029  0.8066  2.2422  1.4167
 2267TIP3   OH228291   2.066   2.260  14.451  0.5149  0.0050 -0.4158
 2267TIP3    H128292   2.057   2.171  14.418  0.3933 -0.1547  0.0430
 2267TIP3    H228293   2.145   2.259  14.504  1.4226  0.5789 -1.7117
 2268TIP3   OH228294   0.250   0.487  11.675  0.3901 -0.0719  0.1558
 2268TIP3    H128295   0.156   0.470  11.679  0.1756  1.2082  1.2866
 2268TIP3    H228296   0.290   0.421  11.731  0.1792 -0.6464 -0.3650
 2269TIP3   OH228297   2.353   1.992   3.380  0.7676  1.1490  1.0139
 2269TIP3    H128298   2.261   2.004   3.357  0.9023  1.0487  0.3997
 2269TIP3    H228299   2.351   1.957   3.470  0.1845  0.5836  0.7887
 2270TIP3   OH228300   5.455   4.194  12.007 -0.3420 -0.1740 -0.3211
 2270TIP3    H128301   5.462   4.260  11.937 -0.9957  1.7683  1.3516
 2270TIP3    H228302   5.371   4.152  11.990 -1.4686  1.6701  0.3443
 2271TIP3   OH228303   4.020   6.156   4.681  0.3375  0.2639 -0.5357
 2271TIP3    H128304   3.937   6.113   4.701  0.9953 -0.9464 -0.2858
 2271TIP3    H228305   4.083   6.084   4.673  1.3813  1.1569 -0.6360
 2272TIP3   OH228306   1.679   4.390  16.920 -0.6753 -0.8583 -0.3784
 2272TIP3    H128307   1.604   4.432  16.963 -0.4807 -0.1709 -0.7168
 2272TIP3    H228308   1.657   4.392  16.827  0.1704  0.1652 -0.5683
 2273TIP3   OH228309   2.374   4.583  13.584 -0.3782  0.0541 -0.1096
 2273TIP3    H128310   2.436   4.619  13.648  0.0080  0.6085 -0.7753
 2273TIP3    H228311   2.423   4.582  13.502 -2.2029  3.7951 -1.4935
 2274TIP3   OH228312   2.182   3.246   0.361 -0.1058  0.0758  0.1004
 2274TIP3    H128313   2.240   3.265   0.435  0.5011  0.0245 -0.3520
 2274TIP3    H228314   2.233   3.187   0.305 -0.6140 -0.0113 -0.2828
 2275TIP3   OH228315   6.361   3.977   4.895  0.1259 -0.3998  0.1791
 2275TIP3    H128316   6.420   4.036   4.942  3.9839 -2.9722 -0.9028
 2275TIP3    H228317   6.328   3.918   4.963 -0.5713  0.5113  0.6653
 2276TIP3   OH228318   6.797   1.545  14.972 -0.5721  0.9007  0.0190
 2276TIP3    H128319   6.855   1.611  15.009  1.4762  0.6941 -2.5166
 2276TIP3    H228320   6.788   1.570  14.880 -0.2674 -1.9139 -0.8727
 2277TIP3   OH228321   2.522   3.244  15.443 -0.1487 -0.4784  0.4216
 2277TIP3    H128322   2.520   3.201  15.528  1.1490 -2.4554 -0.4850
 2277TIP3    H228323   2.615   3.259  15.426 -0.4025  0.0739 -0.5711
 2278TIP3   OH228324   4.280   4.547  15.534 -0.2054  0.1038  0.1565
 2278TIP3    H128325   4.200   4.598  15.519 -0.2075  0.3028  0.7997
 2278TIP3    H228326   4.331   4.558  15.454 -1.1057 -0.5605 -0.5185
 2279TIP3   OH228327   5.826   3.057  16.165  0.1057  0.5824  0.3396
 2279TIP3    H128328   5.785   3.017  16.242 -0.4116  0.8685  0.2205
 2279TIP3    H228329   5.920   3.055  16.183  0.2612 -2.1813 -0.3481
 2280TIP3   OH228330   0.077   5.323  14.333 -0.0320  0.2243  0.6900
 2280TIP3    H128331   0.119   5.335  14.418  0.7439 -0.3819  0.4048
 2280TIP3    H228332   0.148   5.331  14.269 -0.3882 -0.4988  0.1746
 2281TIP3   OH228333   1.939   2.085   1.431 -0.2493  0.1528 -0.0808
 2281TIP3    H128334   1.905   2.107   1.344 -2.4306 -1.4592  0.2593
 2281TIP3    H228335   1.959   1.991   1.425  0.9467  0.3282  0.7861
 2282TIP3   OH228336   2.716   1.215  14.550  0.4460  0.0488 -0.3435
 2282TIP3    H128337   2.679   1.279  14.611  2.0588  0.8620 -0.1821
 2282TIP3    H228338   2.810   1.228  14.554  0.7016 -1.0351 -1.7648
 2283TIP3   OH228339   1.885   1.246  13.979 -0.4062 -0.1084  0.4591
 2283TIP3    H128340   1.847   1.160  13.996  0.1782 -0.6416 -0.7905
 2283TIP3    H228341   1.926   1.272  14.062  0.2711 -1.4944  0.5841
 2284TIP3   OH228342   0.644   5.301   3.696 -0.1905 -0.3257  0.0833
 2284TIP3    H128343   0.581   5.346   3.752  0.4547  0.7001  0.0156
 2284TIP3    H228344   0.729   5.337   3.722  0.2259 -0.6579 -0.7766
 2285TIP3   OH228345   2.518   5.307  16.344  0.1449 -0.6017  0.1142
 2285TIP3    H128346   2.520   5.216  16.313  3.5791 -0.8245  0.5435
 2285TIP3    H228347   2.585   5.351  16.290 -1.4867  1.7342 -0.1372
 2286TIP3   OH228348   4.661   2.559   0.895  0.1079  0.1341  0.2625
 2286TIP3    H128349   4.656   2.622   0.967  3.2289  1.1808 -0.2791
 2286TIP3    H228350   4.660   2.474   0.937  0.6117  0.6942  1.4548
 2287TIP3   OH228351   6.766   3.069   3.759 -0.3007 -0.6777  0.3183
 2287TIP3    H128352   6.748   3.102   3.671 -3.8925  0.3416  1.2652
 2287TIP3    H228353   6.726   2.982   3.762 -1.3465 -0.1929  1.2522
 2288TIP3   OH228354   4.757   3.997   0.655  0.6457  0.8028 -0.3137
 2288TIP3    H128355   4.714   3.979   0.739  1.6604 -1.9731 -0.2578
 2288TIP3    H228356   4.706   3.947   0.592  1.7925  0.1958 -0.7803
 2289TIP3   OH228357   0.227   5.883  10.567 -0.4681  0.6362 -0.3961
 2289TIP3    H128358   0.226   5.970  10.526 -3.3874  0.9480  0.1445
 2289TIP3    H228359   0.181   5.827  10.505 -0.1032 -0.1438  0.0296
 2290TIP3   OH228360   5.120   2.846   3.753 -0.3915  0.1394 -0.3836
 2290TIP3    H128361   5.207   2.883   3.737  0.3947 -1.5765 -0.2262
 2290TIP3    H228362   5.137   2.762   3.796 -1.8666 -2.3344 -4.1759
 2291TIP3   OH228363   5.855   3.982   2.443  0.1620 -0.1564  0.3873
 2291TIP3    H128364   5.855   3.971   2.348 -0.0238 -0.5111  0.4261
 2291TIP3    H228365   5.816   3.901   2.476  1.7351 -0.7521  0.8419
 2292TIP3   OH228366   6.547   3.950   5.163  0.2232 -0.7116  0.3212
 2292TIP3    H128367   6.579   3.935   5.074  0.3765  0.8288  0.0907
 2292TIP3    H228368   6.626   3.974   5.213 -0.0226 -0.5305  0.6236
 2293TIP3   OH228369   1.933   2.377  10.847 -0.1059  0.1870 -0.0500
 2293TIP3    H128370   2.006   2.365  10.907  0.8584  1.4042 -0.9492
 2293TIP3    H228371   1.940   2.304  10.786 -1.3463 -1.3168  1.4770
 2294TIP3   OH228372   1.904   6.332  14.822  0.4011  0.2408 -0.0808
 2294TIP3    H128373   1.838   6.276  14.862  0.3595  1.6911  2.0571
 2294TIP3    H228374   1.937   6.282  14.747 -2.8345 -0.6749 -1.0433
 2295TIP3   OH228375   3.127   5.057  13.487  0.3725 -0.1913 -0.4588
 2295TIP3    H128376   3.102   4.965  13.487 -0.1531 -0.0800  1.4870
 2295TIP3    H228377   3.204   5.061  13.429  1.1553 -2.0586  0.3768
 2296TIP3   OH228378   3.563   2.738   3.954 -0.4586  0.2046 -0.1802
 2296TIP3    H128379   3.650   2.770   3.932 -0.3824  1.2762  1.4787
 2296TIP3    H228380   3.562   2.736   4.050 -3.2332  3.2818  0.0426
 2297TIP3   OH228381   4.010   3.351  12.135 -0.1865 -0.4756 -0.0444
 2297TIP3    H128382   3.919   3.326  12.151 -0.2817 -0.3317 -0.3519
 2297TIP3    H228383   4.004   3.429  12.080  0.1358 -0.8497 -0.6125
 2298TIP3   OH228384   4.781   3.360   2.325 -0.1154 -0.0668 -0.0735
 2298TIP3    H128385   4.805   3.433   2.383 -0.9063 -0.0127  0.1940
 2298TIP3    H228386   4.727   3.302   2.379  0.4997 -0.8572 -0.2862
 2299TIP3   OH228387   4.495   3.827  16.228  0.4234  0.6270 -0.3701
 2299TIP3    H128388   4.427   3.893  16.224 -1.2364 -1.0697 -1.8065
 2299TIP3    H228389   4.556   3.850  16.158  1.6100  2.3089  1.0995
 2300TIP3   OH228390   5.768   4.955   5.092 -0.2279 -0.1334 -0.2585
 2300TIP3    H128391   5.786   4.861   5.085  0.2477 -0.0629 -0.0318
 2300TIP3    H228392   5.850   4.993   5.123 -1.2057  0.0030  2.3635
 2301TIP3   OH228393   6.789   3.826  16.084  0.5180 -0.5096 -0.5100
 2301TIP3    H128394   6.828   3.830  15.996  2.5081 -0.3214  0.3427
 2301TIP3    H228395   6.827   3.747  16.123  0.2521 -0.1583  0.4636
 2302TIP3   OH228396   3.389   1.652  12.127  0.2671  0.7209  0.1425
 2302TIP3    H128397   3.333   1.689  12.196 -1.3405  1.8752 -1.6866
 2302TIP3    H228398   3.474   1.693  12.141  0.0627  0.7090  1.5885
 2303TIP3   OH228399   3.924   6.296   3.721  0.0459  0.4377 -0.7048
 2303TIP3    H128400   3.960   6.244   3.649  0.4540  0.0396 -0.2255
 2303TIP3    H228401   3.831   6.274   3.723 -0.2997  1.6119 -2.0732
 2304TIP3   OH228402   2.977   0.030   0.149  0.1764  0.3117 -0.6425
 2304TIP3    H128403   2.963   0.121   0.124  0.6612  1.0968  1.7070
 2304TIP3    H228404   2.896   0.006   0.194  1.3428  0.7869  1.8573
 2305TIP3   OH228405   3.103   5.551  13.206 -0.1770  0.3748  0.4923
 2305TIP3    H128406   3.187   5.586  13.234 -0.5132  1.4660  0.1928
 2305TIP3    H228407   3.051   5.545  13.287  0.0076  0.1913  0.5986
 2306TIP3   OH228408   6.839   0.065   1.299 -0.5626  0.3573 -0.6099
 2306TIP3    H128409   6.826   0.153   1.264 -2.3893 -0.7007 -2.8867
 2306TIP3    H228410   6.916   0.032   1.253 -0.3725  0.4538 -0.3663
 2307TIP3   OH228411   0.551   6.571  16.685 -0.2317  0.2906 -0.7521
 2307TIP3    H128412   0.617   6.564  16.616  0.9698 -2.7736  0.5041
 2307TIP3    H228413   0.589   6.629  16.750  0.9176 -0.7502 -0.4515
 2308TIP3   OH228414   1.367   1.562   6.178  0.0404 -0.6667  0.2240
 2308TIP3    H128415   1.384   1.601   6.092  0.1316  0.2910  0.6668
 2308TIP3    H228416   1.283   1.599   6.206 -0.1467 -1.2190  0.4131
 2309TIP3   OH228417   2.176   3.643  13.746 -0.3135  0.3414  0.3442
 2309TIP3    H128418   2.169   3.596  13.829 -1.7260  1.4761  0.9233
 2309TIP3    H228419   2.213   3.728  13.770 -3.5557  1.9052  0.4509
 2310TIP3   OH228420   0.907   6.193  15.912 -0.2455  0.5221  0.1792
 2310TIP3    H128421   1.002   6.188  15.902 -0.4306 -0.3913 -1.5227
 2310TIP3    H228422   0.893   6.269  15.968  1.4162  2.0103 -1.2934
 2311TIP3   OH228423   2.439   1.266  16.942 -0.1826 -0.1508 -0.5806
 2311TIP3    H128424   2.449   1.175  16.914  1.1415 -0.6987  1.4917
 2311TIP3    H228425   2.395   1.260  17.027  1.0949  1.0256  0.2052
 2312TIP3   OH228426   2.469   5.463   1.691  0.5981  0.1531 -0.7146
 2312TIP3    H128427   2.453   5.412   1.611 -1.2094 -0.8383  0.2075
 2312TIP3    H228428   2.482   5.398   1.759  2.3360  0.9908 -0.1836
 2313TIP3   OH228429   3.742   2.480  13.143  0.3014 -0.6119 -0.7012
 2313TIP3    H128430   3.730   2.459  13.236  2.1581 -1.1143 -0.5499
 2313TIP3    H228431   3.661   2.450  13.102 -0.9284  0.3994  0.8487
 2314TIP3   OH228432   5.466   6.819   0.770 -0.5046 -0.3946  0.0280
 2314TIP3    H128433   5.410   6.846   0.698 -0.6469 -0.0321  0.2745
 2314TIP3    H228434   5.522   6.895   0.787 -1.4356  0.0411  1.2384
 2315TIP3   OH228435   4.497   1.260  11.078 -0.3428  0.2700 -0.3036
 2315TIP3    H128436   4.461   1.344  11.106  0.1222 -0.1683  1.8073
 2315TIP3    H228437   4.571   1.283  11.021 -0.2344  1.2918  0.2296
 2316TIP3   OH228438   3.886   1.262   4.839  0.1120 -0.2727 -0.3937
 2316TIP3    H128439   3.968   1.289   4.881  0.1549  0.4288 -0.9139
 2316TIP3    H228440   3.913   1.221   4.757 -0.0625  0.1248 -0.6527
 2317TIP3   OH228441   5.875   6.583   0.631 -0.1532  0.0803  0.9390
 2317TIP3    H128442   5.782   6.581   0.651 -0.7407 -1.4306 -1.4873
 2317TIP3    H228443   5.902   6.491   0.632  0.6557  0.2575 -0.8932
 2318TIP3   OH228444   3.582   6.638  11.381 -0.3331 -0.0778 -0.2058
 2318TIP3    H128445   3.662   6.691  11.381  0.0214 -0.5667  0.9908
 2318TIP3    H228446   3.607   6.558  11.426 -2.0042  0.6025  2.1089
 2319TIP3   OH228447   5.236   4.464  14.024  0.3524  0.1720 -0.0744
 2319TIP3    H128448   5.229   4.396  13.957 -0.0525  0.6003 -0.4715
 2319TIP3    H228449   5.281   4.421  14.097  0.3449 -0.4416 -0.4232
 2320TIP3   OH228450   3.836   1.502   0.088  0.0178 -0.1374  0.1956
 2320TIP3    H128451   3.801   1.589   0.103  0.4939  0.1849 -0.4779
 2320TIP3    H228452   3.805   1.479   0.000 -0.8868 -1.0410  0.7356
 2321TIP3   OH228453   2.165   3.758  11.888 -0.0526 -0.4063  0.1553
 2321TIP3    H128454   2.093   3.807  11.848  1.0381  0.3520 -0.9421
 2321TIP3    H228455   2.180   3.684  11.830  2.0948  1.1567 -1.4419
 2322TIP3   OH228456   5.323   1.160  12.536  0.3806 -0.0390  0.7064
 2322TIP3    H128457   5.355   1.192  12.451 -0.1581 -2.5215 -0.5183
 2322TIP3    H228458   5.279   1.235  12.575 -0.7227  0.7966 -1.9336
 2323TIP3   OH228459   0.230   5.555  10.197  0.7590  0.3293 -0.1256
 2323TIP3    H128460   0.288   5.629  10.214 -0.1837  1.2183 -0.6997
 2323TIP3    H228461   0.282   5.498  10.140  0.8993  1.3737 -1.0785
 2324TIP3   OH228462   2.919   5.457  13.556 -0.1488 -0.4569  0.3466
 2324TIP3    H128463   2.919   5.457  13.652 -0.7183 -0.2852  0.3519
 2324TIP3    H228464   3.007   5.485  13.532  0.0760 -0.7353  0.8185
 2325TIP3   OH228465   4.153   6.738   1.621  0.0160  0.2619  0.0238
 2325TIP3    H128466   4.079   6.707   1.673 -0.0006  1.1867  0.5704
 2325TIP3    H228467   4.222   6.753   1.685  0.7665 -0.8183 -0.5118
 2326TIP3   OH228468   6.439   0.832   4.528  0.0538 -0.4971 -0.2391
 2326TIP3    H128469   6.396   0.902   4.480  1.4633  1.5753  1.3038
 2326TIP3    H228470   6.472   0.772   4.461 -1.6050  0.0444 -1.5896
 2327TIP3   OH228471   5.237   5.128   2.067  0.2162 -0.0525 -0.0912
 2327TIP3    H128472   5.273   5.115   2.155 -0.8839 -2.0350  0.1410
 2327TIP3    H228473   5.151   5.085   2.071 -0.4965  1.1368 -1.7226
 2328TIP3   OH228474   4.778   3.157   3.620 -0.1766 -0.2180  0.9941
 2328TIP3    H128475   4.690   3.191   3.605 -0.4360 -1.5395 -0.7478
 2328TIP3    H228476   4.770   3.102   3.698 -0.8023 -0.0075  1.0804
 2329TIP3   OH228477   2.112   2.906  12.712 -0.5557  0.0836  0.0344
 2329TIP3    H128478   2.105   2.834  12.774 -1.4670  1.3342  1.4317
 2329TIP3    H228479   2.207   2.917  12.699 -0.3741 -0.4869  0.8304
 2330TIP3   OH228480   4.328   0.250  16.404 -0.8994 -0.8917 -0.2832
 2330TIP3    H128481   4.323   0.254  16.500  1.0679 -1.7388 -0.0881
 2330TIP3    H228482   4.276   0.324  16.374 -3.4218 -1.8670  1.3443
 2331TIP3   OH228483   5.130   4.720   1.782  0.1544 -0.1937 -0.5311
 2331TIP3    H128484   5.095   4.751   1.699 -1.8485 -0.0197  0.3018
 2331TIP3    H228485   5.114   4.626   1.781 -0.5123 -0.0948 -0.0924
 2332TIP3   OH228486   3.128   0.270  11.910 -0.1998  0.2073 -0.4942
 2332TIP3    H128487   3.165   0.358  11.899  2.5189 -0.6784  0.5726
 2332TIP3    H228488   3.099   0.268  12.001  2.2405 -0.7437  0.3378
 2333TIP3   OH228489   3.171   2.611   6.137  0.2647 -0.2035  0.3026
 2333TIP3    H128490   3.173   2.515   6.143 -0.0267 -0.2029  0.4319
 2333TIP3    H228491   3.173   2.641   6.228  0.4811 -0.0841  0.2579
 2334TIP3   OH228492   5.933   3.592   0.295 -0.2291  0.1278  0.6537
 2334TIP3    H128493   5.880   3.519   0.263  0.4668  0.3276 -1.0698
 2334TIP3    H228494   5.936   3.581   0.390 -1.5308 -1.1119  0.5744
 2335TIP3   OH228495   5.582   5.833   2.173  0.1712 -0.3351 -0.2282
 2335TIP3    H128496   5.670   5.847   2.138  0.3738  1.4443  0.8840
 2335TIP3    H228497   5.532   5.800   2.098  1.8802 -1.9372 -0.7370
 2336TIP3   OH228498   3.985   0.996   5.740 -0.3490 -0.3792  0.4562
 2336TIP3    H128499   4.019   0.982   5.652 -1.7108 -0.1662 -0.1259
 2336TIP3    H228500   3.980   0.909   5.779 -3.1878 -0.9920 -1.0211
 2337TIP3   OH228501   3.772   5.892   1.302 -0.9407 -0.8346 -0.3776
 2337TIP3    H128502   3.828   5.890   1.380 -2.3334 -0.9877  0.6546
 2337TIP3    H228503   3.684   5.881   1.336 -2.3551  4.6376 -1.3298
 2338TIP3   OH228504   3.944   6.482   2.321 -0.6099  0.3427 -0.0995
 2338TIP3    H128505   3.935   6.393   2.287 -1.1858  0.6150 -0.6802
 2338TIP3    H228506   3.886   6.484   2.398  0.1509 -0.0616  0.5024
 2339TIP3   OH228507   0.946   1.944  15.591  0.4723  0.2236  0.0871
 2339TIP3    H128508   0.893   1.936  15.670 -0.0288  0.5189 -0.2196
 2339TIP3    H228509   1.034   1.916  15.619 -0.1963 -1.9730  0.1728
 2340TIP3   OH228510   4.809   2.850  13.795  0.0534  0.4317 -0.0121
 2340TIP3    H128511   4.727   2.869  13.750 -0.6900  0.8031  1.4168
 2340TIP3    H228512   4.850   2.936  13.807 -0.2979  0.4841  0.9542
 2341TIP3   OH228513   6.085   0.506   5.474  0.3602  0.1619  0.1787
 2341TIP3    H128514   6.030   0.567   5.427  2.0025  0.0159 -2.1167
 2341TIP3    H228515   6.035   0.425   5.477 -0.3172  0.5677 -0.1058
 2342TIP3   OH228516   0.161   0.536  13.080  0.3262  0.6170  0.7632
 2342TIP3    H128517   0.074   0.554  13.044 -0.6885 -1.2891  2.1014
 2342TIP3    H228518   0.155   0.564  13.171 -0.1836 -2.8215  1.9271
 2343TIP3   OH228519   4.813   6.421  13.585 -0.3706 -0.1721  0.1309
 2343TIP3    H128520   4.807   6.396  13.493  1.5076  0.4605 -0.2143
 2343TIP3    H228521   4.726   6.403  13.621 -1.8116  1.5290 -2.2405
 2344TIP3   OH228522   3.889   5.428  17.102 -0.2472  0.7250 -0.7526
 2344TIP3    H128523   3.841   5.505  17.072 -1.3470  1.3348  2.2540
 2344TIP3    H228524   3.936   5.458  17.180 -0.0404 -1.4468  0.0183
 2345TIP3   OH228525   1.987   3.328   4.502 -0.7355  0.5112 -0.3759
 2345TIP3    H128526   1.976   3.234   4.511 -0.1489  0.5442  0.8749
 2345TIP3    H228527   2.028   3.339   4.416 -0.8977 -0.3568 -0.5735
 2346TIP3   OH228528   6.780   5.358   0.000 -0.3935 -0.2072  0.1228
 2346TIP3    H128529   6.847   5.309  -0.048  0.4988  0.6461  0.4456
 2346TIP3    H228530   6.709   5.296   0.013 -0.5055 -0.5686 -1.9628
 2347TIP3   OH228531   1.522   4.569   2.771  0.1077 -0.2471  0.2997
 2347TIP3    H128532   1.614   4.579   2.747 -0.7805  1.3511 -3.1490
 2347TIP3    H228533   1.486   4.658   2.766 -2.0047 -1.0833 -0.4451
 2348TIP3   OH228534   1.777   3.568  15.838 -0.2392  0.1548 -0.0764
 2348TIP3    H128535   1.719   3.550  15.912 -2.6548  3.1196 -1.0557
 2348TIP3    H228536   1.775   3.487  15.787 -0.8926 -0.9422  1.5971
 2349TIP3   OH228537   6.499   5.021  13.555 -0.1152 -0.2685 -0.5797
 2349TIP3    H128538   6.420   4.968  13.560  0.1462 -0.5749  0.7728
 2349TIP3    H228539   6.472   5.101  13.511 -1.5888  0.3080  1.2268
 2350TIP3   OH228540   3.164   2.964   3.727 -0.3514  0.5138 -0.4093
 2350TIP3    H128541   3.092   3.022   3.753 -1.4449 -0.5925 -0.8373
 2350TIP3    H228542   3.138   2.931   3.641  0.9676  0.5296 -0.8276
 2351TIP3   OH228543   1.447   0.301  12.242 -0.1110 -0.5279 -0.2108
 2351TIP3    H128544   1.522   0.351  12.211  0.6437 -0.1498  2.0342
 2351TIP3    H228545   1.381   0.367  12.262 -1.2862 -0.8873 -2.6124
 2352TIP3   OH228546   6.146   4.425  15.762  0.6294  0.0073 -0.3279
 2352TIP3    H128547   6.068   4.394  15.808  0.1134  0.8170 -0.6294
 2352TIP3    H228548   6.219   4.380  15.805 -0.0297 -1.0754 -0.3150
 2353TIP3   OH228549   6.614   5.124  14.029  0.2747 -0.6294 -0.0888
 2353TIP3    H128550   6.586   5.216  14.032  1.1693 -0.3551 -0.0494
 2353TIP3    H228551   6.709   5.128  14.028  0.3192 -1.5169 -1.4215
 2354TIP3   OH228552   2.475   6.655   2.479 -0.5266 -0.5316 -0.4332
 2354TIP3    H128553   2.533   6.732   2.473  0.3642 -1.2603 -1.6180
 2354TIP3    H228554   2.517   6.599   2.545 -2.2093  0.7921  1.8916
 2355TIP3   OH228555   5.992   5.500  15.758 -0.3228  0.1681  0.2225
 2355TIP3    H128556   6.074   5.452  15.773 -0.5797 -1.0129 -1.8527
 2355TIP3    H228557   5.953   5.458  15.682 -1.6463  2.3471 -0.3821
 2356TIP3   OH228558   0.407   2.425  12.112 -0.4549 -0.2860 -0.2961
 2356TIP3    H128559   0.440   2.465  12.192 -0.1098  0.2529 -0.7092
 2356TIP3    H228560   0.408   2.495  12.047 -3.7446  0.2132  0.0059
 2357TIP3   OH228561   6.097   0.989  10.378  0.3303 -0.2395  0.7104
 2357TIP3    H128562   6.051   0.928  10.435 -1.0317  0.2043  0.1347
 2357TIP3    H228563   6.127   0.935  10.305 -0.9240 -0.2477  0.1703
 2358TIP3   OH228564   0.104   6.251  17.013 -0.3427  0.2082  0.0108
 2358TIP3    H128565   0.153   6.215  16.940 -1.1958  0.6360 -0.7873
 2358TIP3    H228566   0.101   6.179  17.077  1.7330  0.3367  0.3247
 2359TIP3   OH228567   2.532   3.615   0.712 -0.2297  0.4675 -0.1954
 2359TIP3    H128568   2.624   3.623   0.737  0.0018 -0.0329 -0.8808
 2359TIP3    H228569   2.518   3.687   0.650 -0.8229  1.7517  1.3608
 2360TIP3   OH228570   3.444   1.168  16.938 -0.2387 -0.1491  0.0979
 2360TIP3    H128571   3.490   1.197  16.859  1.8771 -0.4574  1.1271
 2360TIP3    H228572   3.467   1.233  17.005 -0.0555 -1.1390  1.0259
 2361TIP3   OH228573   6.270   6.159   5.844  0.3576 -0.4108  0.1814
 2361TIP3    H128574   6.330   6.219   5.889  0.1461  0.1611 -0.2705
 2361TIP3    H228575   6.183   6.198   5.857  0.1180 -1.0544  0.5496
 2362TIP3   OH228576   2.455   1.811   2.255  0.2702 -0.2956  0.1986
 2362TIP3    H128577   2.455   1.890   2.202 -1.0442  0.0986  0.7358
 2362TIP3    H228578   2.546   1.802   2.284  0.3455  1.3705  0.6199
 2363TIP3   OH228579   4.336   0.137  16.117 -0.5474 -0.3295 -0.1319
 2363TIP3    H128580   4.426   0.139  16.149 -0.3020 -2.9600 -0.4217
 2363TIP3    H228581   4.283   0.125  16.196 -0.4526 -0.9415 -0.1608
 2364TIP3   OH228582   2.666   6.657   2.215 -0.0776  0.0982  0.5892
 2364TIP3    H128583   2.695   6.670   2.306  2.9708 -2.1553  0.0926
 2364TIP3    H228584   2.588   6.602   2.223 -0.5008  0.8244  1.8479
 2365TIP3   OH228585   1.534   5.055  15.590 -0.0186  0.1304  0.2295
 2365TIP3    H128586   1.545   4.985  15.655 -0.3899  0.6284  0.8346
 2365TIP3    H228587   1.560   5.135  15.636 -1.6509  0.6908  0.2358
 2366TIP3   OH228588   5.903   1.061   3.148  0.0605 -0.1421  0.3622
 2366TIP3    H128589   5.811   1.058   3.123 -0.1616  1.9549  0.7855
 2366TIP3    H228590   5.950   1.041   3.067 -0.7424  2.2939 -0.8045
 2367TIP3   OH228591   3.380   2.150   1.704  0.0288 -0.2694  0.1734
 2367TIP3    H128592   3.295   2.140   1.746  0.5211  1.0732  1.5423
 2367TIP3    H228593   3.422   2.222   1.750  2.1478 -1.2565 -0.0920
 2368TIP3   OH228594   5.117   2.478  12.611 -0.2365 -0.2672 -0.5388
 2368TIP3    H128595   5.167   2.411  12.657 -1.5664 -1.7456 -1.1770
 2368TIP3    H228596   5.169   2.499  12.534 -0.6824 -2.0184 -1.3662
 2369TIP3   OH228597   4.068   3.999  16.606 -0.1427  0.6803 -0.2069
 2369TIP3    H128598   3.981   3.975  16.576  0.2481  0.0631 -0.8789
 2369TIP3    H228599   4.079   4.090  16.578 -0.6024  0.7877 -0.0425
 2370TIP3   OH228600   0.006   0.000   5.157  0.2571  0.1504 -0.4838
 2370TIP3    H128601   0.089  -0.007   5.204  0.2401  1.4496 -0.2076
 2370TIP3    H228602   0.028  -0.021   5.066  0.7941  0.0152 -0.3262
 2371TIP3   OH228603   6.191   3.470   1.528  0.1482  0.1256 -0.4411
 2371TIP3    H128604   6.256   3.485   1.597 -0.0708  0.9006 -0.3966
 2371TIP3    H228605   6.225   3.517   1.452 -0.4503  0.7028 -0.3602
 2372TIP3   OH228606   5.681   0.352  12.327 -0.3526  0.0778  0.0865
 2372TIP3    H128607   5.697   0.438  12.366 -1.3904 -0.4995  1.9297
 2372TIP3    H228608   5.741   0.294  12.373 -0.8516 -0.4599  0.0680
 2373TIP3   OH228609   2.256   2.317  15.244  0.0587  0.5793 -0.7041
 2373TIP3    H128610   2.342   2.276  15.239 -0.5155 -0.6515 -0.7363
 2373TIP3    H228611   2.257   2.365  15.327  0.4243 -0.2477 -0.2257
 2374TIP3   OH228612   4.596   5.050   5.235  0.2856  0.4718 -0.3733
 2374TIP3    H128613   4.685   5.032   5.204  0.8587  1.4292  0.6665
 2374TIP3    H228614   4.576   5.138   5.203 -0.9807 -0.3528 -2.0518
 2375TIP3   OH228615   6.590   5.125   5.587 -0.2483  0.6030 -0.0886
 2375TIP3    H128616   6.518   5.183   5.560 -1.7929 -0.6459  1.1789
 2375TIP3    H228617   6.647   5.181   5.639 -1.3579  1.1753  0.5532
 2376TIP3   OH228618   2.186   0.528   1.979 -0.2685  0.3243 -0.9258
 2376TIP3    H128619   2.209   0.463   2.046 -0.4394  0.3355 -0.8568
 2376TIP3    H228620   2.256   0.593   1.983 -0.2282  0.2743 -0.8250
 2377TIP3   OH228621   6.488   1.810  12.980  0.0716 -0.2027  0.2034
 2377TIP3    H128622   6.495   1.904  12.959  0.6048  0.2958  2.3640
 2377TIP3    H228623   6.514   1.766  12.900 -0.0707  1.5020 -0.8435
 2378TIP3   OH228624   5.534   4.165  16.048 -0.3073  0.5179  0.2029
 2378TIP3    H128625   5.482   4.085  16.053  0.0881  0.2512  0.0272
 2378TIP3    H228626   5.559   4.184  16.138 -0.0751  0.2322  0.1977
 2379TIP3   OH228627   1.803   2.779  14.732  0.0498  0.3693 -0.3064
 2379TIP3    H128628   1.844   2.735  14.806 -0.4910  0.4647  0.0479
 2379TIP3    H228629   1.710   2.761  14.741 -0.1243  1.1779 -0.4311
 2380TIP3   OH228630   4.885   6.833   3.670 -0.0279  0.3181 -0.3346
 2380TIP3    H128631   4.979   6.823   3.654 -0.0797 -1.0988  0.1266
 2380TIP3    H228632   4.878   6.855   3.762 -0.0844  2.1069 -0.7310
 2381TIP3   OH228633   3.316   3.225   3.671  0.1437 -0.0482  0.0077
 2381TIP3    H128634   3.306   3.133   3.646  1.9220 -0.1259 -0.5730
 2381TIP3    H228635   3.275   3.274   3.599  1.1147 -0.3714 -0.7951
 2382TIP3   OH228636   0.682   3.013   2.478  0.5622  0.0237  0.3133
 2382TIP3    H128637   0.654   2.927   2.509 -0.8483  0.5043  0.4481
 2382TIP3    H228638   0.773   3.020   2.506  0.4797 -1.1188  0.9368
 2383TIP3   OH228639   4.973   4.841  11.160 -1.1398  1.0218  0.1826
 2383TIP3    H128640   4.962   4.930  11.126 -1.6176  1.3089  1.0675
 2383TIP3    H228641   4.988   4.852  11.254  0.5402  0.2597  0.0437
 2384TIP3   OH228642   3.166   5.097   4.786 -0.5066 -0.5637 -0.3720
 2384TIP3    H128643   3.169   5.131   4.696  0.2859 -1.0075 -0.5209
 2384TIP3    H228644   3.225   5.155   4.835 -0.5336 -0.6438 -0.2450
 2385TIP3   OH228645   2.647   5.650   2.280 -0.0669 -0.2025  0.1061
 2385TIP3    H128646   2.611   5.584   2.222 -2.5661  1.7042 -0.7024
 2385TIP3    H228647   2.692   5.711   2.222 -1.8822  1.2808  0.1700
 2386TIP3   OH228648   6.393   1.832   3.344 -0.2006  0.5367  0.6281
 2386TIP3    H128649   6.400   1.806   3.436  1.4559  0.6832  0.5651
 2386TIP3    H228650   6.298   1.837   3.329 -0.5407 -1.0663  1.8653
 2387TIP3   OH228651   3.141   1.875   1.824  0.4204  0.4944 -0.7005
 2387TIP3    H128652   3.090   1.837   1.896  1.5167 -0.9446 -0.6297
 2387TIP3    H228653   3.155   1.966   1.850  1.0028 -0.0467  1.0737
 2388TIP3   OH228654   1.682   1.572  13.208  0.1692  0.3139 -0.1206
 2388TIP3    H128655   1.707   1.638  13.272 -1.1617  0.7568 -0.0165
 2388TIP3    H228656   1.757   1.565  13.150  0.4345  1.7708  0.0015
 2389TIP3   OH228657   1.423   5.697   0.971 -0.1634 -0.3706  0.1223
 2389TIP3    H128658   1.452   5.653   1.050  0.4095  0.9014  0.6561
 2389TIP3    H228659   1.475   5.777   0.967  0.1309 -0.5925 -1.7775
 2390TIP3   OH228660   4.081   3.361  14.845  0.2766  0.1083 -0.1223
 2390TIP3    H128661   4.099   3.268  14.837 -1.6639 -0.4552  1.2919
 2390TIP3    H228662   4.009   3.377  14.784  0.1909  0.5442  0.0847
 2391TIP3   OH228663   5.628   2.892  13.293  0.1392  0.0939  0.4934
 2391TIP3    H128664   5.608   2.802  13.321 -1.9242  0.2642 -0.2468
 2391TIP3    H228665   5.710   2.884  13.245 -1.0382 -1.8370 -1.4180
 2392TIP3   OH228666   5.140   1.515   1.826  0.0285  0.5165 -0.0946
 2392TIP3    H128667   5.066   1.457   1.810 -0.3427  0.8835  0.2808
 2392TIP3    H228668   5.207   1.485   1.765  0.4742 -1.4301  1.2360
 2393TIP3   OH228669   6.701   0.665  16.086 -0.1902 -0.3805 -0.1690
 2393TIP3    H128670   6.720   0.687  16.178 -1.2920  2.1595 -0.4702
 2393TIP3    H228671   6.774   0.610  16.060  0.3164 -0.9313  2.1459
 2394TIP3   OH228672   2.587   5.123   1.789  0.3507  0.5319  0.5093
 2394TIP3    H128673   2.541   5.040   1.804  0.2941  0.4680  0.0206
 2394TIP3    H228674   2.627   5.144   1.873 -0.8070  0.7392  1.0371
 2395TIP3   OH228675   5.624   0.918   4.667 -0.0648  0.3470 -0.1690
 2395TIP3    H128676   5.645   0.864   4.743 -1.6636  1.0082  0.7815
 2395TIP3    H228677   5.677   0.881   4.596  1.3757 -0.3557  1.2178
 2396TIP3   OH228678   1.600   2.071   2.138 -0.5653  0.4884 -0.2724
 2396TIP3    H128679   1.669   2.110   2.084 -0.4772  0.1983 -0.3728
 2396TIP3    H228680   1.520   2.085   2.088 -0.5438  0.5942 -0.2788
 2397TIP3   OH228681   3.955   6.483   5.115  0.2907  0.0570 -0.3011
 2397TIP3    H128682   3.960   6.392   5.086  1.3327  0.3309 -1.0134
 2397TIP3    H228683   3.926   6.477   5.206  0.1156 -0.9733 -0.4150
 2398TIP3   OH228684   0.623   5.578   0.750 -0.2497 -0.3692  0.6112
 2398TIP3    H128685   0.621   5.500   0.805 -1.7842 -0.8900 -0.1161
 2398TIP3    H228686   0.534   5.585   0.715 -0.3288  2.0127  1.0604
 2399TIP3   OH228687   0.093   3.272  11.419  0.2630 -0.3499 -1.0095
 2399TIP3    H128688   0.065   3.364  11.423  0.5494 -0.2626 -0.9836
 2399TIP3    H228689   0.047   3.230  11.491  0.1868 -0.2110 -0.9759
 2400TIP3   OH228690   4.668   1.390  13.773 -0.1490  0.5674 -0.3210
 2400TIP3    H128691   4.750   1.394  13.722  0.8444 -2.1422  0.8658
 2400TIP3    H228692   4.599   1.383  13.706  0.9300 -0.6846 -1.3768
 2401TIP3   OH228693   0.561   5.862   2.366  0.6655  0.1632 -0.0883
 2401TIP3    H128694   0.532   5.917   2.293 -0.6660 -1.0945 -0.5534
 2401TIP3    H228695   0.483   5.852   2.421  0.5200 -2.1344 -0.6039
 2402TIP3   OH228696   4.448   4.583  12.675  0.1952  0.3927 -0.2851
 2402TIP3    H128697   4.543   4.595  12.676  0.1262  0.9630 -0.1455
 2402TIP3    H228698   4.420   4.622  12.592  0.2108 -0.8770 -0.9148
 2403TIP3   OH228699   1.921   0.854  15.946  0.5400  0.2357 -0.1066
 2403TIP3    H128700   1.874   0.783  15.903  1.7951 -0.0758 -1.0206
 2403TIP3    H228701   1.895   0.933  15.898 -0.0869  0.2606  0.2686
 2404TIP3   OH228702   4.057   0.725  14.921 -0.2732 -0.1110 -0.2025
 2404TIP3    H128703   4.119   0.671  14.873  3.5714  2.3739  1.4704
 2404TIP3    H228704   4.000   0.663  14.965  0.3464 -2.5551 -2.5655
 2405TIP3   OH228705   3.430   1.968  12.312 -0.1080  0.1490  0.0141
 2405TIP3    H128706   3.517   1.980  12.348 -0.3197  1.9874 -0.0070
 2405TIP3    H228707   3.445   1.949  12.219  0.2865  0.2069  0.0642
 2406TIP3   OH228708   3.478   4.157  14.801 -0.0003 -0.4913  0.2418
 2406TIP3    H128709   3.518   4.193  14.881  1.0637 -0.5456 -0.2489
 2406TIP3    H228710   3.451   4.234  14.751 -0.8287 -0.4581  0.7101
 2407TIP3   OH228711   3.403   6.267   2.740  0.3731  0.0122 -0.0732
 2407TIP3    H128712   3.310   6.261   2.716  0.5221 -3.0426 -0.2432
 2407TIP3    H228713   3.403   6.279   2.835 -0.4164 -5.0392  0.8550
 2408TIP3   OH228714   2.217   0.684   1.130 -0.3705  0.1513  1.1759
 2408TIP3    H128715   2.271   0.759   1.106 -0.9970  0.0876 -0.5805
 2408TIP3    H228716   2.157   0.673   1.056  0.9082 -3.2526  0.4673
 2409TIP3   OH228717   6.471   2.074  12.364 -0.0620 -0.3887  0.3875
 2409TIP3    H128718   6.489   2.160  12.401  1.1808 -0.6170  0.3478
 2409TIP3    H228719   6.519   2.072  12.281  1.0384 -1.5976  1.0164
 2410TIP3   OH228720   2.820   4.796   4.431  0.1805 -0.0657  0.0583
 2410TIP3    H128721   2.818   4.885   4.466 -1.0614 -0.3376  0.7248
 2410TIP3    H228722   2.736   4.786   4.386  0.0376 -1.1183  0.5374
 2411TIP3   OH228723   1.126   6.728  16.573 -0.0065  0.4024 -0.1727
 2411TIP3    H128724   1.118   6.701  16.664 -2.6606 -0.7028 -0.6396
 2411TIP3    H228725   1.212   6.695  16.546  2.5863  3.8447  2.7432
 2412TIP3   OH228726   4.056   6.505   1.906  0.1631  0.0034 -0.0161
 2412TIP3    H128727   3.976   6.503   1.959  1.1256  1.7393  1.6072
 2412TIP3    H228728   4.024   6.504   1.815 -1.5961 -1.2668  0.5437
 2413TIP3   OH228729   4.784   6.439   1.642 -0.4742 -0.1045  0.3028
 2413TIP3    H128730   4.760   6.371   1.705  0.3229 -1.0927 -0.4201
 2413TIP3    H228731   4.869   6.471   1.673  0.4746 -1.3803 -0.8168
 2414TIP3   OH228732   2.439   5.206   3.007  0.1420 -0.0798 -0.2163
 2414TIP3    H128733   2.431   5.279   2.945  2.0659  0.6118  0.2979
 2414TIP3    H228734   2.447   5.247   3.092 -0.1357 -0.9638  0.2491
 2415TIP3   OH228735   6.226   1.312  11.238 -0.0309  0.9057  0.0971
 2415TIP3    H128736   6.131   1.299  11.231 -0.3843  1.6807  2.5374
 2415TIP3    H228737   6.261   1.275  11.156 -2.4758  1.4408 -1.2921
 2416TIP3   OH228738   4.851   4.295  11.946  0.0219 -0.1369 -0.2050
 2416TIP3    H128739   4.815   4.303  11.857 -1.5458 -0.8897  0.3351
 2416TIP3    H228740   4.916   4.365  11.951  0.1032 -0.0438 -1.9244
 2417TIP3   OH228741   0.660   0.827   1.575  0.0083  0.0674 -0.5691
 2417TIP3    H128742   0.723   0.864   1.513  1.8105  0.3385  1.3224
 2417TIP3    H228743   0.673   0.732   1.567  0.6017  0.1194 -0.2530
 2418TIP3   OH228744   0.275   0.080  16.278  0.1099 -0.1403  0.2631
 2418TIP3    H128745   0.337   0.152  16.269  1.4758 -1.3065  0.0191
 2418TIP3    H228746   0.192   0.116  16.247  0.7116  1.3627  0.3057
 2419TIP3   OH228747   3.767   2.095   2.040  0.3462  0.3467  0.4860
 2419TIP3    H128748   3.720   2.063   1.963  1.2760  1.3640 -0.5489
 2419TIP3    H228749   3.860   2.079   2.019  0.7174  2.1693  0.6341
 2420TIP3   OH228750   4.274   5.288   1.179 -0.1916 -0.5703  0.4531
 2420TIP3    H128751   4.317   5.365   1.141 -3.2534  1.0040 -0.0927
 2420TIP3    H228752   4.243   5.318   1.264 -0.6636 -1.4854  0.6126
 2421TIP3   OH228753   2.974   2.098   5.258  0.1260 -0.6636 -0.4042
 2421TIP3    H128754   3.028   2.019   5.260 -0.8131 -1.3225 -0.5998
 2421TIP3    H228755   3.036   2.169   5.272  0.8880 -1.4812  0.5447
 2422TIP3   OH228756   1.887   5.772   4.062  0.1178 -0.2930  0.1676
 2422TIP3    H128757   1.965   5.804   4.017 -0.8873  0.7880 -0.9247
 2422TIP3    H228758   1.877   5.682   4.033  0.4962 -0.1624 -0.3848
 2423TIP3   OH228759   0.204   4.308   5.525  0.2016  1.1404  0.6840
 2423TIP3    H128760   0.284   4.360   5.532  0.4505  0.6583  1.4812
 2423TIP3    H228761   0.214   4.240   5.590  0.4732 -0.7194 -1.1878
 2424TIP3   OH228762   3.913   5.903  16.041  0.4505  0.0407  0.4094
 2424TIP3    H128763   3.862   5.823  16.054  0.4535 -0.0052  0.1255
 2424TIP3    H228764   3.969   5.908  16.119  0.0458  0.0672  0.7016
 2425TIP3   OH228765   5.895   4.863  14.431 -0.2398  0.3561  0.1103
 2425TIP3    H128766   5.868   4.951  14.405  0.1705  0.7773  1.0500
 2425TIP3    H228767   5.885   4.863  14.526  1.1762 -0.1106  0.2761
 2426TIP3   OH228768   2.249   5.540   3.836 -0.7706  0.0924  0.1463
 2426TIP3    H128769   2.269   5.448   3.823 -0.8142  0.2122 -0.8343
 2426TIP3    H228770   2.273   5.582   3.753 -0.4212  1.0145  0.7080
 2427TIP3   OH228771   3.635   4.437  10.610 -0.1473 -0.1321  0.4701
 2427TIP3    H128772   3.712   4.421  10.664  0.1661 -0.1999  0.0139
 2427TIP3    H228773   3.655   4.518  10.563 -0.0454 -0.5306 -0.1812
 2428TIP3   OH228774   4.952   1.482  14.226  0.1516  0.4875  1.0127
 2428TIP3    H128775   4.870   1.451  14.188 -0.2600  0.1163  2.1557
 2428TIP3    H228776   4.997   1.402  14.253 -0.6185  0.7748  3.3857
 2429TIP3   OH228777   5.054   4.781   4.991 -0.3365 -0.1726 -0.0287
 2429TIP3    H128778   5.113   4.818   5.057  2.7332 -1.2986 -1.9149
 2429TIP3    H228779   5.029   4.856   4.937  0.8822  0.0863 -0.2600
 2430TIP3   OH228780   6.756   2.188  11.130 -0.2724 -0.0173  0.1030
 2430TIP3    H128781   6.828   2.249  11.143  0.1854 -0.6929  0.8053
 2430TIP3    H228782   6.795   2.114  11.083 -0.9045  0.3721 -1.0730
 2431TIP3   OH228783   5.510   0.752   3.708  0.5487  0.4496 -0.3859
 2431TIP3    H128784   5.565   0.804   3.649  0.5307 -0.4066 -1.1899
 2431TIP3    H228785   5.471   0.816   3.768  0.7487  1.3242 -1.1663
 2432TIP3   OH228786   6.494   1.124   5.072  0.1231 -0.0708  0.4014
 2432TIP3    H128787   6.517   1.031   5.080 -1.2729 -0.3841  1.1341
 2432TIP3    H228788   6.498   1.142   4.978 -0.8077 -1.2144  0.1260
 2433TIP3   OH228789   1.620   3.217   1.308  0.0285 -0.2317  0.3143
 2433TIP3    H128790   1.692   3.239   1.249 -1.2626 -1.1585 -1.7352
 2433TIP3    H228791   1.652   3.240   1.395  2.0383  1.2048 -0.7220
 2434TIP3   OH228792   4.830   2.080   0.440 -0.1826 -0.0646 -0.5862
 2434TIP3    H128793   4.844   2.010   0.377 -2.0717 -1.6582  0.6608
 2434TIP3    H228794   4.815   2.158   0.387 -1.2312 -1.2528 -2.1118
 2435TIP3   OH228795   2.420   6.372  16.053 -0.0356  0.3348  0.1482
 2435TIP3    H128796   2.393   6.462  16.035  0.2541  0.4454  0.2627
 2435TIP3    H228797   2.408   6.327  15.969 -1.8184  0.0597  0.5069
 2436TIP3   OH228798   2.138   0.130  15.861 -0.4827  0.1552  0.6576
 2436TIP3    H128799   2.116   0.220  15.884 -2.0222  0.6635 -2.2146
 2436TIP3    H228800   2.233   0.125  15.869 -0.3910  1.9563  1.0821
 2437TIP3   OH228801   4.749   4.524   3.030  0.1072  0.2923 -0.4245
 2437TIP3    H128802   4.800   4.605   3.021  3.9888 -2.0423 -2.0263
 2437TIP3    H228803   4.719   4.504   2.941  1.0011 -1.0307 -0.4532
 2438TIP3   OH228804   5.428   4.574  15.823  0.2835 -0.3038  0.1258
 2438TIP3    H128805   5.353   4.631  15.834 -0.7534 -1.8569  1.5927
 2438TIP3    H228806   5.501   4.633  15.803 -0.7915  1.4791  1.2401
 2439TIP3   OH228807   0.956   6.581   0.100  0.6426 -1.2575  0.0016
 2439TIP3    H128808   0.956   6.657   0.159 -0.7281 -0.1356 -1.3826
 2439TIP3    H228809   0.894   6.520   0.140  1.3472 -1.4607  0.8320
 2440TIP3   OH228810   2.366   0.130   3.981  0.4452  0.3294  0.6664
 2440TIP3    H128811   2.438   0.082   3.940  1.0824  0.9169  1.0653
 2440TIP3    H228812   2.288   0.082   3.956  0.5352  1.8062 -2.9679
 2441TIP3   OH228813   6.391   2.647   1.657  0.1610  0.3654 -0.1575
 2441TIP3    H128814   6.390   2.599   1.574 -0.3498  2.4359 -1.4112
 2441TIP3    H228815   6.481   2.679   1.664 -0.2216  1.6467 -0.8300
 2442TIP3   OH228816   5.555   2.966   4.069 -0.6229  0.0792  0.1225
 2442TIP3    H128817   5.561   2.906   3.995 -1.0952  0.3417 -0.1276
 2442TIP3    H228818   5.508   2.917   4.136  1.4881 -0.8941  1.0037
 2443TIP3   OH228819   3.976   2.764   2.065  0.0912 -0.0669  0.1626
 2443TIP3    H128820   3.938   2.736   2.148  1.4000  1.3482  1.2991
 2443TIP3    H228821   3.934   2.708   1.999 -3.2099  0.7087  1.3908
 2444TIP3   OH228822   2.308   6.093  11.875  0.0457  0.4336 -0.5937
 2444TIP3    H128823   2.315   6.143  11.793 -0.6005  0.3690 -0.6893
 2444TIP3    H228824   2.239   6.136  11.924  1.4186  1.3812  0.5792
 2445TIP3   OH228825   4.545   6.729  10.927 -0.1235 -0.8068  0.2142
 2445TIP3    H128826   4.606   6.755  10.996  0.1776 -2.4395  0.6105
 2445TIP3    H228827   4.600   6.689  10.860 -0.5541 -0.3915 -0.3996
 2446TIP3   OH228828   2.049   4.685   1.777  0.2414  0.1339 -0.2620
 2446TIP3    H128829   2.145   4.690   1.777  0.3230 -0.1550 -2.3729
 2446TIP3    H228830   2.021   4.758   1.722 -0.6466 -0.5342 -0.7331
 2447TIP3   OH228831   0.502   4.285  11.324  0.4142  0.0282 -0.0049
 2447TIP3    H128832   0.517   4.351  11.256  2.1971  3.0601  2.9954
 2447TIP3    H228833   0.411   4.299  11.351  0.7359  1.2952  0.5136
 2448TIP3   OH228834   0.018   0.108  14.752  0.3247  0.0311  0.6291
 2448TIP3    H128835   0.060   0.128  14.668  0.0658  0.6955  0.6544
 2448TIP3    H228836   0.090   0.105  14.815  0.5122 -0.4109  0.3915
 2449TIP3   OH228837   2.264   1.872  12.387 -0.0129 -0.5948  0.3379
 2449TIP3    H128838   2.201   1.902  12.452  0.5357  1.3261  0.0543
 2449TIP3    H228839   2.322   1.813  12.435 -0.2722 -0.0579  1.3346
 2450TIP3   OH228840   2.919   4.234  16.319 -0.4277 -0.6175  0.0979
 2450TIP3    H128841   2.909   4.234  16.223 -1.8530 -1.5399  0.2174
 2450TIP3    H228842   2.971   4.156  16.337 -0.7474 -0.8238  0.1250
 2451TIP3   OH228843   5.237   0.890  12.846  0.2144 -0.0610  0.0326
 2451TIP3    H128844   5.212   0.934  12.765  1.9522  0.6995 -0.1158
 2451TIP3    H228845   5.245   0.961  12.910 -1.8223 -0.7135  1.1049
 2452TIP3   OH228846   4.943   1.581   4.740 -0.3633  0.2517 -0.1837
 2452TIP3    H128847   4.892   1.651   4.781  0.4272  1.1307 -0.6623
 2452TIP3    H228848   4.901   1.500   4.770 -0.0534  0.8451  2.0475
 2453TIP3   OH228849   0.639   5.857  13.176  0.4770 -0.1645  0.1885
 2453TIP3    H128850   0.683   5.887  13.096  1.2474 -1.5499  0.0694
 2453TIP3    H228851   0.571   5.797  13.145 -1.4432  1.7839  0.3861
 2454TIP3   OH228852   0.153   6.762   5.812  0.1259  0.0951  1.0357
 2454TIP3    H128853   0.164   6.687   5.870  0.0125  0.3387  1.3768
 2454TIP3    H228854   0.110   6.828   5.867 -2.4717 -0.5807 -0.0406
 2455TIP3   OH228855   1.232   1.967  11.719 -0.3697  0.1849 -0.4820
 2455TIP3    H128856   1.296   2.026  11.680 -1.1664  1.0475 -0.5028
 2455TIP3    H228857   1.171   2.024  11.766 -0.9824 -0.6343 -0.2547
 2456TIP3   OH228858   6.054   4.510  17.177  0.5499 -0.0174  0.0785
 2456TIP3    H128859   6.004   4.544  17.251  0.8901 -2.2078  1.4017
 2456TIP3    H228860   6.144   4.503  17.209  0.6556 -1.2660 -0.4140
 2457TIP3   OH228861   1.970   3.595  16.726 -0.0861 -0.0189  0.0356
 2457TIP3    H128862   2.027   3.584  16.650 -0.9042 -2.8679 -0.2703
 2457TIP3    H228863   1.894   3.641  16.692  0.5178  0.7207 -0.3434
 2458TIP3   OH228864   2.488   1.565   1.278 -0.2170  0.4255 -0.4939
 2458TIP3    H128865   2.480   1.547   1.372  0.7144 -0.3759 -0.5486
 2458TIP3    H228866   2.572   1.612   1.270  0.9430 -1.6307 -1.1571
 2459TIP3   OH228867   0.812   1.587   0.602 -0.0197 -0.0678 -0.0286
 2459TIP3    H128868   0.804   1.657   0.538  2.2607 -0.3618 -0.7106
 2459TIP3    H228869   0.726   1.544   0.602 -0.3388  0.4656 -2.2689
 2460TIP3   OH228870   0.223   3.848   6.233  0.3255 -0.4611 -0.1568
 2460TIP3    H128871   0.259   3.836   6.146 -1.2496  1.3839 -1.1614
 2460TIP3    H228872   0.132   3.875   6.217 -0.0759 -0.3314  2.0666
 2461TIP3   OH228873   5.322   5.302  15.988  0.1030  0.0406  0.6491
 2461TIP3    H128874   5.340   5.385  16.031  1.0482  0.0309  0.2958
 2461TIP3    H228875   5.232   5.281  16.012 -0.0571  1.0396  0.9405
 2462TIP3   OH228876   0.950   6.841  14.943  0.0862 -0.6074  0.2592
 2462TIP3    H128877   1.009   6.838  15.019  1.3496  0.8300 -0.6024
 2462TIP3    H228878   0.907   6.926  14.949  1.6401  0.3777 -1.6059
 2463TIP3   OH228879   3.062   1.820   0.466 -0.4929  0.3057  0.4208
 2463TIP3    H128880   2.982   1.872   0.457  0.3455  1.5240 -0.2074
 2463TIP3    H228881   3.047   1.744   0.409 -1.2964  0.3836  0.5126
 2464TIP3   OH228882   4.591   5.785   3.084 -0.4720 -0.7859 -0.6948
 2464TIP3    H128883   4.583   5.711   3.144  1.9049  0.3007  1.0886
 2464TIP3    H228884   4.685   5.803   3.080 -1.0329  3.0110  0.0448
 2465TIP3   OH228885   2.979   0.983  16.936  0.0185 -0.4854 -0.4028
 2465TIP3    H128886   3.039   1.029  16.994 -2.1457 -1.5463  3.0240
 2465TIP3    H228887   3.018   0.896  16.925 -0.3302 -0.8507  1.0047
 2466TIP3   OH228888   2.786   6.763   3.480 -0.1026  0.3944  0.0676
 2466TIP3    H128889   2.774   6.844   3.430  2.9694 -0.6859 -2.8261
 2466TIP3    H228890   2.705   6.714   3.465 -0.0736  0.9532 -2.3450
 2467TIP3   OH228891   2.282   0.812  16.766  0.1442  0.6017 -0.7790
 2467TIP3    H128892   2.272   0.812  16.671  2.5036 -0.3439 -1.0897
 2467TIP3    H228893   2.346   0.880  16.784  0.2869  0.2626  0.0601
 2468TIP3   OH228894   1.149   6.182   6.616 -0.5146 -0.3187 -0.0025
 2468TIP3    H128895   1.219   6.181   6.551  1.0584 -0.5464  1.6395
 2468TIP3    H228896   1.115   6.092   6.616  0.4982 -0.7060  0.5533
 2469TIP3   OH228897   0.776   4.659   3.807 -0.1699 -0.2541 -0.4870
 2469TIP3    H128898   0.819   4.738   3.774  1.7734 -1.1592 -0.2982
 2469TIP3    H228899   0.776   4.670   3.902 -0.0120 -0.4219 -0.4678
 2470TIP3   OH228900   0.312   0.723  13.735 -0.0978 -0.1915  0.0059
 2470TIP3    H128901   0.363   0.786  13.784 -0.0528 -0.5339  0.4043
 2470TIP3    H228902   0.231   0.712  13.785  0.5160 -1.5628  0.7620
 2471TIP3   OH228903   5.302   0.880   6.021 -0.7417 -0.3178 -0.4056
 2471TIP3    H128904   5.392   0.846   6.023  0.1472  1.8540  2.0802
 2471TIP3    H228905   5.311   0.969   5.986 -1.9171 -0.0631 -0.1053
 2472TIP3   OH228906   0.103   2.112  16.738  0.5367 -0.1878  0.0940
 2472TIP3    H128907   0.029   2.151  16.691  1.6953  2.0704  0.0217
 2472TIP3    H228908   0.079   2.119  16.830  1.0998  1.6306  0.1381
 2473TIP3   OH228909   0.805   5.819  10.445  0.0096 -0.1444  0.9457
 2473TIP3    H128910   0.871   5.755  10.416 -0.5985 -0.9917  1.3948
 2473TIP3    H228911   0.845   5.862  10.521 -0.3314 -1.3662  1.8490
 2474TIP3   OH228912   5.284   3.697   3.168  0.1686  0.4576  0.2197
 2474TIP3    H128913   5.269   3.782   3.209  0.3309 -0.1179  1.4864
 2474TIP3    H228914   5.196   3.658   3.161  0.1423  0.5503 -0.0084
 2475TIP3   OH228915   6.637   4.481   0.659  0.2795 -0.0424  0.4587
 2475TIP3    H128916   6.700   4.537   0.704  0.1201 -0.0347  0.6738
 2475TIP3    H228917   6.606   4.421   0.726  0.8028 -0.7057  0.1233
 2476TIP3   OH228918   5.055   6.528  11.089  0.1943  0.2118 -0.4581
 2476TIP3    H128919   5.088   6.445  11.125 -1.4949 -0.5505 -0.5381
 2476TIP3    H228920   4.959   6.519  11.095 -0.0464  1.4961 -1.9644
 2477TIP3   OH228921   4.592   6.176  14.797 -0.1726 -0.2572  0.1358
 2477TIP3    H128922   4.598   6.223  14.880 -0.2832 -2.1690  1.2785
 2477TIP3    H228923   4.526   6.223  14.747 -1.3156 -0.0274  1.8042
 2478TIP3   OH228924   4.647   6.674  13.412 -0.5672 -0.0993  0.1604
 2478TIP3    H128925   4.602   6.692  13.495  1.5181 -1.2494  1.6228
 2478TIP3    H228926   4.654   6.578  13.409  0.3843 -0.0149 -0.7974
 2479TIP3   OH228927   5.629   0.472  16.406  0.3220 -0.5814  0.6370
 2479TIP3    H128928   5.713   0.432  16.382  0.4514 -0.9168  1.6104
 2479TIP3    H228929   5.566   0.401  16.403  0.3762 -0.6752  1.4389
 2480TIP3   OH228930   6.159   1.534   0.384  0.8682  0.0414  0.2469
 2480TIP3    H128931   6.146   1.579   0.300 -1.1135 -0.8087  0.0353
 2480TIP3    H228932   6.130   1.598   0.449  1.0329  0.1938  0.1700
 2481TIP3   OH228933   1.850   3.052   3.258 -0.8311  0.1218 -0.2425
 2481TIP3    H128934   1.812   3.134   3.227  0.8253  0.8975 -0.3441
 2481TIP3    H228935   1.791   2.984   3.226 -2.2928  1.2696 -0.0761
 2482TIP3   OH228936   6.253   3.059  14.712 -0.3696 -0.0842 -0.1337
 2482TIP3    H128937   6.343   3.053  14.680  0.1872  0.7222  1.1856
 2482TIP3    H228938   6.257   3.125  14.781 -2.3399  1.3118 -1.2776
 2483TIP3   OH228939   0.138   6.721  14.891  0.0361  0.1190  0.3701
 2483TIP3    H128940   0.108   6.670  14.967 -1.7758 -1.7313 -1.4572
 2483TIP3    H228941   0.058   6.748  14.847  1.0380  0.7838 -1.1243
 2484TIP3   OH228942   4.923   1.677  13.705  0.0730 -0.2930  0.2306
 2484TIP3    H128943   4.837   1.717  13.720 -0.8906 -2.8090  2.0522
 2484TIP3    H228944   4.906   1.605  13.646  1.0559 -0.4239  0.0941
 2485TIP3   OH228945   1.679   6.508   6.008 -0.3782 -0.0753  0.4546
 2485TIP3    H128946   1.677   6.419   5.974  0.7502 -0.1445  0.5495
 2485TIP3    H228947   1.689   6.498   6.103 -0.8996  0.1481  0.5369
 2486TIP3   OH228948   0.178   5.123   4.750 -0.0361  0.0155 -0.6490
 2486TIP3    H128949   0.154   5.031   4.746 -0.2613  0.0972 -1.2245
 2486TIP3    H228950   0.231   5.138   4.672  0.6833  0.1835 -0.1411
 2487TIP3   OH228951   2.002   1.009   5.250 -0.0299 -0.4774 -0.0625
 2487TIP3    H128952   1.921   0.963   5.231 -0.8363  0.9292 -0.1320
 2487TIP3    H228953   1.979   1.102   5.248  1.1761 -0.0893  1.7967
 2488TIP3   OH228954   4.120   2.381   5.594  0.1322 -0.0370 -0.6585
 2488TIP3    H128955   4.043   2.403   5.645  0.2802 -3.1296  1.1281
 2488TIP3    H228956   4.089   2.378   5.503 -2.3016 -2.5359  0.1208
 2489TIP3   OH228957   1.001   4.267   2.184  0.1237  0.5334  0.1361
 2489TIP3    H128958   0.959   4.351   2.204  2.3455  1.9812 -0.9081
 2489TIP3    H228959   0.934   4.219   2.135 -1.3256  1.4998  1.0554
 2490TIP3   OH228960   4.870   5.256  12.502 -0.2233 -0.2416  0.3146
 2490TIP3    H128961   4.926   5.224  12.431 -0.1994 -0.0904  0.2646
 2490TIP3    H228962   4.796   5.196  12.503 -1.4273  1.1139 -1.3968
 2491TIP3   OH228963   4.153   4.813   1.619  0.4404 -0.8837  0.0889
 2491TIP3    H128964   4.194   4.778   1.697 -0.4639 -0.0925  0.9565
 2491TIP3    H228965   4.152   4.908   1.633  0.8035 -0.6820 -1.1558
 2492TIP3   OH228966   3.124   0.429  11.558 -0.6439  0.2811  1.0213
 2492TIP3    H128967   3.215   0.435  11.586 -0.1894 -0.6844 -0.1629
 2492TIP3    H228968   3.095   0.342  11.585 -0.3886 -0.4277 -0.7954
 2493TIP3   OH228969   4.907   6.578  16.317 -0.1870 -0.2546 -0.7217
 2493TIP3    H128970   4.978   6.579  16.381 -0.9475 -1.2633  0.1783
 2493TIP3    H228971   4.914   6.662  16.271  2.0983 -0.6722 -1.2583
 2494TIP3   OH228972   5.790   3.041   1.813  0.2342  0.2425 -0.1976
 2494TIP3    H128973   5.871   2.998   1.784 -1.3625 -2.2542 -1.3040
 2494TIP3    H228974   5.740   3.055   1.733 -1.1292  0.1460  0.6011
 2495TIP3   OH228975   2.548   3.697   3.547  0.0090  0.2443 -0.1309
 2495TIP3    H128976   2.473   3.694   3.488 -0.5072  1.8072  0.4023
 2495TIP3    H228977   2.622   3.722   3.492 -0.2644  0.6769 -0.3016
 2496TIP3   OH228978   2.610   5.709   3.363  0.1329 -0.4313 -0.5389
 2496TIP3    H128979   2.577   5.670   3.282  1.3676 -0.6878 -0.9397
 2496TIP3    H228980   2.551   5.782   3.381 -0.4891 -0.7257 -1.3572
 2497TIP3   OH228981   0.159   1.912  13.816 -0.1373 -0.1348  0.0333
 2497TIP3    H128982   0.233   1.946  13.866  0.0275 -1.2530  0.5762
 2497TIP3    H228983   0.184   1.927  13.725  1.1104 -1.1579  0.1800
 2498TIP3   OH228984   0.674   3.706  16.003  0.6938  0.2936 -0.1394
 2498TIP3    H128985   0.725   3.787  15.995  1.5950 -0.2767 -0.3736
 2498TIP3    H228986   0.648   3.686  15.913 -0.5584  0.9419  0.0548
 2499TIP3   OH228987   2.472   5.409  11.341 -0.2224 -0.1125  0.1014
 2499TIP3    H128988   2.422   5.422  11.261 -0.4485  0.0734  0.2722
 2499TIP3    H228989   2.558   5.448  11.322 -0.9140  1.7705  0.6351
 2500TIP3   OH228990   6.780   0.235   3.429 -0.0135 -0.1272  0.3112
 2500TIP3    H128991   6.710   0.189   3.382  0.6304  0.7293 -1.5713
 2500TIP3    H228992   6.735   0.284   3.498 -1.1441 -0.4181 -0.2006
 2501TIP3   OH228993   5.755   1.418  16.310 -0.4412 -0.2765 -0.1277
 2501TIP3    H128994   5.835   1.375  16.279 -0.5308 -0.6505  0.1514
 2501TIP3    H228995   5.717   1.356  16.372 -0.8962 -0.0583 -0.1836
 2502TIP3   OH228996   0.974   2.433   4.574  0.4442  0.2682  0.3170
 2502TIP3    H128997   1.022   2.488   4.511 -2.0572  1.9596 -0.2582
 2502TIP3    H228998   0.898   2.485   4.597 -1.2477 -2.3593  1.0352
 2503TIP3   OH228999   4.276   4.146   4.536 -0.2937  0.4153  0.4275
 2503TIP3    H129000   4.216   4.219   4.553 -0.6669  0.3156 -0.4140
 2503TIP3    H229001   4.341   4.182   4.475  0.0497  0.2946  0.7163
 2504TIP3   OH229002   6.354   6.526  16.954 -0.2010  0.5001 -0.3521
 2504TIP3    H129003   6.375   6.484  16.871 -1.0430  0.5377 -0.5909
 2504TIP3    H229004   6.413   6.485  17.018 -0.2723 -0.2792 -0.7752
 2505TIP3   OH229005   4.339   4.442  14.816  0.5501 -0.2598  0.3754
 2505TIP3    H129006   4.296   4.457  14.900  1.2573 -1.9930  1.1004
 2505TIP3    H229007   4.289   4.371  14.777  0.8261 -0.1161 -0.2408
 2506TIP3   OH229008   5.534   5.610   2.470  0.3127 -1.2794 -0.0022
 2506TIP3    H129009   5.540   5.586   2.377  1.0071  1.0216 -0.6283
 2506TIP3    H229010   5.609   5.567   2.510  1.9333  0.2483 -1.2058
 2507TIP3   OH229011   5.372   1.049   5.744  0.1396 -0.8428  0.1604
 2507TIP3    H129012   5.330   1.074   5.662  0.9905 -0.8098 -0.2797
 2507TIP3    H229013   5.348   1.118   5.805 -0.6156 -0.9397 -0.0111
 2508TIP3   OH229014   6.209   0.455   2.516  0.0304  0.4998  0.6527
 2508TIP3    H129015   6.178   0.542   2.542 -0.2693 -0.0527  2.2735
 2508TIP3    H229016   6.304   0.463   2.514  0.0069  0.8523  0.8789
 2509TIP3   OH229017   4.105   2.215   2.623 -0.7056  0.0537 -0.0175
 2509TIP3    H129018   4.058   2.280   2.570  0.3291  1.2616  0.4844
 2509TIP3    H229019   4.197   2.237   2.612 -0.4072 -0.3477  1.4082
 2510TIP3   OH229020   3.770   4.853  12.642  0.5665  0.3763  0.2019
 2510TIP3    H129021   3.751   4.871  12.734 -0.1794  0.2914  0.0643
 2510TIP3    H229022   3.859   4.888  12.630  0.6400  0.4681  0.9265
 2511TIP3   OH229023   2.007   1.071   4.698  0.2672  0.7413 -0.1791
 2511TIP3    H129024   1.979   1.104   4.784 -3.1153 -0.6203 -0.6035
 2511TIP3    H229025   1.999   1.146   4.640 -1.7553  0.6706 -0.0603
 2512TIP3   OH229026   1.959   5.234  15.414 -0.0565 -0.0308  0.1088
 2512TIP3    H129027   1.985   5.189  15.334 -0.3120 -0.4216  0.2401
 2512TIP3    H229028   1.910   5.168  15.464 -2.7818  1.0879 -0.8667
 2513TIP3   OH229029   5.965   5.260   4.886 -0.1479 -0.3495 -0.2012
 2513TIP3    H129030   5.896   5.271   4.821 -1.6146  1.0776  1.5144
 2513TIP3    H229031   5.942   5.320   4.957  1.9034 -1.1354  1.2303
 2514TIP3   OH229032   5.191   2.599   0.557 -0.3903  0.1727 -0.0078
 2514TIP3    H129033   5.188   2.507   0.586 -1.4721 -0.7967 -2.7878
 2514TIP3    H229034   5.200   2.649   0.637 -0.9128 -2.3212  1.7386
 2515TIP3   OH229035   3.656   2.928  17.070 -0.2926  0.3871  0.0768
 2515TIP3    H129036   3.701   2.932  16.986 -1.2247 -0.2910 -0.4818
 2515TIP3    H229037   3.563   2.925  17.047 -0.5910  0.7259  1.1519
 2516TIP3   OH229038   3.351   5.680  12.921  0.4956  0.4973 -0.1951
 2516TIP3    H129039   3.441   5.711  12.911  1.0071 -1.0269 -0.6461
 2516TIP3    H229040   3.347   5.642  13.008  1.0066 -1.5445 -1.0134
 2517TIP3   OH229041   5.438   2.369   1.730  0.0912  0.5078  0.5918
 2517TIP3    H129042   5.359   2.421   1.712  0.9569  2.1424  1.2754
 2517TIP3    H229043   5.411   2.307   1.797 -1.0230 -0.0882 -0.3612
 2518TIP3   OH229044   3.275   6.196  12.542  0.0556  0.1315 -0.2343
 2518TIP3    H129045   3.214   6.142  12.593  1.0971 -0.7681  0.0926
 2518TIP3    H229046   3.279   6.279  12.589  0.8297 -0.6100  1.0458
 2519TIP3   OH229047   6.239   3.510  16.075  0.5591  0.0512 -0.1070
 2519TIP3    H129048   6.264   3.419  16.057 -0.5873 -0.0373 -1.4456
 2519TIP3    H229049   6.240   3.553  15.990 -0.4805  0.8764  0.2633
 2520TIP3   OH229050   3.665   5.776  11.323 -0.0672  0.1440  0.7239
 2520TIP3    H129051   3.584   5.727  11.304 -0.2789  0.6784  0.2530
 2520TIP3    H229052   3.735   5.714  11.304 -0.3451 -0.1199  0.5505
 2521TIP3   OH229053   3.240   6.213  16.938 -0.3358 -0.1539  0.6484
 2521TIP3    H129054   3.150   6.194  16.963 -1.6364  1.7737 -2.0195
 2521TIP3    H229055   3.241   6.308  16.924  2.1991 -0.0867  0.8224
 2522TIP3   OH229056   1.274   1.694  15.320  0.4016  0.5651 -0.1314
 2522TIP3    H129057   1.367   1.694  15.297  0.2699 -0.5659 -0.7283
 2522TIP3    H229058   1.268   1.755  15.394  2.3044 -2.1296  2.4867
 2523TIP3   OH229059   2.067   6.288  13.530 -0.3137 -0.1451  0.3546
 2523TIP3    H129060   2.024   6.272  13.614 -2.4742 -3.0711 -1.1333
 2523TIP3    H229061   2.010   6.352  13.486 -0.4994 -0.3931  0.2310
 2524TIP3   OH229062   1.065   2.728  13.347  0.2471  0.6004  0.0316
 2524TIP3    H129063   1.050   2.769  13.432 -0.1425 -2.7517  1.7373
 2524TIP3    H229064   1.152   2.687  13.355  0.4229  0.6578 -1.3805
 2525TIP3   OH229065   3.026   2.571  11.101  0.1126 -0.1574 -0.6722
 2525TIP3    H129066   2.981   2.557  11.018  0.1614  2.3480 -1.2035
 2525TIP3    H229067   2.961   2.614  11.157  0.0850 -1.7816  0.6215
 2526TIP3   OH229068   3.785   2.039   2.798  0.3210  0.2629  0.3022
 2526TIP3    H129069   3.867   2.087   2.791 -0.6861  1.8266 -1.9609
 2526TIP3    H229070   3.806   1.951   2.767  0.7883  1.2102 -2.3007
 2527TIP3   OH229071   1.907   4.247   5.108  0.3026 -0.5964 -0.2228
 2527TIP3    H129072   1.980   4.253   5.046  1.0614 -0.9646  0.5998
 2527TIP3    H229073   1.884   4.154   5.109  2.6673 -1.3311  2.5794
 2528TIP3   OH229074   4.224   0.390  13.484  0.0838 -0.3026 -0.1008
 2528TIP3    H129075   4.293   0.436  13.435 -0.6845  0.5140 -0.4408
 2528TIP3    H229076   4.192   0.324  13.423  0.9552 -1.0882  0.2675
 2529TIP3   OH229077   1.688   1.072   2.317  0.2209 -0.2643 -0.5082
 2529TIP3    H129078   1.711   0.984   2.289  1.3371 -0.0059 -0.4576
 2529TIP3    H229079   1.766   1.104   2.362  0.3350  1.2204 -1.6614
 2530TIP3   OH229080   5.723   5.958   3.711  0.5330 -0.3727  0.3800
 2530TIP3    H129081   5.786   5.907   3.763 -0.2071 -1.0329  0.6479
 2530TIP3    H229082   5.639   5.944   3.754 -0.1108 -0.9475 -0.9961
 2531TIP3   OH229083   1.070   2.647   6.558  0.0160 -0.2814 -0.1537
 2531TIP3    H129084   0.999   2.708   6.542  0.9028  0.4358 -1.5867
 2531TIP3    H229085   1.149   2.702   6.560  0.7650 -1.2882 -0.9024
 2532TIP3   OH229086   0.305   5.071  10.856  0.1181 -0.3530 -0.5091
 2532TIP3    H129087   0.333   5.036  10.771 -1.2684 -0.6831 -0.8474
 2532TIP3    H229088   0.260   5.152  10.835 -0.6522 -0.6790 -0.1413
 2533TIP3   OH229089   4.295   1.401   0.086 -0.2210  0.2879 -0.3454
 2533TIP3    H129090   4.341   1.342   0.146 -2.2943 -1.4772 -0.3821
 2533TIP3    H229091   4.236   1.451   0.143 -0.6377  0.1738 -0.6797
 2534TIP3   OH229092   1.137   4.197   5.336  0.6842  0.1127 -0.1423
 2534TIP3    H129093   1.082   4.206   5.414  0.0151 -1.3624 -0.3952
 2534TIP3    H229094   1.077   4.164   5.269  1.2935  1.1660 -1.2406
 2535TIP3   OH229095   6.390   2.498  16.497  0.0770 -0.3985  0.0397
 2535TIP3    H129096   6.439   2.501  16.415  0.6554  0.4684  0.4114
 2535TIP3    H229097   6.448   2.453  16.559  0.9102  1.6056  0.7872
 2536TIP3   OH229098   4.333   5.664  16.885 -0.0105  0.5275 -0.1752
 2536TIP3    H129099   4.326   5.645  16.791  1.4165  1.5564 -0.5126
 2536TIP3    H229100   4.422   5.639  16.908 -0.0472  1.1684  0.6948
 2537TIP3   OH229101   4.139   0.883  13.548 -0.0852  0.6645  0.1102
 2537TIP3    H129102   4.204   0.832  13.500  0.0580  2.7545 -2.1135
 2537TIP3    H229103   4.180   0.969  13.559 -2.0200  1.7081 -0.3870
 2538TIP3   OH229104   5.211   3.202   2.900 -0.0773  0.0107  0.2071
 2538TIP3    H129105   5.196   3.118   2.945  1.2216 -0.0784  0.5171
 2538TIP3    H229106   5.285   3.185   2.842  1.2295  1.3150  1.4040
 2539TIP3   OH229107   5.129   5.371   2.237 -0.0657 -0.0824 -0.1890
 2539TIP3    H129108   5.144   5.300   2.175 -0.7482  0.7129 -1.2939
 2539TIP3    H229109   5.121   5.327   2.322  0.9090 -1.1820 -0.6429
 2540TIP3   OH229110   2.337   1.237   5.092  0.3643 -0.1054  0.4075
 2540TIP3    H129111   2.372   1.298   5.157 -0.5974 -0.2737  1.1004
 2540TIP3    H229112   2.244   1.257   5.086  0.0706 -1.3443  0.4904
 2541TIP3   OH229113   1.326   4.913   0.682  0.4292  0.4241 -0.0559
 2541TIP3    H129114   1.370   4.883   0.762 -0.3723  2.2493  1.1340
 2541TIP3    H229115   1.393   4.907   0.615  2.0058  1.4604  1.3463
 2542TIP3   OH229116   2.138   6.559  13.685  0.1131  0.1705 -0.4929
 2542TIP3    H129117   2.069   6.580  13.748  1.6251  0.7983  1.0505
 2542TIP3    H229118   2.166   6.470  13.709  0.4476  0.2700 -0.5108
 2543TIP3   OH229119   1.287   5.784  15.317  0.4827  0.0934  0.0394
 2543TIP3    H129120   1.236   5.861  15.340  0.2535  0.5394 -1.7538
 2543TIP3    H229121   1.271   5.722  15.387  0.2072  1.4618  1.2275
 2544TIP3   OH229122   1.561   2.041  13.907 -0.4454 -0.6123  0.7804
 2544TIP3    H129123   1.653   2.048  13.932  0.4821  0.6148 -2.4328
 2544TIP3    H229124   1.554   1.955  13.865 -0.0956  0.1903 -1.0285
 2545TIP3   OH229125   2.126   4.060  15.848  0.4861 -0.0117 -0.7028
 2545TIP3    H129126   2.169   4.013  15.919 -1.0114  1.8752  1.6307
 2545TIP3    H229127   2.036   4.026  15.848  0.0867  1.0124 -0.7067
 2546TIP3   OH229128   5.917   0.765  12.826  0.2884  0.2848  0.2906
 2546TIP3    H129129   5.981   0.829  12.857  1.9556 -0.5628 -1.1798
 2546TIP3    H229130   5.932   0.688  12.881  2.3971 -0.7885 -1.5817
 2547TIP3   OH229131   5.226   5.681   0.814  0.0588 -0.1283  0.1121
 2547TIP3    H129132   5.203   5.632   0.894  1.9762 -0.6905  0.3599
 2547TIP3    H229133   5.154   5.662   0.754 -1.2880  0.0748  1.5840
 2548TIP3   OH229134   6.487   5.546   2.038  0.1938  0.1861 -0.1545
 2548TIP3    H129135   6.392   5.536   2.046  0.4962 -1.6121  3.0605
 2548TIP3    H229136   6.515   5.468   1.990  0.1519  0.0188  0.0912
 2549TIP3   OH229137   5.070   0.936   1.580 -0.4468 -0.6451  0.3175
 2549TIP3    H129138   5.061   0.853   1.535  1.9444 -1.5190  1.3004
 2549TIP3    H229139   5.125   0.917   1.656  1.9523  2.1521 -0.5100
 2550TIP3   OH229140   2.133   6.320  13.106  0.2891 -0.4009  0.4671
 2550TIP3    H129141   2.166   6.368  13.030  1.5711 -1.3584  0.3719
 2550TIP3    H229142   2.115   6.387  13.171  0.3726  0.3390 -0.2616
 2551TIP3   OH229143   0.431   1.478  16.922  0.0414 -0.4971  0.0860
 2551TIP3    H129144   0.353   1.532  16.932  1.3668  1.3473  0.9419
 2551TIP3    H229145   0.459   1.493  16.831 -1.2061 -2.1146 -0.6236
 2552TIP3   OH229146   2.718   3.878   3.922 -0.0920 -0.5273  0.2373
 2552TIP3    H129147   2.780   3.836   3.862  0.0692 -0.6193  0.4687
 2552TIP3    H229148   2.641   3.896   3.868  0.9411  1.5784 -0.6474
 2553TIP3   OH229149   2.434   0.396   5.002 -0.4667  0.3998 -0.1041
 2553TIP3    H129150   2.405   0.308   4.975 -0.6623  0.3422  0.2779
 2553TIP3    H229151   2.384   0.413   5.082 -0.6835  1.0059 -0.3696
 2554TIP3   OH229152   4.289   2.041  11.902  0.3297  0.2522 -0.0439
 2554TIP3    H129153   4.312   2.009  11.989 -1.2785 -0.0047  0.3039
 2554TIP3    H229154   4.361   2.010  11.846  0.4070 -1.2555  0.8442
 2555TIP3   OH229155   5.874   2.779   6.276  0.1267  0.4509  0.0286
 2555TIP3    H129156   5.945   2.715   6.274  0.6419  1.0137  0.0492
 2555TIP3    H229157   5.797   2.731   6.245  1.0019  0.4420 -2.3070
 2556TIP3   OH229158   2.562   4.210   1.323  0.1868  0.3082  0.3422
 2556TIP3    H129159   2.584   4.117   1.315  0.9475  0.5217 -0.1781
 2556TIP3    H229160   2.643   4.251   1.354  1.0320  1.3130 -2.8351
 2557TIP3   OH229161   0.864   2.753  16.662 -0.3019 -0.2955  0.0764
 2557TIP3    H129162   0.835   2.816  16.728 -0.4077  1.0681 -1.2281
 2557TIP3    H229163   0.793   2.689  16.657 -1.1171  0.5924  0.0156
 2558TIP3   OH229164   0.874   4.052  11.734  0.3516  0.0309  0.0209
 2558TIP3    H129165   0.912   4.137  11.711 -0.1732  0.6564  1.3566
 2558TIP3    H229166   0.829   4.024  11.654 -2.6674  2.8011  0.5329
 2559TIP3   OH229167   4.016   0.380   1.295 -0.1531  0.3985 -0.4636
 2559TIP3    H129168   4.008   0.463   1.341  1.7097  0.9256 -1.0090
 2559TIP3    H229169   3.939   0.330   1.322 -0.1886  1.4514  1.5790
 2560TIP3   OH229170   2.832   5.072  16.456  0.0707  0.3428  0.4086
 2560TIP3    H129171   2.832   4.978  16.473 -0.5625  0.3396  0.4446
 2560TIP3    H229172   2.746   5.101  16.487 -0.2379  0.7218 -0.7442
 2561TIP3   OH229173   2.807   3.223   5.522  0.1598  0.3464 -0.4108
 2561TIP3    H129174   2.818   3.140   5.476 -2.8634  0.6577 -1.9192
 2561TIP3    H229175   2.894   3.263   5.522  1.2256 -1.8307 -1.5651
 2562TIP3   OH229176   3.830   1.823   1.696  0.1181 -0.7182  0.1591
 2562TIP3    H129177   3.899   1.869   1.648  0.7790 -1.8648 -0.0396
 2562TIP3    H229178   3.749   1.852   1.654  0.5504 -0.1434 -0.3033
 2563TIP3   OH229179   1.160   6.061  13.785 -0.1578  0.6243  0.1026
 2563TIP3    H129180   1.114   6.136  13.823  0.7817  1.8954 -1.1836
 2563TIP3    H229181   1.104   6.032  13.713  0.8132  1.9319 -1.2205
 2564TIP3   OH229182   1.705   2.726  16.618  0.4704 -0.3514  0.1295
 2564TIP3    H129183   1.745   2.802  16.661  1.7006 -0.2781 -1.0964
 2564TIP3    H229184   1.633   2.762  16.567  2.0117  0.2604 -1.7016
 2565TIP3   OH229185   1.102   0.890   3.415 -0.3914 -0.1986 -0.2316
 2565TIP3    H129186   1.187   0.928   3.390 -0.1493 -0.0377  0.7821
 2565TIP3    H229187   1.103   0.803   3.376  2.3672 -2.1863  3.5493
 2566TIP3   OH229188   1.218   1.295   3.103 -0.5844  0.1964  0.2060
 2566TIP3    H129189   1.233   1.308   3.197 -2.0892 -1.5624  0.7562
 2566TIP3    H229190   1.123   1.302   3.094 -0.3589  1.8977 -1.5119
 2567TIP3   OH229191   1.637   2.773   0.514 -0.2431  0.0784  0.5210
 2567TIP3    H129192   1.614   2.780   0.607 -1.3875 -2.2651  0.4753
 2567TIP3    H229193   1.607   2.686   0.488 -1.5112  1.2893 -2.5059
 2568TIP3   OH229194   6.519   0.440   2.518 -0.3719 -0.3475 -0.3634
 2568TIP3    H129195   6.598   0.452   2.571 -0.5369 -0.2436 -0.1377
 2568TIP3    H229196   6.501   0.347   2.522 -0.6679 -0.2693  0.1791
 2569TIP3   OH229197   3.048   1.404   0.923 -0.3686  0.4886  0.0408
 2569TIP3    H129198   3.092   1.488   0.905  0.2615  0.0969 -0.2976
 2569TIP3    H229199   3.093   1.370   1.000 -0.5549  0.4115  0.1148
 2570TIP3   OH229200   5.639   5.532   5.773  0.4507  0.0699 -0.1667
 2570TIP3    H129201   5.679   5.552   5.858 -0.6685  0.3281  0.3192
 2570TIP3    H229202   5.706   5.556   5.709  1.1620  0.2523  0.6190
 2571TIP3   OH229203   4.032   2.794   4.122  0.6229 -0.0483 -0.5885
 2571TIP3    H129204   4.103   2.855   4.098 -0.7945  1.8147 -0.2415
 2571TIP3    H229205   3.960   2.817   4.064  0.2201 -1.8474 -0.8613
 2572TIP3   OH229206   4.075   3.967   1.047 -0.1355 -0.2327 -0.2821
 2572TIP3    H129207   4.079   3.871   1.047  0.7300 -0.2034 -0.5166
 2572TIP3    H229208   4.065   3.991   0.955  0.6192 -0.0727 -0.3301
 2573TIP3   OH229209   3.262   0.657   0.999 -0.2310  0.1753 -0.2853
 2573TIP3    H129210   3.170   0.679   1.014  0.3971  1.5522  2.0148
 2573TIP3    H229211   3.277   0.578   1.051  0.1910  0.6740  0.3500
 2574TIP3   OH229212   6.729   1.086  12.696 -0.5542  0.2153  0.0870
 2574TIP3    H129213   6.815   1.045  12.706 -1.2618 -1.4183 -0.1711
 2574TIP3    H229214   6.737   1.142  12.619  1.0889  2.3994  1.7359
 2575TIP3   OH229215   5.883   5.501   5.067  0.0586  0.1788  0.6954
 2575TIP3    H129216   5.929   5.584   5.056 -0.0747 -0.0825 -4.7501
 2575TIP3    H229217   5.791   5.523   5.057  0.0045 -0.4775 -0.5447
 2576TIP3   OH229218   5.988   4.606  14.097 -0.7506  0.1599 -0.2199
 2576TIP3    H129219   5.949   4.595  14.184 -0.1505 -0.0970  0.0277
 2576TIP3    H229220   5.946   4.538  14.044 -0.8426  0.0656 -0.0307
 2577TIP3   OH229221   4.315   3.679   4.499 -0.0977  0.3691  0.2510
 2577TIP3    H129222   4.370   3.728   4.561  0.6286  0.4089 -0.4132
 2577TIP3    H229223   4.373   3.658   4.426 -0.8318 -0.0549 -0.2278
 2578TIP3   OH229224   6.277   3.627   2.351 -0.0595 -0.0601 -0.0598
 2578TIP3    H129225   6.195   3.662   2.385  0.0998  0.5194 -0.2569
 2578TIP3    H229226   6.255   3.539   2.320 -1.0055  0.6863 -1.6734
 2579TIP3   OH229227   6.611   4.492   5.689 -0.6711  0.0636 -0.0764
 2579TIP3    H129228   6.537   4.520   5.742 -0.3042 -0.7404  0.9075
 2579TIP3    H229229   6.606   4.396   5.689  0.5513 -0.0293  0.3337
 2580TIP3   OH229230   1.543   4.398  10.991 -0.6323 -0.5565  0.7049
 2580TIP3    H129231   1.566   4.491  10.989 -1.7391 -0.2820 -0.2059
 2580TIP3    H229232   1.592   4.360  10.918 -1.6196 -0.3051 -0.1183
 2581TIP3   OH229233   5.193   4.055   1.023  0.2924 -0.6331  0.1527
 2581TIP3    H129234   5.103   4.079   1.003  0.8878  0.3898 -1.5177
 2581TIP3    H229235   5.227   4.018   0.942  1.5160 -0.5876  0.6122
 2582TIP3   OH229236   3.187   4.093  16.002 -0.0061  0.6436  0.3168
 2582TIP3    H129237   3.254   4.040  15.960 -0.3645  0.8913 -0.5872
 2582TIP3    H229238   3.111   4.086  15.944 -0.7182  0.5059  1.2286
 2583TIP3   OH229239   4.092   6.749   4.630  0.7188  0.2168 -0.0743
 2583TIP3    H129240   4.065   6.769   4.540  0.0808  1.5367  0.3854
 2583TIP3    H229241   4.126   6.832   4.664 -1.7114  0.5401  1.8250
 2584TIP3   OH229242   5.616   4.018  11.581  0.2051  0.4636 -0.7831
 2584TIP3    H129243   5.684   3.977  11.634 -1.6108 -0.7837  0.6977
 2584TIP3    H229244   5.657   4.097  11.547  2.0347  0.3557  0.9743
 2585TIP3   OH229245   0.434   5.916   5.140 -0.0376  0.0189  0.4073
 2585TIP3    H129246   0.406   5.839   5.190  0.5033  0.2185  1.0334
 2585TIP3    H229247   0.425   5.989   5.201 -0.7750  0.4969 -0.2599
 2586TIP3   OH229248   1.281   4.435  11.933 -0.1207  0.8052  0.0559
 2586TIP3    H129249   1.360   4.381  11.925 -0.6449 -0.0449  0.4684
 2586TIP3    H229250   1.268   4.472  11.846  0.1017  0.0477 -0.3121
 2587TIP3   OH229251   3.202   3.430   2.880  0.4032 -0.6793  0.2996
 2587TIP3    H129252   3.205   3.484   2.801 -1.8641 -0.9185 -0.0010
 2587TIP3    H229253   3.294   3.420   2.905  1.0238  1.5013 -0.8479
 2588TIP3   OH229254   2.248   1.356   3.923 -0.6650 -0.0113 -0.1229
 2588TIP3    H129255   2.252   1.277   3.976 -0.6362  1.2479  1.8294
 2588TIP3    H229256   2.330   1.402   3.941 -0.9463  0.7683 -0.7558
 2589TIP3   OH229257   1.173   4.878   2.677  0.0867  0.4941 -0.5774
 2589TIP3    H129258   1.174   4.873   2.581 -0.4861 -1.0729 -0.5371
 2589TIP3    H229259   1.264   4.864   2.702  0.1345  0.2327 -0.8806
 2590TIP3   OH229260   0.176   1.293   5.556 -0.6288 -0.6790  0.1729
 2590TIP3    H129261   0.233   1.284   5.479 -0.2360 -0.6496  0.4606
 2590TIP3    H229262   0.100   1.341   5.523 -0.3617 -0.4702 -0.1497
 2591TIP3   OH229263   0.372   6.663   1.980  0.2389  0.6774 -0.0937
 2591TIP3    H129264   0.386   6.682   1.887  1.9868  2.4042  0.4509
 2591TIP3    H229265   0.395   6.744   2.025 -1.1940  0.0865  1.8340
 2592TIP3   OH229266   3.130   3.352  10.187  0.0207  0.3196  0.4378
 2592TIP3    H129267   3.051   3.392  10.151 -0.8678 -1.7728 -0.1167
 2592TIP3    H229268   3.115   3.258  10.178  2.1831 -0.1576  1.2141
 2593TIP3   OH229269   4.670   5.124  15.680  0.0408  0.3111  0.8175
 2593TIP3    H129270   4.632   5.181  15.613 -0.1275 -0.3192  0.3725
 2593TIP3    H229271   4.614   5.136  15.757 -1.1538 -0.7062  0.1318
 2594TIP3   OH229272   0.007   1.846  16.950  0.3926 -0.8515 -0.4143
 2594TIP3    H129273   0.095   1.854  16.913  1.8163  1.5005  3.0415
 2594TIP3    H229274   0.000   1.754  16.975  0.9418 -1.5541 -2.6232
 2595TIP3   OH229275   0.773   5.846  15.004 -0.0225  0.4899  0.0731
 2595TIP3    H129276   0.680   5.849  14.982  0.0924  0.9959 -0.3683
 2595TIP3    H229277   0.813   5.793  14.936  0.0401  0.4339  0.1536
 2596TIP3   OH229278   5.188   4.509  17.166 -0.0849 -0.2327  0.2077
 2596TIP3    H129279   5.128   4.543  17.232  0.1811 -1.5587  1.1832
 2596TIP3    H229280   5.132   4.462  17.105 -0.2846  0.6458 -0.3083
 2597TIP3   OH229281   4.948   6.263  12.021  0.1635 -0.1154  0.1407
 2597TIP3    H129282   4.866   6.216  12.006  0.4038 -0.1756 -1.0351
 2597TIP3    H229283   5.016   6.198  12.008  0.4009 -0.1205  1.3504
 2598TIP3   OH229284   6.186   0.736   5.980 -0.2389  0.4287  0.2536
 2598TIP3    H129285   6.158   0.771   5.895 -0.9955 -0.4786  0.1218
 2598TIP3    H229286   6.106   0.729   6.031  0.1571  0.5672  0.9067
 2599TIP3   OH229287   0.151   2.310  17.181  0.1805 -0.2290 -0.7466
 2599TIP3    H129288   0.247   2.316  17.186  0.2547 -1.4386 -0.3840
 2599TIP3    H229289   0.120   2.391  17.222  1.0466  0.3291 -1.1637
 2600TIP3   OH229290   5.804   3.567  14.581  0.5509 -0.6018 -0.0536
 2600TIP3    H129291   5.775   3.488  14.536  1.3464 -0.9118 -0.0353
 2600TIP3    H229292   5.735   3.631  14.564  0.1335 -1.1528 -0.4723
 2601TIP3   OH229293   0.187   3.655   3.324 -0.0437 -0.4863 -0.1338
 2601TIP3    H129294   0.207   3.654   3.418 -1.1381 -1.0756  0.1006
 2601TIP3    H229295   0.096   3.627   3.318 -0.9018  2.2084 -1.1752
 2602TIP3   OH229296   1.245   0.125  17.012  0.2099 -0.1142  0.4441
 2602TIP3    H129297   1.207   0.173  16.939  1.8957  0.8213  0.1308
 2602TIP3    H229298   1.186   0.051  17.025 -0.9306  0.5134 -0.8854
 2603TIP3   OH229299   3.784   6.498   2.075  0.0917  0.5978  0.2271
 2603TIP3    H129300   3.701   6.497   2.124 -0.2539 -0.3503 -0.3615
 2603TIP3    H229301   3.821   6.411   2.088  0.6187  0.7602 -0.1592
 2604TIP3   OH229302   4.019   5.744  15.168 -0.5425  0.2953  0.5927
 2604TIP3    H129303   3.925   5.759  15.159 -0.4754  0.3761 -0.0670
 2604TIP3    H229304   4.059   5.820  15.125 -0.1844 -0.4700 -0.4622
 2605TIP3   OH229305   3.019   6.613  13.017 -0.5006  0.8281  0.2971
 2605TIP3    H129306   3.060   6.531  13.044 -1.7019 -0.1609 -0.7593
 2605TIP3    H229307   3.056   6.679  13.076  0.8384 -0.3817  0.8652
 2606TIP3   OH229308   6.451   4.525   4.365  0.1436 -0.3597 -0.0951
 2606TIP3    H129309   6.514   4.581   4.409  1.2775 -1.2683 -0.5165
 2606TIP3    H229310   6.412   4.473   4.435 -0.3019  0.3421  0.1895
 2607TIP3   OH229311   0.317   3.920   5.148  0.4330  0.4120  0.1609
 2607TIP3    H129312   0.407   3.942   5.124  0.4939 -1.0630 -1.1160
 2607TIP3    H229313   0.322   3.892   5.239  1.5590 -1.0645 -0.3234
 2608TIP3   OH229314   4.201   5.734   0.128 -0.6551  0.1871  0.3797
 2608TIP3    H129315   4.270   5.737   0.061  0.8504 -3.2871  1.5086
 2608TIP3    H229316   4.120   5.723   0.078  0.3842 -1.9819 -1.0139
 2609TIP3   OH229317   1.554   2.544  16.386  0.5686 -0.1342 -0.7052
 2609TIP3    H129318   1.644   2.512  16.388  1.1237  1.3827 -0.3683
 2609TIP3    H229319   1.539   2.580  16.473 -0.5567 -0.8261 -0.5876
 2610TIP3   OH229320   1.120   4.307   3.582  0.2656  0.2030  0.1255
 2610TIP3    H129321   1.095   4.399   3.575  2.0972  0.7788  0.5412
 2610TIP3    H229322   1.044   4.264   3.621 -2.2862  0.6967 -3.8252
 2611TIP3   OH229323   2.814   0.917  14.283 -0.0759  0.0426 -0.7148
 2611TIP3    H129324   2.788   0.827  14.301 -0.1368 -0.2571 -2.1301
 2611TIP3    H229325   2.737   0.957  14.243  0.7094 -0.0759 -2.4800
 2612TIP3   OH229326   1.572   1.733  16.493  0.7311 -0.8387 -0.7266
 2612TIP3    H129327   1.591   1.817  16.452 -2.9312  0.4570 -0.0938
 2612TIP3    H229328   1.533   1.680  16.424  2.1034 -1.7471 -0.8615
 2613TIP3   OH229329   3.762   2.157  13.237 -0.5132 -0.2054 -0.1385
 2613TIP3    H129330   3.766   2.140  13.143  0.9015  0.6319 -0.2557
 2613TIP3    H229331   3.818   2.089  13.276  0.0859  0.3350 -0.0444
 2614TIP3   OH229332   5.845   2.788   1.973  0.0715  0.0416 -0.8350
 2614TIP3    H129333   5.865   2.753   1.886 -0.5112 -0.6389 -0.6968
 2614TIP3    H229334   5.824   2.880   1.958 -2.3173 -0.5826 -1.7529
 2615TIP3   OH229335   3.337   6.727  16.001  0.3018 -0.4108 -0.2502
 2615TIP3    H129336   3.269   6.782  16.038 -0.5009 -2.2036  1.1393
 2615TIP3    H229337   3.405   6.788  15.972 -0.5859  1.2887  1.0629
 2616TIP3   OH229338   0.655   2.276   4.316 -0.3705 -0.4265 -0.7845
 2616TIP3    H129339   0.646   2.190   4.274  0.1731 -0.9719  0.1915
 2616TIP3    H229340   0.748   2.283   4.337 -0.4062  0.4145 -0.8644
 2617TIP3   OH229341   5.040   0.329   3.104  0.2500 -0.2971 -0.6580
 2617TIP3    H129342   5.114   0.383   3.133 -0.3504  0.4797 -0.5344
 2617TIP3    H229343   5.069   0.239   3.117  0.3803 -0.0040  1.5005
 2618TIP3   OH229344   3.111   4.320   0.460  0.3663 -0.1684 -0.5897
 2618TIP3    H129345   3.047   4.391   0.454  1.5309  1.1034  0.9517
 2618TIP3    H229346   3.081   4.267   0.534  0.8408  0.1860 -0.1357
 2619TIP3   OH229347   5.090   5.380  14.110  0.0244 -0.3461  0.0955
 2619TIP3    H129348   5.080   5.410  14.200  0.9621  0.6278 -0.1120
 2619TIP3    H229349   5.009   5.332  14.092 -0.9693  0.9753  0.8560
 2620TIP3   OH229350   2.958   3.375  12.581  0.4283 -0.5792 -0.2569
 2620TIP3    H129351   2.998   3.428  12.512  1.0028 -1.4488 -0.6081
 2620TIP3    H229352   2.992   3.287  12.567 -2.0368 -1.5264 -0.9486
 2621TIP3   OH229353   2.969   1.644   5.710  0.0718  0.6929 -0.4482
 2621TIP3    H129354   2.957   1.738   5.694 -0.5805  0.8054  0.6528
 2621TIP3    H229355   2.880   1.608   5.715  0.3134 -0.1198 -1.5430
 2622TIP3   OH229356   5.090   2.559   2.736 -0.6540 -0.8747 -0.2446
 2622TIP3    H129357   5.106   2.561   2.830 -0.7125 -0.9296 -0.2338
 2622TIP3    H229358   4.995   2.551   2.727 -0.5458 -2.5304 -0.2846
 2623TIP3   OH229359   2.555   3.268   4.306 -0.4435  0.0124 -0.3507
 2623TIP3    H129360   2.574   3.285   4.213  0.7640 -0.4430 -0.1996
 2623TIP3    H229361   2.505   3.345   4.334  0.7827  1.0526 -0.9098
 2624TIP3   OH229362   3.375   6.232  11.753  0.4710 -0.3974 -0.6750
 2624TIP3    H129363   3.363   6.287  11.831 -0.1623  0.9924 -1.7080
 2624TIP3    H229364   3.308   6.164  11.761  1.1046 -0.9156  0.5053
 2625TIP3   OH229365   1.917   4.907  11.949  0.0309  1.1601 -0.8565
 2625TIP3    H129366   1.878   4.871  11.869 -3.8668  1.2971  0.7550
 2625TIP3    H229367   1.853   4.971  11.980  0.4821 -0.0763  3.2207
 2626TIP3   OH229368   5.044   0.379  15.175  0.8386 -0.1923 -0.0106
 2626TIP3    H129369   5.054   0.287  15.202  2.3009  0.2584  1.1676
 2626TIP3    H229370   5.099   0.427  15.237 -1.6118  1.7415  0.8243
 2627TIP3   OH229371   3.516   0.419  13.748  0.3881  0.0757 -0.4144
 2627TIP3    H129372   3.548   0.336  13.785 -2.4353 -0.2534  1.6092
 2627TIP3    H229373   3.425   0.400  13.724  0.6654  1.7134 -3.1825
 2628TIP3   OH229374   2.026   0.808  14.350  0.6505  0.1909  0.0775
 2628TIP3    H129375   2.087   0.874  14.381  1.6978 -1.6061  2.1292
 2628TIP3    H229376   1.943   0.829  14.393 -0.0732  2.1273 -2.0423
 2629TIP3   OH229377   5.516   4.311  15.742 -0.3025 -0.3070 -0.0333
 2629TIP3    H129378   5.580   4.240  15.743 -0.5937 -0.6206 -1.3854
 2629TIP3    H229379   5.566   4.388  15.715 -0.2003 -0.2247  0.3866
 2630TIP3   OH229380   2.468   6.705   1.110 -0.2566  0.6946 -0.1130
 2630TIP3    H129381   2.478   6.799   1.129  1.8581  0.9633 -2.0283
 2630TIP3    H229382   2.473   6.700   1.014 -0.8075 -1.3511 -0.0670
 2631TIP3   OH229383   4.853   6.050   3.857 -0.6801  0.3521  0.1427
 2631TIP3    H129384   4.828   6.125   3.803 -1.5651  0.0039  0.0560
 2631TIP3    H229385   4.777   6.035   3.913 -0.1437  0.1038  0.8194
 2632TIP3   OH229386   6.408   2.518   2.320 -0.0980 -0.2131  0.7383
 2632TIP3    H129387   6.319   2.531   2.286  0.2866  1.2663  0.2491
 2632TIP3    H229388   6.436   2.435   2.281 -0.3925  0.4790 -1.0593
 2633TIP3   OH229389   6.125   5.380   2.741  0.0884 -0.0201 -0.6145
 2633TIP3    H129390   6.153   5.333   2.819 -1.0338 -0.5940 -0.5484
 2633TIP3    H229391   6.114   5.312   2.674  0.4523  0.3966 -1.1174
 2634TIP3   OH229392   1.707   5.589   3.208  0.4386  0.8232  0.5567
 2634TIP3    H129393   1.733   5.621   3.121  0.2374  1.0359  0.5741
 2634TIP3    H229394   1.789   5.558   3.247  0.1866 -1.4685 -0.5951
 2635TIP3   OH229395   6.181   1.429   4.061 -0.0856 -0.0337  0.1780
 2635TIP3    H129396   6.139   1.494   4.005 -0.7459 -0.2175  0.4426
 2635TIP3    H229397   6.270   1.420   4.026 -0.5533 -0.3150 -0.9806
 2636TIP3   OH229398   2.158   5.816  12.579  0.0722  0.4380  0.0423
 2636TIP3    H129399   2.178   5.742  12.521 -0.0778 -0.7510  1.4667
 2636TIP3    H229400   2.187   5.787  12.665 -1.6357  1.3258  0.9555
 2637TIP3   OH229401   3.063   2.441  13.602 -0.1792 -0.0974 -0.4364
 2637TIP3    H129402   3.039   2.527  13.636 -0.2460  0.3552 -1.5774
 2637TIP3    H229403   2.980   2.395  13.592 -0.1725 -0.1762 -0.1172
 2638TIP3   OH229404   5.090   5.951   1.634 -0.7282  0.3633  0.2675
 2638TIP3    H129405   5.002   5.965   1.598 -1.0873  0.5603  1.1934
 2638TIP3    H229406   5.078   5.957   1.729  0.5604  2.0956  0.3700
 2639TIP3   OH229407   1.990   2.458  16.651  0.3763 -0.5482 -0.2315
 2639TIP3    H129408   1.966   2.370  16.679  1.1009 -0.8889 -0.6654
 2639TIP3    H229409   2.080   2.450  16.620  0.1699  0.1752 -1.0440
 2640TIP3   OH229410   5.915   3.863   6.188  0.4939  0.5283 -0.6544
 2640TIP3    H129411   5.861   3.785   6.175  1.2187 -0.2349  0.6791
 2640TIP3    H229412   5.888   3.923   6.119 -2.8029  0.6087  0.5506
 2641TIP3   OH229413   1.610   0.778  11.370 -0.4010 -0.1879 -0.2555
 2641TIP3    H129414   1.678   0.734  11.319 -0.7851  0.3677 -1.2705
 2641TIP3    H229415   1.528   0.738  11.340 -0.5190 -1.2075  1.3137
 2642TIP3   OH229416   4.709   5.474   5.182 -0.2917 -0.1678 -0.5883
 2642TIP3    H129417   4.772   5.435   5.122  0.6392 -0.8580  0.7923
 2642TIP3    H229418   4.761   5.511   5.253 -1.3497  0.7021 -0.2289
 2643TIP3   OH229419   2.090   3.514   0.428 -0.1864  0.1006  0.2859
 2643TIP3    H129420   2.167   3.570   0.418  0.6132 -1.1214 -0.6838
 2643TIP3    H229421   2.096   3.451   0.356 -1.2626 -0.9926  1.1060
 2644TIP3   OH229422   3.259   5.135   3.984  0.4496  0.0334  0.8675
 2644TIP3    H129423   3.341   5.176   4.010  0.7464 -1.1040  1.8236
 2644TIP3    H229424   3.250   5.059   4.042 -0.9644 -0.2289  0.3632
 2645TIP3   OH229425   5.206   5.535  16.578 -0.0251  0.5313 -0.1638
 2645TIP3    H129426   5.171   5.461  16.627  1.2810 -0.3395 -0.5234
 2645TIP3    H229427   5.155   5.537  16.497 -0.2197  0.1815 -0.0490
 2646TIP3   OH229428   1.622   4.750   6.909  1.1335  0.1410  0.5465
 2646TIP3    H129429   1.557   4.779   6.845 -0.3940 -1.0388  1.5017
 2646TIP3    H229430   1.641   4.827   6.961  0.1666  0.4077  0.5211
 2647TIP3   OH229431   4.473   0.350   5.242 -0.0516  0.2010  0.2704
 2647TIP3    H129432   4.404   0.351   5.308  0.1118 -1.6039  0.4919
 2647TIP3    H229433   4.542   0.406   5.278 -0.5979  0.4718  0.9060
 2648TIP3   OH229434   1.644   6.719  16.459 -0.0199 -0.5265 -0.1532
 2648TIP3    H129435   1.651   6.790  16.396  0.1746  1.9950  2.4559
 2648TIP3    H229436   1.552   6.693  16.457 -0.0008 -0.5430 -1.4677
 2649TIP3   OH229437   2.674   0.278   0.353 -0.0973  0.4631  0.5997
 2649TIP3    H129438   2.584   0.289   0.322  0.2875 -0.6409 -1.0349
 2649TIP3    H229439   2.718   0.359   0.326  0.0378 -0.1525 -1.1194
 2650TIP3   OH229440   3.399   4.833   5.556 -0.1865  0.2971 -0.1140
 2650TIP3    H129441   3.386   4.831   5.650  0.3375 -0.9835 -0.0505
 2650TIP3    H229442   3.322   4.878   5.522  0.4325  2.3842  1.0335
 2651TIP3   OH229443   6.154   2.735   2.531  0.3793 -0.1894  0.4262
 2651TIP3    H129444   6.152   2.686   2.449  0.7629 -0.1551  0.3949
 2651TIP3    H229445   6.104   2.815   2.513  0.6028 -0.1070  0.1790
 2652TIP3   OH229446   6.571   6.719   4.451 -0.5298 -0.7611  0.9027
 2652TIP3    H129447   6.497   6.778   4.439 -0.2304 -0.8270 -2.0291
 2652TIP3    H229448   6.553   6.645   4.392  1.7347 -0.8804  0.2528
 2653TIP3   OH229449   3.835   1.907  14.355  0.6280 -0.1248  0.0905
 2653TIP3    H129450   3.817   1.822  14.315 -0.3189 -1.1230  2.4548
 2653TIP3    H229451   3.778   1.968  14.308 -0.5022 -1.2547 -0.0666
 2654TIP3   OH229452   1.612   1.482  12.747 -0.5312 -0.2215 -0.3027
 2654TIP3    H129453   1.701   1.485  12.710  0.0884  2.8731  1.1408
 2654TIP3    H229454   1.558   1.528  12.683 -0.4681  0.5529  0.1856
 2655TIP3   OH229455   6.469   4.899   1.753  0.1347  0.0797  0.2009
 2655TIP3    H129456   6.477   4.810   1.719  4.3867  0.3196  0.0006
 2655TIP3    H229457   6.478   4.955   1.676 -1.2266  0.7247  0.4869
 2656TIP3   OH229458   2.234   3.104  13.448  0.6778 -0.0746 -0.0846
 2656TIP3    H129459   2.158   3.110  13.391  1.3719 -1.4866 -1.2231
 2656TIP3    H229460   2.199   3.081  13.534 -0.2956  1.0971 -0.1439
 2657TIP3   OH229461   5.776   6.219  14.442  0.2112 -0.0820 -0.8386
 2657TIP3    H129462   5.782   6.289  14.507  1.8816 -0.6811 -0.2922
 2657TIP3    H229463   5.697   6.240  14.391  0.8808  2.4460 -0.9984
 2658TIP3   OH229464   4.915   1.299  12.638  0.2308 -0.1867  0.4235
 2658TIP3    H129465   5.010   1.302  12.638  0.2166  0.7372  0.4562
 2658TIP3    H229466   4.890   1.328  12.726 -0.0865  0.1919  0.2121
 2659TIP3   OH229467   0.619   4.681   1.460 -0.1263  0.3628 -0.4903
 2659TIP3    H129468   0.662   4.661   1.377 -1.3439  0.5850 -1.2022
 2659TIP3    H229469   0.598   4.775   1.453 -0.9449  0.2043 -0.2852
 2660TIP3   OH229470   3.732   4.911   4.552 -0.1275 -0.2362  0.0766
 2660TIP3    H129471   3.748   4.890   4.460  2.8028  3.7021 -0.5894
 2660TIP3    H229472   3.787   4.850   4.601  0.4602 -0.5904 -1.0070
 2661TIP3   OH229473   3.394   0.124  12.061 -0.5751  0.2537 -0.2744
 2661TIP3    H129474   3.486   0.096  12.054  0.1434  2.5792 -1.0588
 2661TIP3    H229475   3.344   0.043  12.051  1.3458 -0.8596 -1.5875
 2662TIP3   OH229476   5.931   0.064   2.619 -0.4821 -0.3894 -0.0443
 2662TIP3    H129477   5.836   0.059   2.606 -0.2294 -0.3531 -2.3181
 2662TIP3    H229478   5.946   0.155   2.645 -1.1578 -0.6772  1.4102
 2663TIP3   OH229479   4.692   4.593  17.096 -0.7052 -0.3808  0.4001
 2663TIP3    H129480   4.647   4.677  17.083  1.0586  0.7201  1.1110
 2663TIP3    H229481   4.626   4.528  17.073 -1.9273  1.1917 -0.8417
 2664TIP3   OH229482   1.723   0.184   4.388 -0.2219 -0.4505 -0.4610
 2664TIP3    H129483   1.634   0.163   4.414 -0.3781  0.7139  0.0320
 2664TIP3    H229484   1.740   0.270   4.428  1.7736 -1.4540  1.0435
 2665TIP3   OH229485   2.040   6.364   5.771  0.1602  0.3276  0.2121
 2665TIP3    H129486   2.010   6.302   5.838  1.0395 -0.3910 -0.0423
 2665TIP3    H229487   2.135   6.355   5.771  0.2332  0.9694 -0.5258
 2666TIP3   OH229488   2.398   5.339   3.276  0.3655 -0.0220  0.3590
 2666TIP3    H129489   2.413   5.256   3.321 -0.5012 -1.4819 -1.8977
 2666TIP3    H229490   2.304   5.342   3.261  0.6392  0.2788 -1.5324
 2667TIP3   OH229491   6.240   4.954   1.286  0.5760  0.4780  0.0128
 2667TIP3    H129492   6.186   4.987   1.215  0.1391 -0.2354  0.0087
 2667TIP3    H229493   6.264   4.865   1.259 -0.3228 -0.1341  1.1298
 2668TIP3   OH229494   6.391   3.284  16.013  0.5450 -0.2079  0.6068
 2668TIP3    H129495   6.454   3.216  16.036  0.6755  0.1242  1.2698
 2668TIP3    H229496   6.443   3.364  16.008  0.5257 -0.2625 -0.9267
 2669TIP3   OH229497   6.342   6.343   3.205  0.3356  0.6795  0.7780
 2669TIP3    H129498   6.333   6.436   3.184 -0.1509  0.3467 -0.5951
 2669TIP3    H229499   6.372   6.303   3.124  1.0447 -0.2966  1.5008
 2670TIP3   OH229500   5.995   3.383  14.333 -0.3138 -0.2043  0.0173
 2670TIP3    H129501   6.022   3.399  14.424 -0.0450 -2.3695  0.3612
 2670TIP3    H229502   6.021   3.293  14.315  0.3498  0.3936 -2.4982
 2671TIP3   OH229503   1.247   6.833   5.060  0.3227  0.3102 -0.1392
 2671TIP3    H129504   1.286   6.749   5.083  0.1973  0.6418  1.3669
 2671TIP3    H229505   1.318   6.882   5.018  0.8096 -0.0212  0.2812
 2672TIP3   OH229506   0.617   5.070   3.573 -0.2043  0.1385  0.0741
 2672TIP3    H129507   0.688   5.018   3.612  0.2324 -0.0348 -0.9268
 2672TIP3    H229508   0.622   5.155   3.617  0.5253  0.0754  0.1184
 2673TIP3   OH229509   4.729   5.701   4.735  0.4409  0.1898  0.2285
 2673TIP3    H129510   4.816   5.740   4.745  1.1398 -1.5190  1.2437
 2673TIP3    H229511   4.711   5.660   4.820 -0.1765 -1.7758 -0.7929
 2674TIP3   OH229512   0.882   1.938   0.517 -1.0104  0.4384 -0.5576
 2674TIP3    H129513   0.791   1.969   0.516 -0.5110  2.0457  0.7197
 2674TIP3    H229514   0.929   2.001   0.571  0.8325 -0.5330 -0.9372
 2675TIP3   OH229515   4.180   1.868   3.394  0.3173  0.0773  0.5372
 2675TIP3    H129516   4.112   1.810   3.428  1.4036 -2.0895 -0.7708
 2675TIP3    H229517   4.236   1.887   3.470 -0.1927 -0.3960  1.0416
 2676TIP3   OH229518   2.502   6.677   1.946  0.2094  0.1313  0.0780
 2676TIP3    H129519   2.502   6.772   1.957  1.2204  0.3642 -1.5048
 2676TIP3    H229520   2.527   6.643   2.032 -2.2859  1.1373  1.3020
 2677TIP3   OH229521   0.109   4.418   1.682 -0.6275  0.1438  0.7510
 2677TIP3    H129522   0.094   4.395   1.590  0.1048  1.9453  0.1371
 2677TIP3    H229523   0.163   4.497   1.678  2.1275 -1.4863  2.7734
 2678TIP3   OH229524   4.052   6.628  13.886  0.3196 -0.1769 -0.2875
 2678TIP3    H129525   4.125   6.573  13.916  0.2161  0.7467  1.8230
 2678TIP3    H229526   4.036   6.688  13.958 -2.1294  0.0791 -0.9716
 2679TIP3   OH229527   5.791   5.883   3.218  0.2562 -0.2677  0.1149
 2679TIP3    H129528   5.787   5.978   3.234  1.9352 -0.2618  0.7532
 2679TIP3    H229529   5.861   5.853   3.276  0.2997 -1.7704 -0.6890
 2680TIP3   OH229530   4.586   6.173   0.301  0.0803  0.0942 -0.2318
 2680TIP3    H129531   4.577   6.107   0.233 -0.9363  0.7583 -0.7611
 2680TIP3    H229532   4.671   6.154   0.341  0.4000 -0.7048 -1.2391
 2681TIP3   OH229533   4.889   3.337   3.302 -0.5214 -0.0897 -0.9025
 2681TIP3    H129534   4.942   3.331   3.223 -0.4543 -0.8257 -0.8142
 2681TIP3    H229535   4.823   3.268   3.292  1.3941 -2.4266  1.0470
 2682TIP3   OH229536   2.151   3.758  14.601  0.4595 -0.6633  0.2171
 2682TIP3    H129537   2.175   3.667  14.619  1.2567 -0.0940  2.3934
 2682TIP3    H229538   2.101   3.786  14.679  1.3879  1.1400  0.2236
 2683TIP3   OH229539   5.122   2.430  15.947  0.1811  0.2343 -0.7866
 2683TIP3    H129540   5.205   2.405  15.907  0.1251  0.9473 -1.3668
 2683TIP3    H229541   5.139   2.429  16.041  0.9868  0.8117 -0.9183
 2684TIP3   OH229542   2.814   4.789  16.495  0.0817  0.2358 -0.4338
 2684TIP3    H129543   2.862   4.717  16.454 -0.3666 -1.3980  1.7107
 2684TIP3    H229544   2.782   4.752  16.578  0.8453  3.2540  1.3562
 2685TIP3   OH229545   4.527   2.752  16.498 -0.4926  0.9653  0.0942
 2685TIP3    H129546   4.460   2.705  16.548 -1.7657  0.9979 -1.4855
 2685TIP3    H229547   4.479   2.824  16.456  0.9071  2.0758  0.3423
 2686TIP3   OH229548   3.479   1.325   3.471  0.6958 -0.1323 -0.6143
 2686TIP3    H129549   3.434   1.385   3.530 -1.1550 -0.3096 -1.7566
 2686TIP3    H229550   3.425   1.246   3.471  0.5060 -0.0457 -2.6870
 2687TIP3   OH229551   1.256   0.853   4.572 -0.7672 -0.2408 -0.4912
 2687TIP3    H129552   1.293   0.767   4.592  2.3761  0.7488 -1.5309
 2687TIP3    H229553   1.243   0.893   4.658  1.4727 -0.3469 -0.0578
 2688TIP3   OH229554   6.360   3.563   5.328 -0.0600 -0.2838  0.0332
 2688TIP3    H129555   6.360   3.581   5.234  0.0479 -1.0897 -0.1232
 2688TIP3    H229556   6.289   3.618   5.363 -0.1230 -0.0084 -0.5175
 2689TIP3   OH229557   1.599   3.965  16.921 -0.0866 -0.6480  0.0214
 2689TIP3    H129558   1.633   4.027  16.986  2.9373 -1.2895 -0.7834
 2689TIP3    H229559   1.571   4.020  16.848 -1.2871 -0.0565  0.8950
 2690TIP3   OH229560   5.192   4.257  13.246  0.0905 -0.3560 -0.3538
 2690TIP3    H129561   5.113   4.292  13.287 -0.3660 -1.0675 -0.6205
 2690TIP3    H229562   5.197   4.300  13.161 -0.2736 -0.6720 -0.5338
 2691TIP3   OH229563   6.847   0.665   4.215 -0.1024  0.2977  0.0280
 2691TIP3    H129564   6.780   0.717   4.171  0.0119  0.4087 -0.0175
 2691TIP3    H229565   6.928   0.715   4.202  0.2610 -0.5661 -1.2266
 2692TIP3   OH229566   4.643   0.059  15.336  0.0331  0.1850  0.0538
 2692TIP3    H129567   4.610   0.047  15.247  3.0701  1.3789 -1.3591
 2692TIP3    H229568   4.660   0.153  15.343 -0.4755  0.1672  2.0724
 2693TIP3   OH229569   5.866   5.178   4.031 -0.7582  0.0231  0.1605
 2693TIP3    H129570   5.942   5.206   3.979 -0.2029  0.9523  1.4125
 2693TIP3    H229571   5.792   5.185   3.972 -0.1567  1.1141 -0.4934
 2694TIP3   OH229572   3.061   6.671  17.170  0.3491 -0.7032  0.0164
 2694TIP3    H129573   3.034   6.716  17.250 -1.2506 -0.3873 -0.6595
 2694TIP3    H229574   3.115   6.735  17.123  2.0236 -1.1894  1.1938
 2695TIP3   OH229575   4.691   3.695   3.042 -0.2525 -0.5360  0.2170
 2695TIP3    H129576   4.751   3.740   3.102  0.7369 -0.1905 -0.9887
 2695TIP3    H229577   4.711   3.732   2.956 -1.2310 -1.4371 -0.4241
 2696TIP3   OH229578   3.578   5.103  11.093  0.6900  0.0314 -0.4036
 2696TIP3    H129579   3.572   5.018  11.136  0.2027 -0.0876 -0.6981
 2696TIP3    H229580   3.487   5.125  11.071  0.9081  0.1977 -1.1603
 2697TIP3   OH229581   3.714   1.862  14.629 -0.6425 -0.7879 -0.1149
 2697TIP3    H129582   3.709   1.858  14.533  0.0029 -0.4586 -0.1709
 2697TIP3    H229583   3.728   1.955  14.648  1.1832 -1.0946  0.1817
 2698TIP3   OH229584   1.293   1.867  13.883 -0.0075 -0.0921 -0.3720
 2698TIP3    H129585   1.320   1.884  13.793 -0.5794 -2.1857 -1.0034
 2698TIP3    H229586   1.284   1.772  13.887  3.2954 -0.4937  2.8166
 2699TIP3   OH229587   2.454   2.232   0.412 -0.0167  0.4807 -0.3776
 2699TIP3    H129588   2.508   2.308   0.436 -0.2568  0.2086  1.1660
 2699TIP3    H229589   2.467   2.170   0.485 -1.8164  0.1104 -0.3361
 2700TIP3   OH229590   5.253   4.461  10.299  0.4874  0.2646  0.1813
 2700TIP3    H129591   5.268   4.554  10.316 -1.0524  0.8202 -1.2327
 2700TIP3    H229592   5.195   4.433  10.369 -0.7345  0.9270 -0.5411
 2701TIP3   OH229593   5.271   3.392  13.893 -0.3987  0.5200  0.1699
 2701TIP3    H129594   5.303   3.422  13.808 -0.8631 -2.1521 -1.0556
 2701TIP3    H229595   5.347   3.395  13.951  0.0633  1.7908 -0.4791
 2702TIP3   OH229596   0.536   5.355   2.022 -0.0154 -0.3190  0.0453
 2702TIP3    H129597   0.463   5.384   2.077  1.5069  2.5639  0.7189
 2702TIP3    H229598   0.612   5.404   2.055  1.9655 -2.1622 -1.5207
 2703TIP3   OH229599   6.241   5.013   4.041  0.2465  0.0787  0.0581
 2703TIP3    H129600   6.199   5.056   3.967  0.0512  0.9094  0.6420
 2703TIP3    H229601   6.281   4.934   4.004 -0.1725  0.2903 -0.8538
 2704TIP3   OH229602   4.609   0.730   6.073 -0.2572  0.5058  0.1849
 2704TIP3    H129603   4.645   0.743   6.161  0.1374 -0.3198  0.1612
 2704TIP3    H229604   4.522   0.769   6.076 -0.4458  0.0484  1.1019
 2705TIP3   OH229605   3.059   4.495  13.908 -0.0500  0.0649  0.4866
 2705TIP3    H129606   3.073   4.546  13.828  2.9162  0.0350  0.8744
 2705TIP3    H229607   3.128   4.524  13.968 -1.0676 -1.2086  2.3774
 2706TIP3   OH229608   4.114   2.112   5.676  0.3005  0.2223 -0.4077
 2706TIP3    H129609   4.152   2.196   5.651  1.4877 -0.2705 -0.3549
 2706TIP3    H229610   4.114   2.113   5.772  1.6501 -0.3757 -0.3761
 2707TIP3   OH229611   6.031   5.185  15.996 -0.6556 -0.3386  0.0960
 2707TIP3    H129612   6.109   5.221  16.037  0.2446 -1.4381 -0.6236
 2707TIP3    H229613   5.976   5.262  15.978  0.4787  0.4928  0.1193
 2708TIP3   OH229614   4.035   0.555  16.574 -0.9749 -0.5570  0.1069
 2708TIP3    H129615   4.066   0.610  16.646 -1.5627 -0.0110 -0.0533
 2708TIP3    H229616   3.998   0.616  16.511 -1.3034 -1.1064 -0.2397
 2709TIP3   OH229617   0.736   2.776  13.322  0.1647  0.4212  0.2927
 2709TIP3    H129618   0.828   2.772  13.350  0.3902  0.6968 -0.3843
 2709TIP3    H229619   0.710   2.867  13.339 -0.4663 -0.0216  1.9156
 2710TIP3   OH229620   2.954   0.846   6.561 -0.8756 -0.5970  0.1158
 2710TIP3    H129621   3.023   0.780   6.558  0.3080  0.4740  1.8450
 2710TIP3    H229622   2.903   0.824   6.639  0.1291  0.9877  1.3060
 2711TIP3   OH229623   4.681   5.350   1.683  0.3931  0.0760 -0.1940
 2711TIP3    H129624   4.705   5.413   1.615 -0.9495 -0.9855 -1.7474
 2711TIP3    H229625   4.651   5.403   1.756  1.5973  1.2601 -0.5114
 2712TIP3   OH229626   5.157   1.763  14.560  0.5030 -0.3587 -0.5487
 2712TIP3    H129627   5.174   1.738  14.651  0.0368 -0.4120 -0.4742
 2712TIP3    H229628   5.091   1.832  14.566  0.8152 -0.0338 -0.8229
 2713TIP3   OH229629   4.987   0.360  15.733 -0.2413 -0.6166  0.5717
 2713TIP3    H129630   5.020   0.437  15.688 -0.7882 -0.5362  0.3141
 2713TIP3    H229631   4.981   0.292  15.666 -0.6370 -0.6230  0.6129
 2714TIP3   OH229632   5.551   0.503   4.364 -0.4031 -0.0827 -0.2204
 2714TIP3    H129633   5.463   0.487   4.398 -0.9747  0.5969 -1.3184
 2714TIP3    H229634   5.586   0.417   4.344 -0.2800 -0.4589  1.4899
 2715TIP3   OH229635   4.106   6.532  14.287 -0.0088 -0.2872  0.2410
 2715TIP3    H129636   4.136   6.482  14.211 -1.4819  1.2624 -1.4452
 2715TIP3    H229637   4.167   6.606  14.292  0.2237 -0.5114  0.7084
 2716TIP3   OH229638   2.714   0.744  11.765 -0.8537 -0.0573 -0.4302
 2716TIP3    H129639   2.655   0.690  11.712 -1.6256  1.2200 -0.9324
 2716TIP3    H229640   2.662   0.769  11.841 -0.5493  0.0782 -0.2667
 2717TIP3   OH229641   3.016   4.518   5.147 -0.6089 -0.1380  0.1616
 2717TIP3    H129642   3.014   4.565   5.230 -0.3084 -2.2322  1.4259
 2717TIP3    H229643   3.108   4.518   5.120 -0.7205  0.6249 -0.2436
 2718TIP3   OH229644   1.905   5.964  16.490 -0.4428  0.4331  0.0957
 2718TIP3    H129645   1.977   5.907  16.465  1.3061  2.3666  0.4510
 2718TIP3    H229646   1.828   5.908  16.486  1.1934 -2.0441  0.7911
 2719TIP3   OH229647   0.215   5.303   0.612  0.2489  0.3093  0.4599
 2719TIP3    H129648   0.285   5.312   0.547 -1.5643 -0.7197 -1.7956
 2719TIP3    H229649   0.197   5.393   0.640  0.0855  0.9857 -1.6417
 2720TIP3   OH229650   6.281   4.807   5.277  0.2606 -0.2465 -0.3377
 2720TIP3    H129651   6.363   4.782   5.318  0.0731 -1.0936 -0.4569
 2720TIP3    H229652   6.287   4.902   5.267  0.9048 -0.2071  0.3350
 2721TIP3   OH229653   1.517   1.497  14.032 -0.1348 -0.3471 -0.6976
 2721TIP3    H129654   1.602   1.541  14.037 -0.7397  0.8113 -0.3964
 2721TIP3    H229655   1.523   1.443  13.953  0.5327  0.4691 -1.2267
 2722TIP3   OH229656   4.751   1.791  10.366  0.4279  0.3504 -0.2206
 2722TIP3    H129657   4.704   1.858  10.318  1.3823  1.1187 -0.1143
 2722TIP3    H229658   4.806   1.839  10.427  0.2611 -0.5718  0.6785
 2723TIP3   OH229659   6.234   3.971  16.476 -0.6275  0.2137 -0.0005
 2723TIP3    H129660   6.258   4.038  16.541 -2.4660 -0.1271  1.0828
 2723TIP3    H229661   6.178   3.910  16.523 -1.4872 -0.4246 -1.7566
 2724TIP3   OH229662   1.529   5.710  12.270 -0.3985 -0.2115  0.0508
 2724TIP3    H129663   1.510   5.677  12.182 -0.4854 -0.3986  0.1395
 2724TIP3    H229664   1.498   5.801  12.270  0.0590 -0.0499 -0.2708
 2725TIP3   OH229665   4.764   3.374   1.784 -0.0302 -0.8692  0.3384
 2725TIP3    H129666   4.767   3.282   1.812 -0.8552 -0.4836  1.7858
 2725TIP3    H229667   4.768   3.424   1.866 -1.3079  0.3507 -0.3144
 2726TIP3   OH229668   6.461   2.914   3.193 -0.6282 -0.1143  0.1242
 2726TIP3    H129669   6.507   2.868   3.263  0.7496  0.4141 -0.4002
 2726TIP3    H229670   6.405   2.977   3.239  1.1858  1.1039  0.7796
 2727TIP3   OH229671   1.244   2.340  11.330  0.7739  0.3155  0.7859
 2727TIP3    H129672   1.287   2.366  11.412  0.6902  0.3887  0.8064
 2727TIP3    H229673   1.301   2.376  11.262  0.6738  0.5279  0.8140
 2728TIP3   OH229674   1.456   5.716  13.185 -0.4926 -0.3459  0.2302
 2728TIP3    H129675   1.410   5.767  13.118 -1.5341 -2.6446 -0.8912
 2728TIP3    H229676   1.400   5.640  13.201  0.6934 -0.8694  2.3049
 2729TIP3   OH229677   5.105   0.189   1.163 -0.7510  0.6942  0.4056
 2729TIP3    H129678   5.137   0.146   1.242 -2.9894  0.1315  1.0822
 2729TIP3    H229679   5.153   0.272   1.159  0.9970 -0.2256  1.0944
 2730TIP3   OH229680   5.528   3.801   1.884  0.1071  0.5096 -0.4843
 2730TIP3    H129681   5.620   3.777   1.870  0.4614 -0.2037  2.2649
 2730TIP3    H229682   5.511   3.872   1.823  1.3764 -1.6297 -3.5735
 2731TIP3   OH229683   0.445   6.380  14.860 -0.5305 -0.6855  0.1498
 2731TIP3    H129684   0.397   6.317  14.913 -0.7543 -1.9604 -1.4918
 2731TIP3    H229685   0.462   6.335  14.778 -0.7561  1.4221 -1.1333
 2732TIP3   OH229686   2.225   1.687   6.103 -0.2727  0.4096  0.0088
 2732TIP3    H129687   2.298   1.740   6.071  0.6162  0.1357  1.4684
 2732TIP3    H229688   2.244   1.599   6.071  0.3921  0.2157  0.9070
 2733TIP3   OH229689   1.713   6.584   2.326 -0.4822  0.3488  0.4446
 2733TIP3    H129690   1.689   6.674   2.304 -0.7583 -0.0696 -1.1171
 2733TIP3    H229691   1.785   6.593   2.389  1.1186  1.7237 -1.4480
 2734TIP3   OH229692   4.112   3.881  16.300  0.6067 -0.1185 -0.1906
 2734TIP3    H129693   4.154   3.820  16.361 -0.9108 -1.4905 -0.4570
 2734TIP3    H229694   4.018   3.866  16.312  0.2157  1.6170 -0.8496
 2735TIP3   OH229695   6.705   3.114  15.947 -0.0303 -0.7135 -0.0229
 2735TIP3    H129696   6.702   3.201  15.907 -2.9460 -0.7723 -0.2114
 2735TIP3    H229697   6.797   3.090  15.948  0.6838  1.6563 -1.5561
 2736TIP3   OH229698   0.742   3.217  10.815  0.3240 -0.6685 -0.2264
 2736TIP3    H129699   0.814   3.279  10.829  0.2164 -0.6778  0.4119
 2736TIP3    H229700   0.740   3.164  10.895 -0.2038 -0.8591 -0.3610
 2737TIP3   OH229701   4.156   3.962  11.726  0.1827 -0.7436 -0.1162
 2737TIP3    H129702   4.150   4.003  11.639  1.7829 -0.0302  0.0936
 2737TIP3    H229703   4.249   3.946  11.739  0.3503  1.6220  2.5952
 2738TIP3   OH229704   2.943   0.114   6.422  0.0410  0.4668  0.3271
 2738TIP3    H129705   2.940   0.128   6.517  0.1971 -0.6536  0.5052
 2738TIP3    H229706   2.856   0.080   6.401  0.2771 -0.0554  0.1967
 2739TIP3   OH229707   4.170   4.593  16.849  0.0131  0.3448  0.1911
 2739TIP3    H129708   4.230   4.520  16.855 -2.9727 -2.4651 -1.1515
 2739TIP3    H229709   4.169   4.617  16.756 -1.0554  0.2069  0.1564
 2740TIP3   OH229710   1.167   5.463  12.325  0.0460  0.2562  0.0058
 2740TIP3    H129711   1.218   5.515  12.387 -1.5272  1.1218  0.6218
 2740TIP3    H229712   1.202   5.374  12.332 -0.2008  0.3024  2.2722
 2741TIP3   OH229713   0.592   4.338  11.796 -0.7898  0.0009 -0.2847
 2741TIP3    H129714   0.580   4.265  11.735  0.4542 -0.7464  0.3161
 2741TIP3    H229715   0.609   4.296  11.880 -1.1717  1.0100  0.3097
 2742TIP3   OH229716   1.100   1.808  16.840 -0.2030  0.0837 -0.5194
 2742TIP3    H129717   1.060   1.721  16.848  0.1754 -0.2527 -2.0114
 2742TIP3    H229718   1.190   1.791  16.814  0.5511  0.8863  1.3347
 2743TIP3   OH229719   4.406   6.651   2.866 -0.5138 -0.5726 -0.3168
 2743TIP3    H129720   4.415   6.665   2.772  1.1130 -2.4719 -0.5016
 2743TIP3    H229721   4.421   6.737   2.904  1.9127 -0.3149 -1.6689
 2744TIP3   OH229722   1.486   1.766  12.402 -0.4074  0.2208 -0.4745
 2744TIP3    H129723   1.479   1.672  12.387  0.2183  0.1014 -0.0739
 2744TIP3    H229724   1.396   1.798  12.398 -0.5849 -0.3265 -1.0158
 2745TIP3   OH229725   4.645   4.626  13.764 -0.0871  0.4640 -0.1387
 2745TIP3    H129726   4.665   4.610  13.856  0.6119  2.3501  0.0747
 2745TIP3    H229727   4.715   4.582  13.716 -0.6411 -0.8224  0.1659
 2746TIP3   OH229728   3.065   0.175  16.344 -0.0037  0.6400  0.4066
 2746TIP3    H129729   3.099   0.248  16.291 -0.6867  1.0323  0.4982
 2746TIP3    H229730   3.132   0.108  16.337  0.3100  1.0076 -0.2675
 2747TIP3   OH229731   5.124   2.920  10.714  0.1024  0.4715 -0.0179
 2747TIP3    H129732   5.210   2.930  10.673 -1.0914  0.6496 -2.6887
 2747TIP3    H229733   5.072   2.992  10.678 -2.0534 -1.4657 -1.0417
 2748TIP3   OH229734   0.007   3.807   1.805  0.1983  0.1944  0.1018
 2748TIP3    H129735  -0.051   3.843   1.738  0.5624 -1.6542 -1.2900
 2748TIP3    H229736   0.095   3.821   1.771  0.4378  0.1005  0.6708
 2749TIP3   OH229737   1.552   4.123  15.286  0.4640  0.5481  0.0266
 2749TIP3    H129738   1.490   4.125  15.358 -0.8056  0.6072 -1.0377
 2749TIP3    H229739   1.525   4.195  15.229  1.8639  0.9369 -0.1834
 2750TIP3   OH229740   0.337   2.236  16.701 -0.0222  0.6818 -0.0272
 2750TIP3    H129741   0.262   2.178  16.712 -0.0410  0.7008 -0.0550
 2750TIP3    H229742   0.308   2.302  16.638 -0.5462  1.6449  1.1602
 2751TIP3   OH229743   2.131   2.833  13.684  0.0462 -0.0893  0.2078
 2751TIP3    H129744   2.168   2.921  13.696 -0.4654  0.3037 -0.9902
 2751TIP3    H229745   2.208   2.776  13.681  0.4833  0.5127 -0.5067
 2752TIP3   OH229746   1.155   3.854   4.285 -0.5144 -0.3972 -0.1447
 2752TIP3    H129747   1.249   3.858   4.302 -0.3410 -0.9407 -0.9238
 2752TIP3    H229748   1.138   3.924   4.223 -0.6081 -0.3500 -0.0668
 2753TIP3   OH229749   0.687   5.430  16.190 -0.2039 -0.3886  0.1001
 2753TIP3    H129750   0.775   5.457  16.214 -0.6083  0.2809  0.8893
 2753TIP3    H229751   0.633   5.452  16.266 -1.2655  0.3082 -0.8124
 2754TIP3   OH229752   5.616   3.678  13.367 -0.2246  1.1446 -0.5394
 2754TIP3    H129753   5.605   3.753  13.308 -0.6646  0.0347 -1.9394
 2754TIP3    H229754   5.570   3.607  13.323  0.2180  0.0324  0.7355
 2755TIP3   OH229755   1.598   6.332   5.654 -0.2213  0.3231 -0.3666
 2755TIP3    H129756   1.519   6.320   5.707  0.7717 -0.2871  1.0243
 2755TIP3    H229757   1.588   6.271   5.581 -0.5800 -0.5104  0.3619
 2756TIP3   OH229758   0.681   3.939   4.476  0.0976 -0.4205 -0.4321
 2756TIP3    H129759   0.773   3.957   4.496 -0.0419 -0.1959  0.0074
 2756TIP3    H229760   0.676   3.843   4.471  0.1254 -0.4914  0.6772
 2757TIP3   OH229761   3.520   3.545   0.838  0.1045  0.0891 -0.2289
 2757TIP3    H129762   3.434   3.573   0.872 -0.1208 -0.9082  0.0500
 2757TIP3    H229763   3.539   3.608   0.768 -1.3185 -0.2387 -0.9693
 2758TIP3   OH229764   2.243   5.966  11.597 -0.1640 -0.5336 -0.4986
 2758TIP3    H129765   2.302   6.002  11.664 -1.2247  0.5179 -0.0970
 2758TIP3    H229766   2.285   5.884  11.571 -0.7084 -2.1000  2.9383
 2759TIP3   OH229767   6.470   0.466  14.328  0.2107 -0.4146 -0.0041
 2759TIP3    H129768   6.423   0.405  14.271 -0.1569 -0.6371  0.5284
 2759TIP3    H229769   6.506   0.411  14.397 -0.5706  0.0307  0.7719
 2760TIP3   OH229770   4.810   0.436   6.310 -0.6329 -0.6562  0.3399
 2760TIP3    H129771   4.731   0.430   6.255  0.5235 -1.2373 -1.3235
 2760TIP3    H229772   4.828   0.530   6.314 -0.0059 -0.6613 -1.4200
 2761TIP3   OH229773   1.349   6.324  14.663  0.1298 -0.4430  0.0594
 2761TIP3    H129774   1.443   6.329  14.649  0.1793  0.7433  0.6903
 2761TIP3    H229775   1.330   6.231  14.663  1.3108 -0.7011 -0.0373
 2762TIP3   OH229776   0.300   1.185  16.023  0.0484 -0.0218 -0.3976
 2762TIP3    H129777   0.386   1.152  16.047  0.3599  1.1338  0.1352
 2762TIP3    H229778   0.318   1.267  15.976 -0.7356  0.0306 -0.6197
 2763TIP3   OH229779   1.203   4.610  14.148  0.0746 -0.0666 -0.3278
 2763TIP3    H129780   1.166   4.688  14.106 -0.6865 -0.9679 -1.3829
 2763TIP3    H229781   1.241   4.643  14.229  0.1632  1.4773 -0.9526
 2764TIP3   OH229782   4.978   1.421  15.045  0.0417  0.0017 -0.0905
 2764TIP3    H129783   5.043   1.489  15.024 -0.8330  0.5611 -1.1456
 2764TIP3    H229784   4.898   1.451  15.000 -1.4599  0.2574  2.5829
 2765TIP3   OH229785   2.072   3.889   0.511 -0.3459 -0.1669  0.3491
 2765TIP3    H129786   2.068   3.958   0.446  2.9618 -1.4344 -1.3866
 2765TIP3    H229787   2.141   3.917   0.572 -0.0467 -1.2149  0.5081
 2766TIP3   OH229788   5.705   2.104  12.057  0.2382 -0.1341 -0.2495
 2766TIP3    H129789   5.716   2.056  11.974  0.9489 -0.2680 -0.0819
 2766TIP3    H229790   5.784   2.158  12.064 -0.9028  1.6753 -0.8194
 2767TIP3   OH229791   0.152   6.624  15.275 -0.1731 -0.6450  0.1013
 2767TIP3    H129792   0.106   6.587  15.350 -1.6170 -1.6020 -1.1728
 2767TIP3    H229793   0.107   6.585  15.199  0.4690  1.1623 -1.2670
 2768TIP3   OH229794   3.907   4.411  10.740 -0.0007 -0.4364  0.6204
 2768TIP3    H129795   3.933   4.325  10.773 -0.3113 -0.3758  1.0370
 2768TIP3    H229796   3.974   4.471  10.775  1.5115 -0.7839 -1.5077
 2769TIP3   OH229797   1.492   3.351   4.884 -0.1131 -0.0326  0.3682
 2769TIP3    H129798   1.568   3.389   4.929 -0.4679 -0.7386  1.6092
 2769TIP3    H229799   1.447   3.427   4.846  2.1845  0.2617 -2.0538
 2770TIP3   OH229800   0.413   3.712  12.861 -0.3210  0.1808  0.1791
 2770TIP3    H129801   0.369   3.780  12.810 -2.5823 -1.2930  0.0090
 2770TIP3    H229802   0.505   3.718  12.835 -0.6655  2.3119 -0.7582
 2771TIP3   OH229803   1.854   0.815   2.040 -0.2459  0.0850 -1.0163
 2771TIP3    H129804   1.870   0.829   1.947  0.9188 -1.1166 -1.0175
 2771TIP3    H229805   1.803   0.734   2.044 -0.4865  0.2475 -0.6014
 2772TIP3   OH229806   6.410   6.224   0.294 -0.2304 -0.9001  0.7264
 2772TIP3    H129807   6.404   6.199   0.201 -0.0156 -1.5508  0.8877
 2772TIP3    H229808   6.319   6.222   0.324 -0.8420  2.9008 -0.3697
 2773TIP3   OH229809   2.343   3.683   6.030 -0.1384 -0.7505  0.1081
 2773TIP3    H129810   2.320   3.650   6.117  2.4162  0.0014  1.1622
 2773TIP3    H229811   2.438   3.694   6.033 -0.2293  1.4614 -2.0144
 2774TIP3   OH229812   3.754   6.150  13.823 -0.1330 -0.4400 -0.0007
 2774TIP3    H129813   3.822   6.090  13.790 -1.2558 -0.7415 -1.8595
 2774TIP3    H229814   3.772   6.156  13.917  1.8266 -1.3292 -0.2663
 2775TIP3   OH229815   6.331   1.665  15.023  0.2183  0.3266  0.3647
 2775TIP3    H129816   6.304   1.756  15.015 -0.4826  0.0420 -0.7376
 2775TIP3    H229817   6.399   1.653  14.957 -2.3402 -0.8641 -2.2829
 2776TIP3   OH229818   2.767   2.545  12.899 -0.0003  0.0326 -0.5658
 2776TIP3    H129819   2.820   2.486  12.952 -1.1891 -1.1351 -0.6065
 2776TIP3    H229820   2.809   2.545  12.813 -1.4312 -3.0625 -1.4389
 2777TIP3   OH229821   0.322   0.649   0.808 -0.0537 -0.1947  0.3339
 2777TIP3    H129822   0.284   0.693   0.732  0.7786 -1.3748 -0.8140
 2777TIP3    H229823   0.247   0.634   0.866 -0.3494  2.7218  0.8450
 2778TIP3   OH229824   4.418   1.156  15.441  0.9099  0.4788  0.0315
 2778TIP3    H129825   4.348   1.094  15.464 -0.5261  1.5647 -1.1959
 2778TIP3    H229826   4.452   1.124  15.358  2.3451 -0.3860  0.9131
 2779TIP3   OH229827   5.638   1.507   4.540 -0.0121 -0.0450 -0.5462
 2779TIP3    H129828   5.608   1.572   4.603  1.5292 -1.4930  1.8255
 2779TIP3    H229829   5.707   1.551   4.490 -1.0518  1.0232 -1.0933
 2780TIP3   OH229830   6.554   0.023  11.212 -0.4462 -0.0874 -0.7972
 2780TIP3    H129831   6.613  -0.011  11.280  0.3566  0.8496 -1.0166
 2780TIP3    H229832   6.474   0.045  11.260 -0.1168 -0.0390 -0.2611
 2781TIP3   OH229833   3.269   3.854  16.683 -0.1661  0.4254  0.2427
 2781TIP3    H129834   3.283   3.771  16.729  0.9162  2.1420  3.2275
 2781TIP3    H229835   3.221   3.829  16.603 -0.3307 -2.9722  1.2638
 2782TIP3   OH229836   0.898   4.957   0.124  0.3268  0.1319 -0.3175
 2782TIP3    H129837   0.938   5.030   0.077  0.0183  0.1080 -0.6283
 2782TIP3    H229838   0.809   4.953   0.090  0.5050 -0.7442 -0.7204
 2783TIP3   OH229839   6.711   5.661  12.812  0.3502 -0.5283  0.0559
 2783TIP3    H129840   6.803   5.676  12.836  0.6141 -1.5846 -0.2557
 2783TIP3    H229841   6.663   5.674  12.894  0.7953 -0.2038  0.2707
 2784TIP3   OH229842   2.161   0.210   2.355  0.1322 -0.0016 -0.4196
 2784TIP3    H129843   2.102   0.170   2.290 -1.2077  0.0314  0.7174
 2784TIP3    H229844   2.191   0.136   2.408 -1.2161  0.2672  0.7922
 2785TIP3   OH229845   2.347   6.395  11.469  0.3315  0.3901  0.2081
 2785TIP3    H129846   2.293   6.383  11.391 -1.5315  0.9752  1.3535
 2785TIP3    H229847   2.437   6.393  11.436 -0.3999  2.5403 -2.2860
 2786TIP3   OH229848   0.938   2.400   2.043 -0.0989  0.5516  0.2576
 2786TIP3    H129849   0.942   2.460   2.118 -0.3781 -0.8826  1.4540
 2786TIP3    H229850   0.955   2.314   2.080  0.2737 -0.1363 -1.4349
 2787TIP3   OH229851   6.108   2.101   3.848  0.0303  0.1045 -0.3021
 2787TIP3    H129852   6.052   2.026   3.828  0.1887 -0.1816  0.3079
 2787TIP3    H229853   6.103   2.156   3.770 -1.9721  0.6331  0.1540
 2788TIP3   OH229854   6.190   3.111   0.266 -0.2979 -0.2907  0.7438
 2788TIP3    H129855   6.198   3.023   0.300 -2.7357 -0.1836  1.8327
 2788TIP3    H229856   6.120   3.151   0.318  1.2029  2.5440  0.7822
 2789TIP3   OH229857   2.739   0.056   2.716 -0.6388 -0.9648 -0.0442
 2789TIP3    H129858   2.831   0.046   2.692 -0.9433 -2.0677 -0.8345
 2789TIP3    H229859   2.733   0.016   2.803  0.2515  2.0935  1.5459
 2790TIP3   OH229860   2.434   4.540   3.099 -0.8519 -0.0752  0.5276
 2790TIP3    H129861   2.489   4.471   3.062 -0.6016  0.4393 -0.0715
 2790TIP3    H229862   2.365   4.553   3.034  0.1429  1.5189 -0.2558
 2791TIP3   OH229863   3.318   5.928  13.064 -0.2850  0.2967  0.6565
 2791TIP3    H129864   3.332   5.851  13.008 -0.5961  0.1768  0.7401
 2791TIP3    H229865   3.226   5.951  13.051 -0.0971  0.8870  0.3456
 2792TIP3   OH229866   1.040   3.433  11.730 -0.2943 -0.0149  0.3286
 2792TIP3    H129867   1.130   3.464  11.723 -0.6235  0.8235 -0.3716
 2792TIP3    H229868   0.993   3.503  11.776 -0.5921 -0.4220  0.6484
 2793TIP3   OH229869   4.422   6.072  13.749 -0.5630 -0.3568  0.2469
 2793TIP3    H129870   4.464   5.989  13.774  0.3724 -0.6485 -2.0618
 2793TIP3    H229871   4.413   6.066  13.654 -0.3325  2.2530  0.0030
 2794TIP3   OH229872   2.524   2.922   5.678  0.1447 -0.2943 -0.5500
 2794TIP3    H129873   2.501   2.962   5.594 -0.7666  0.6219  0.1167
 2794TIP3    H229874   2.587   2.983   5.716  0.1706 -0.4516 -0.3427
 2795TIP3   OH229875   2.759   6.493  10.552  0.2633  0.0080 -0.6769
 2795TIP3    H129876   2.810   6.495  10.633 -0.5029  0.7921 -0.1938
 2795TIP3    H229877   2.810   6.437  10.493  0.9955 -0.3131  0.2306
 2796TIP3   OH229878   3.333   4.923  16.839  0.1112 -0.5571 -0.4807
 2796TIP3    H129879   3.356   4.831  16.856  0.6107 -0.5454 -1.0421
 2796TIP3    H229880   3.317   4.926  16.745 -1.3601 -0.3683 -0.2547
 2797TIP3   OH229881   3.631   2.825  15.166  0.1775 -0.6558 -0.1782
 2797TIP3    H129882   3.726   2.819  15.154  0.1185 -0.8804 -0.5263
 2797TIP3    H229883   3.603   2.889  15.100  0.2369  0.2926  0.6864
 2798TIP3   OH229884   6.494   5.550   6.039 -0.0122 -0.1468 -0.2509
 2798TIP3    H129885   6.442   5.494   6.097 -1.2851  0.7423 -0.4843
 2798TIP3    H229886   6.431   5.614   6.005  1.3613  1.4079 -0.0269
 2799TIP3   OH229887   4.312   2.787  12.029 -0.9059 -0.2086  0.1415
 2799TIP3    H129888   4.363   2.799  12.109 -3.5974  0.8502  1.8784
 2799TIP3    H229889   4.302   2.875  11.994 -1.5600 -0.3670 -0.0936
 2800TIP3   OH229890   2.100   2.770   0.691  0.4306 -0.2013 -0.3606
 2800TIP3    H129891   2.165   2.729   0.748 -0.0994  0.3815  0.7029
 2800TIP3    H229892   2.152   2.822   0.629  0.9968  0.7792  0.8862
 2801TIP3   OH229893   2.749   2.069   2.687  0.0244  0.2491  0.2461
 2801TIP3    H129894   2.665   2.080   2.732  0.3071  1.6963  0.4687
 2801TIP3    H229895   2.728   2.082   2.594 -0.3066 -1.3237  0.0653
 2802TIP3   OH229896   1.169   4.574   4.657  0.1576  0.1838 -0.8149
 2802TIP3    H129897   1.111   4.503   4.628 -0.6654  1.2158 -1.7586
 2802TIP3    H229898   1.124   4.654   4.630  2.0588  1.0265 -1.6627
 2803TIP3   OH229899   4.296   4.534  15.069 -0.0741  0.0821 -0.3460
 2803TIP3    H129900   4.228   4.570  15.125  1.4543  0.9263  1.0457
 2803TIP3    H229901   4.378   4.569  15.104  1.2307 -2.0845 -1.0162
 2804TIP3   OH229902   5.787   6.053   2.494  0.1573 -0.4122 -0.3701
 2804TIP3    H129903   5.709   5.999   2.482  0.4221 -0.5198 -1.7189
 2804TIP3    H229904   5.772   6.129   2.437  0.0178  0.7285  1.1061
 2805TIP3   OH229905   3.180   0.417  15.874  0.1167 -0.0689 -0.5008
 2805TIP3    H129906   3.162   0.402  15.967 -0.7593  2.1934 -0.2413
 2805TIP3    H229907   3.275   0.415  15.868  0.1566 -1.8813  0.0948
 2806TIP3   OH229908   2.030   3.016  10.716 -0.4861  0.6628  0.2393
 2806TIP3    H129909   2.116   2.974  10.724  0.9653  3.6679  1.7994
 2806TIP3    H229910   2.029   3.050  10.627 -0.6328 -0.4208 -0.1967
 2807TIP3   OH229911   6.570   3.305  13.901 -0.3513 -0.7092 -0.4337
 2807TIP3    H129912   6.580   3.339  13.990 -0.7037  0.1432 -0.7153
 2807TIP3    H229913   6.651   3.330  13.857 -0.0068 -1.4706 -0.2580
 2808TIP3   OH229914   1.522   5.941  14.864  0.3803  0.3043  0.5738
 2808TIP3    H129915   1.449   5.901  14.910 -1.5341  1.6027 -1.1454
 2808TIP3    H229916   1.550   6.013  14.920 -0.7680  0.7972  0.5392
 2809TIP3   OH229917   0.932   3.374   3.741  0.3935 -0.9226  0.2728
 2809TIP3    H129918   0.943   3.469   3.745  2.2175 -1.1224  0.7399
 2809TIP3    H229919   1.017   3.341   3.713 -0.3072 -2.4138 -0.2248
 2810TIP3   OH229920   4.635   6.473   5.685  0.0028  0.2850 -0.2810
 2810TIP3    H129921   4.586   6.398   5.720  0.8823 -0.7891 -1.2647
 2810TIP3    H229922   4.725   6.441   5.675  0.3691  1.4321 -0.8495
 2811TIP3   OH229923   2.630   3.397  13.031  0.0593  0.6118 -0.5826
 2811TIP3    H129924   2.572   3.387  12.956 -3.9086 -0.5258  2.3519
 2811TIP3    H229925   2.685   3.319  13.029 -0.3211  0.3469 -1.9712
 2812TIP3   OH229926   6.334   1.847   5.260 -0.4007 -0.0799  0.2984
 2812TIP3    H129927   6.304   1.856   5.350  0.4532  1.8241  0.4445
 2812TIP3    H229928   6.397   1.775   5.262  0.4956  0.6993  1.5011
 2813TIP3   OH229929   1.497   1.133   6.589 -0.1445 -0.2622 -0.4605
 2813TIP3    H129930   1.451   1.174   6.662  0.2961  0.6967 -0.7034
 2813TIP3    H229931   1.545   1.060   6.629  0.0657  0.2290  0.2128
 2814TIP3   OH229932   0.167   0.266   1.091 -0.0932 -0.2766  0.2671
 2814TIP3    H129933   0.238   0.325   1.117 -0.0833 -1.5971  3.8987
 2814TIP3    H229934   0.211   0.195   1.044  0.7245 -0.1205  0.7712
 2815TIP3   OH229935   3.564   1.154   2.106  0.1365  0.2190 -0.3336
 2815TIP3    H129936   3.629   1.174   2.038  0.4109 -0.2500 -0.2149
 2815TIP3    H229937   3.510   1.233   2.112  1.9675  1.4595  1.0199
 2816TIP3   OH229938   4.157   3.100   0.906  0.2433 -0.0142  0.9977
 2816TIP3    H129939   4.162   3.021   0.852 -0.7497 -0.8141  2.0258
 2816TIP3    H229940   4.164   3.068   0.996  0.6872  1.1701  1.4010
 2817TIP3   OH229941   0.193   2.657   9.910  0.6853  0.0298  0.0344
 2817TIP3    H129942   0.280   2.664   9.949  1.0062 -0.0150 -0.6549
 2817TIP3    H229943   0.136   2.629   9.982  1.0206  1.1619  0.7677
 2818TIP3   OH229944   3.237   4.660  10.713 -0.4069 -0.0627 -0.5984
 2818TIP3    H129945   3.178   4.634  10.643  0.6999 -1.2482 -1.1324
 2818TIP3    H229946   3.319   4.680  10.668  0.5958 -1.7006  0.4034
 2819TIP3   OH229947   1.519   2.500   2.380  0.3394 -0.0544 -0.0425
 2819TIP3    H129948   1.526   2.406   2.364  0.4232 -0.0180 -0.2283
 2819TIP3    H229949   1.432   2.512   2.418 -0.4010 -0.0027 -1.6494
 2820TIP3   OH229950   0.696   0.764   5.823  0.8901  0.0304 -0.0943
 2820TIP3    H129951   0.602   0.777   5.814  0.7568 -0.3735  0.6882
 2820TIP3    H229952   0.706   0.710   5.901  1.8299  0.8078  0.3403
 2821TIP3   OH229953   2.604   6.164   5.923 -0.1061  0.1449  0.0505
 2821TIP3    H129954   2.648   6.243   5.892 -0.1683  0.3871  0.5605
 2821TIP3    H229955   2.630   6.096   5.861  1.3880  0.1778  0.5919
 2822TIP3   OH229956   5.204   3.660  16.992  0.2409  0.5425  0.2190
 2822TIP3    H129957   5.157   3.582  16.961  0.9546 -0.3901  1.4128
 2822TIP3    H229958   5.134   3.723  17.010 -0.2572  0.8847 -2.4833
 2823TIP3   OH229959   0.722   1.379   4.492  0.4323 -0.0493 -0.3318
 2823TIP3    H129960   0.634   1.417   4.487 -0.5380 -1.4834  3.0165
 2823TIP3    H229961   0.765   1.426   4.564  2.5625  0.7079 -1.9755
 2824TIP3   OH229962   5.925   4.425  13.927  0.1181  1.2655 -0.2745
 2824TIP3    H129963   5.967   4.408  13.843  0.7315  0.5870  0.1538
 2824TIP3    H229964   5.855   4.360  13.932  1.4962 -0.2268  0.6922
 2825TIP3   OH229965   2.023   1.596  16.011  0.3785 -0.7749  0.4400
 2825TIP3    H129966   2.057   1.590  15.921 -1.2354  1.4296 -0.3956
 2825TIP3    H229967   1.963   1.521  16.018 -0.6277 -0.1371 -0.8915
 2826TIP3   OH229968   3.535   2.414   4.151  0.3951  0.5746 -0.1196
 2826TIP3    H129969   3.591   2.357   4.098 -0.6667  0.2380 -0.9321
 2826TIP3    H229970   3.456   2.425   4.098 -0.7782  0.0981  1.4646
 2827TIP3   OH229971   2.112   1.600   3.828  0.3532  0.5734 -0.4048
 2827TIP3    H129972   2.030   1.634   3.865 -1.8618 -2.7473 -1.7323
 2827TIP3    H229973   2.130   1.521   3.879  2.2025  0.7086 -0.7964
 2828TIP3   OH229974   5.606   4.980   0.116  0.0809  0.3174  0.5121
 2828TIP3    H129975   5.622   4.956   0.207 -1.1838 -1.3187  0.3632
 2828TIP3    H229976   5.523   4.937   0.094  0.3369  0.6888 -1.4075
 2829TIP3   OH229977   2.297   1.856   0.969 -0.0876 -0.3168 -0.3308
 2829TIP3    H129978   2.251   1.773   0.968  0.2433 -0.5591  1.4994
 2829TIP3    H229979   2.328   1.867   0.879  1.1152 -2.8949 -0.3310
 2830TIP3   OH229980   4.614   0.163   2.303  0.1287 -0.2876 -0.6540
 2830TIP3    H129981   4.527   0.145   2.267  0.3223  1.3303 -2.0509
 2830TIP3    H229982   4.674   0.154   2.229  0.8561  0.7223 -0.2206
 2831TIP3   OH229983   1.939   0.057   0.226 -0.3090 -0.2220 -0.4764
 2831TIP3    H129984   1.969  -0.033   0.233 -2.7783 -1.2009 -1.2637
 2831TIP3    H229985   1.951   0.093   0.314  0.3750 -1.4312 -0.0521
 2832TIP3   OH229986   3.676   5.927  12.353 -0.0462 -0.0308 -0.3678
 2832TIP3    H129987   3.720   6.008  12.326  0.8188 -0.5682 -0.6084
 2832TIP3    H229988   3.607   5.956  12.413 -0.4145  0.9714 -1.2388
 2833TIP3   OH229989   6.125   2.386  15.480 -0.1500  0.0265 -0.0445
 2833TIP3    H129990   6.102   2.310  15.533 -1.7912  0.9202  0.5920
 2833TIP3    H229991   6.043   2.414  15.441  0.7336  0.4256 -1.7199
 2834TIP3   OH229992   2.620   5.364   0.711  0.3267  0.1688  0.6070
 2834TIP3    H129993   2.581   5.357   0.624  3.0832 -1.1886 -0.6490
 2834TIP3    H229994   2.676   5.442   0.705  2.7996 -1.5230  0.0379
 2835TIP3   OH229995   4.173   2.405  12.630  0.4927  0.4246  0.6657
 2835TIP3    H129996   4.106   2.384  12.695  0.7135 -0.3523  0.6547
 2835TIP3    H229997   4.196   2.321  12.592  1.2735  0.7209  0.4685
 2836TIP3   OH229998   4.802   3.361   4.950 -0.1825  0.2961  0.0641
 2836TIP3    H129999   4.804   3.270   4.922  2.7802  0.3035 -0.1220
 2836TIP3    H230000   4.762   3.408   4.877  3.3301 -0.2577 -2.4801
 2837TIP3   OH230001   1.298   5.476   5.187  0.0588 -0.1695  0.1692
 2837TIP3    H130002   1.287   5.570   5.201 -0.4487 -0.2621  0.3940
 2837TIP3    H230003   1.328   5.443   5.272 -3.1035 -0.7462  1.1875
 2838TIP3   OH230004   6.743   4.081  13.929  0.4551 -0.2307 -0.2756
 2838TIP3    H130005   6.706   4.157  13.883 -3.7509 -1.2039  1.0261
 2838TIP3    H230006   6.727   4.007  13.871  2.9054 -0.4661 -0.7580
 2839TIP3   OH230007   3.519   1.394  15.885  0.4133  0.4521  0.4625
 2839TIP3    H130008   3.517   1.399  15.980 -1.7494 -0.0986  0.5009
 2839TIP3    H230009   3.540   1.484  15.857  3.8385  0.0647  1.3982
 2840TIP3   OH230010   1.758   3.077  14.989 -1.3353 -0.6707  0.1132
 2840TIP3    H130011   1.735   3.054  14.899 -1.0629  2.4510 -0.8852
 2840TIP3    H230012   1.690   3.037  15.042 -2.5948 -1.0589 -1.6824
 2841TIP3   OH230013   3.990   2.757   5.939  0.0263  0.0794 -0.2097
 2841TIP3    H130014   4.063   2.760   5.878  0.1413  0.2069 -0.0681
 2841TIP3    H230015   3.970   2.664   5.948 -1.0912  0.1472 -1.7286
 2842TIP3   OH230016   5.948   1.821  13.035 -0.3825 -0.1728  0.0878
 2842TIP3    H130017   5.944   1.914  13.012 -0.0579 -0.0902  0.3689
 2842TIP3    H230018   5.858   1.790  13.021 -0.5886  0.2733  0.3738
 2843TIP3   OH230019   5.836   3.298   1.935 -0.2978  0.2289 -0.3074
 2843TIP3    H130020   5.828   3.206   1.910  0.5433 -0.0381  0.3618
 2843TIP3    H230021   5.776   3.310   2.008  0.7382 -0.1884  0.6232
 2844TIP3   OH230022   2.463   3.801  16.830  0.2667  0.5044 -0.1103
 2844TIP3    H130023   2.550   3.794  16.870  0.7292 -0.1132 -1.1886
 2844TIP3    H230024   2.461   3.732  16.765 -0.7814  0.9685 -0.5926
 2845TIP3   OH230025   1.911   6.730   1.681  0.0332  0.0211  0.2316
 2845TIP3    H130026   1.854   6.693   1.749  1.1486  0.4990  1.4860
 2845TIP3    H230027   1.889   6.823   1.679  1.1559  0.3391  1.1913
 2846TIP3   OH230028   2.212   3.776   3.442  0.2456 -0.4545  0.4183
 2846TIP3    H130029   2.196   3.765   3.535 -0.0661 -0.5231  0.3589
 2846TIP3    H230030   2.133   3.741   3.400  0.9654 -1.7650  0.0794
 2847TIP3   OH230031   1.432   6.813   3.812  0.2703 -0.1536  0.4679
 2847TIP3    H130032   1.456   6.728   3.850  0.3856  0.0380  0.8209
 2847TIP3    H230033   1.412   6.869   3.887  1.3048  0.4703  0.3066
 2848TIP3   OH230034   5.762   1.907   1.777 -0.1508  0.0103  0.1461
 2848TIP3    H130035   5.756   1.988   1.827 -0.0147  0.0279  0.1369
 2848TIP3    H230036   5.781   1.840   1.842 -1.7759 -0.2734  0.3545
 2849TIP3   OH230037   3.860   5.870   4.027 -0.2328  0.4366 -0.2273
 2849TIP3    H130038   3.952   5.893   4.018 -0.1336  0.4118  0.6753
 2849TIP3    H230039   3.850   5.791   3.974  0.5434 -0.2589  0.6360
 2850TIP3   OH230040   3.666   1.408   5.638 -0.6983  0.3894  0.3209
 2850TIP3    H130041   3.659   1.409   5.733  1.5910  2.4061  0.5313
 2850TIP3    H230042   3.582   1.442   5.608 -2.1000 -1.7819  1.4636
 2851TIP3   OH230043   6.521   6.422  10.669 -0.3478  0.0836 -0.3638
 2851TIP3    H130044   6.515   6.352  10.603 -3.8429 -0.8918  0.7518
 2851TIP3    H230045   6.487   6.499  10.625  0.2461  0.2341 -0.5715
 2852TIP3   OH230046   1.522   4.151  14.434  0.0425 -0.2597 -0.1415
 2852TIP3    H130047   1.531   4.077  14.374  1.5731 -0.6269  0.4885
 2852TIP3    H230048   1.608   4.194  14.433 -0.0538  0.0336  1.3520
 2853TIP3   OH230049   3.783   0.982  13.009 -0.1775  0.2082  0.1955
 2853TIP3    H130050   3.736   0.898  12.999 -1.2047  0.7021  0.7202
 2853TIP3    H230051   3.731   1.044  12.958  2.2535 -0.0006 -2.8724
 2854TIP3   OH230052   6.196   1.808  12.706  0.1213 -0.0529  0.1542
 2854TIP3    H130053   6.148   1.867  12.648  0.8672 -0.0165 -0.4377
 2854TIP3    H230054   6.199   1.854  12.790 -1.1460 -0.1935  0.3029
 2855TIP3   OH230055   1.847   0.365  11.224  0.3937 -0.0439  0.4553
 2855TIP3    H130056   1.863   0.320  11.307  3.4931  0.3371  0.2033
 2855TIP3    H230057   1.890   0.310  11.159 -2.9007 -0.8971 -1.1682
 2856TIP3   OH230058   5.500   5.713  15.135 -0.7757  0.1456 -0.6993
 2856TIP3    H130059   5.505   5.642  15.071  0.2377  0.5879 -1.1312
 2856TIP3    H230060   5.442   5.679  15.203 -0.1268 -1.1979 -0.7766
 2857TIP3   OH230061   5.877   6.370   1.130  0.0696  0.5418  0.0066
 2857TIP3    H130062   5.793   6.342   1.097  1.5965 -1.0056 -2.9039
 2857TIP3    H230063   5.941   6.310   1.092  2.4668  0.8212  3.0675
 2858TIP3   OH230064   6.712   2.143  11.461  0.0714 -0.3659 -0.1832
 2858TIP3    H130065   6.716   2.070  11.523  1.5795 -1.2007 -1.1916
 2858TIP3    H230066   6.725   2.102  11.376  1.5201  1.1272 -0.7356
 2859TIP3   OH230067   0.262   1.405  11.103 -0.1807  0.1981 -0.5971
 2859TIP3    H130068   0.290   1.486  11.145  0.7385 -0.7482  0.7133
 2859TIP3    H230069   0.193   1.431  11.042 -1.3635  1.7162  1.2796
 2860TIP3   OH230070   2.250   1.032   2.057  0.1373 -0.4573 -0.1142
 2860TIP3    H130071   2.189   1.028   1.984 -0.4352 -0.8009  0.3794
 2860TIP3    H230072   2.336   1.039   2.016 -0.1070 -1.5185 -0.8279
 2861TIP3   OH230073   2.097   1.068   3.808  0.0651 -0.5009 -0.5631
 2861TIP3    H130074   2.189   1.078   3.832 -0.1566 -0.9684  0.5069
 2861TIP3    H230075   2.056   1.026   3.883 -0.4753 -2.8859 -2.0894
 2862TIP3   OH230076   3.650   4.575  14.399  0.0473 -0.8017  0.5420
 2862TIP3    H130077   3.650   4.484  14.429  0.9857 -0.8821  0.3175
 2862TIP3    H230078   3.690   4.572  14.312  0.0651 -0.1797  0.5258
 2863TIP3   OH230079   2.706   4.441   3.018  0.0165 -0.1749 -0.0097
 2863TIP3    H130080   2.722   4.524   3.063 -0.0519 -0.2505  0.1582
 2863TIP3    H230081   2.793   4.404   3.003  0.1510  0.7600 -1.6979
 2864TIP3   OH230082   1.433   4.685  11.409  0.0322  0.2657 -0.0521
 2864TIP3    H130083   1.393   4.630  11.341  1.5025 -0.3433 -0.4805
 2864TIP3    H230084   1.450   4.768  11.365  1.1424 -0.1847 -0.5341
 2865TIP3   OH230085   0.067   4.367   1.418 -0.8171 -0.6970  0.0496
 2865TIP3    H130086  -0.004   4.431   1.416 -1.9121 -1.8742 -0.4548
 2865TIP3    H230087   0.040   4.300   1.355  0.5492 -1.3926  0.1641
 2866TIP3   OH230088   1.240   4.506   0.554  0.5369  0.1803 -0.3121
 2866TIP3    H130089   1.261   4.494   0.462  0.9713  0.1255 -0.2087
 2866TIP3    H230090   1.171   4.572   0.555  1.5326  1.2664 -0.5899
 2867TIP3   OH230091   6.680   3.533   1.368  0.3122  0.6878  0.6636
 2867TIP3    H130092   6.725   3.539   1.452 -1.1037  2.7139  1.3547
 2867TIP3    H230093   6.730   3.591   1.310  0.9161 -0.2198  0.2474
 2868TIP3   OH230094   5.991   4.463  15.482 -0.5529 -0.4328  0.0693
 2868TIP3    H130095   6.064   4.406  15.509 -1.7477 -0.8319  2.8780
 2868TIP3    H230096   5.965   4.431  15.396  1.9657 -0.8611 -0.6086
 2869TIP3   OH230097   1.962   6.234  13.777  0.0589  0.3168  0.1332
 2869TIP3    H130098   1.931   6.179  13.848 -1.6044  0.2430 -0.6063
 2869TIP3    H230099   1.907   6.312  13.782  0.3996  0.6112 -0.6315
 2870TIP3   OH230100   4.852   0.781   1.214 -0.1515  0.9167  0.0812
 2870TIP3    H130101   4.902   0.725   1.273 -3.7099 -0.6760  1.8909
 2870TIP3    H230102   4.860   0.739   1.128 -0.0041 -0.3932  0.7199
 2871TIP3   OH230103   6.308   3.611  15.512 -0.0774  0.4043 -0.4441
 2871TIP3    H130104   6.391   3.601  15.465 -0.4783 -3.7524 -0.5918
 2871TIP3    H230105   6.241   3.606  15.445 -0.5470  0.5724  0.0086
 2872TIP3   OH230106   4.755   5.374  13.801  0.4631 -0.2623 -0.1359
 2872TIP3    H130107   4.795   5.452  13.762 -1.2671  0.6293 -0.2001
 2872TIP3    H230108   4.788   5.373  13.891 -0.0454  0.9691  0.0837
 2873TIP3   OH230109   2.132   5.969   0.496 -0.1048  0.3002  0.4006
 2873TIP3    H130110   2.190   5.916   0.551  0.5019  0.3333 -0.2053
 2873TIP3    H230111   2.185   6.045   0.471 -0.7264  0.8305  0.6448
 2874TIP3   OH230112   2.952   2.348   1.918 -0.2522  0.0180  0.3705
 2874TIP3    H130113   3.013   2.403   1.968 -1.1441  1.3508  0.0314
 2874TIP3    H230114   2.871   2.349   1.969  0.0825 -2.0897  1.0321
 2875TIP3   OH230115   6.167   5.658   3.854 -0.0023  0.3291 -0.1889
 2875TIP3    H130116   6.194   5.738   3.898 -2.0748  1.3145 -0.6181
 2875TIP3    H230117   6.143   5.598   3.924  0.9509  0.2645  0.1065
 2876TIP3   OH230118   2.715   5.512   6.539  0.4580 -0.1909  0.2122
 2876TIP3    H130119   2.711   5.606   6.522 -0.4514  0.1977  2.2269
 2876TIP3    H230120   2.630   5.479   6.508 -0.9609  0.4208  3.0907
 2877TIP3   OH230121   3.198   2.282  15.192 -0.5182 -0.7318  0.1795
 2877TIP3    H130122   3.226   2.193  15.172  1.0001 -0.5029  1.1627
 2877TIP3    H230123   3.275   2.324  15.230 -0.8296  1.3629 -1.2809
 2878TIP3   OH230124   5.340   4.675   5.691  0.2082 -0.2150 -0.3328
 2878TIP3    H130125   5.359   4.769   5.700 -2.5025  0.3100  1.2012
 2878TIP3    H230126   5.401   4.632   5.751  0.1899  0.8054  0.4550
 2879TIP3   OH230127   4.972   1.198   5.780  0.2612  0.6497  0.6510
 2879TIP3    H130128   4.960   1.190   5.875  0.5152 -1.6963  0.5648
 2879TIP3    H230129   5.019   1.118   5.756 -0.4101  0.8478 -1.5483
 2880TIP3   OH230130   2.333   0.528  13.131  0.1328 -0.0333  0.5668
 2880TIP3    H130131   2.356   0.435  13.124  1.9920  0.4412 -0.4566
 2880TIP3    H230132   2.384   0.559  13.206 -0.3315  0.2099  0.7832
 2881TIP3   OH230133   2.571   3.002   3.981 -0.2770  0.2237  0.7614
 2881TIP3    H130134   2.554   2.952   4.061 -2.1120 -0.0093  0.2508
 2881TIP3    H230135   2.587   2.936   3.914  1.6090  0.4208  0.9446
 2882TIP3   OH230136   0.868   1.015  14.213 -0.4128 -0.1077  0.1594
 2882TIP3    H130137   0.864   0.933  14.165 -1.0848  0.4868 -0.8404
 2882TIP3    H230138   0.863   0.990  14.305  0.9061 -1.2741 -0.0529
 2883TIP3   OH230139   2.995   1.061  14.451  0.0762 -0.4628 -0.1089
 2883TIP3    H130140   2.945   1.004  14.392  0.8825  0.3705 -1.6415
 2883TIP3    H230141   3.072   1.009  14.474  0.7582 -0.0628 -1.4181
 2884TIP3   OH230142   0.332   2.450   4.975 -0.2422 -0.0007  0.7167
 2884TIP3    H130143   0.303   2.362   4.949 -1.1260  0.0269  1.5407
 2884TIP3    H230144   0.260   2.484   5.028  0.4730  0.8762  1.1532
 2885TIP3   OH230145   6.278   0.507   1.541 -0.7351  0.1123 -0.4582
 2885TIP3    H130146   6.224   0.508   1.620 -0.1485  0.7604 -0.0460
 2885TIP3    H230147   6.340   0.579   1.555  0.2930 -0.6770 -0.8698
 2886TIP3   OH230148   0.541   6.105   0.641  0.9880  0.2808  0.3240
 2886TIP3    H130149   0.459   6.057   0.639 -0.2017  2.2361 -0.1587
 2886TIP3    H230150   0.545   6.143   0.728  1.2129  0.4522  0.2406
 2887TIP3   OH230151   6.444   3.582   2.565  0.1648 -0.0415  0.5609
 2887TIP3    H130152   6.523   3.615   2.522 -0.4277  0.7382  0.0477
 2887TIP3    H230153   6.388   3.553   2.493 -0.6376  0.8315  0.8182
 2888TIP3   OH230154   2.168   3.491  14.602  0.0023 -0.3078 -0.6118
 2888TIP3    H130155   2.102   3.460  14.539  0.6354 -1.2388 -0.8363
 2888TIP3    H230156   2.244   3.436  14.585  1.4345  1.8093 -1.4892
 2889TIP3   OH230157   6.383   2.272  13.000 -0.0274  0.2833  0.9328
 2889TIP3    H130158   6.319   2.325  12.953 -0.8646  0.1422  1.8788
 2889TIP3    H230159   6.375   2.185  12.960 -0.8263  0.1312  1.3925
 2890TIP3   OH230160   3.526   0.937   5.293  0.1933 -0.2271  0.2745
 2890TIP3    H130161   3.453   0.989   5.260  0.4829  0.3862  0.5701
 2890TIP3    H230162   3.540   0.968   5.383  0.7987 -0.3450  0.2315
 2891TIP3   OH230163   0.350   4.486  11.860  0.7199  0.0306 -0.1053
 2891TIP3    H130164   0.429   4.455  11.817 -0.8021 -2.1045 -1.5266
 2891TIP3    H230165   0.284   4.488  11.791 -1.1848 -1.0630  1.5680
 2892TIP3   OH230166   3.791   1.162  15.944  0.5281  0.5843 -0.4677
 2892TIP3    H130167   3.715   1.205  15.907  0.2700 -0.4926 -1.2388
 2892TIP3    H230168   3.822   1.222  16.012 -1.7740  0.4607  0.7795
 2893TIP3   OH230169   5.779   1.669   2.001  0.4424 -0.2903  0.5772
 2893TIP3    H130170   5.786   1.747   2.056  2.3137  0.4377 -0.5602
 2893TIP3    H230171   5.836   1.605   2.044  0.8491 -0.1706  0.2291
 2894TIP3   OH230172   3.774   3.704   0.909 -0.6836  0.0141 -0.4586
 2894TIP3    H130173   3.691   3.658   0.895 -1.0399  0.2573  0.7091
 2894TIP3    H230174   3.833   3.638   0.944 -0.6558  0.0436 -0.4491
 2895TIP3   OH230175   2.160   2.714  12.892 -0.6777 -0.1457 -0.1208
 2895TIP3    H130176   2.229   2.652  12.869 -2.6176 -1.6921 -2.2314
 2895TIP3    H230177   2.153   2.708  12.988  0.4826 -1.7300 -0.0993
 2896TIP3   OH230178   5.504   1.050   1.604  0.8253  0.0040 -1.0754
 2896TIP3    H130179   5.489   0.995   1.527  0.7132  0.8681 -1.6787
 2896TIP3    H230180   5.502   1.140   1.571  0.1440  0.4211  0.0350
 2897TIP3   OH230181   4.649   0.914   0.589  0.0568 -0.2643 -0.5756
 2897TIP3    H130182   4.735   0.909   0.630 -0.9654 -1.7902  1.6370
 2897TIP3    H230183   4.637   1.006   0.567  2.0205  0.0583 -0.4438
 2898TIP3   OH230184   6.100   3.917   3.054  0.2351 -0.2216 -0.5440
 2898TIP3    H130185   6.030   3.963   3.100  0.0595  0.1097 -1.1329
 2898TIP3    H230186   6.166   3.900   3.121 -0.7276 -1.2018  0.1949
 2899TIP3   OH230187   5.642   6.473  13.537  0.4761  0.3361 -0.2207
 2899TIP3    H130188   5.554   6.435  13.546  1.4343 -1.5007  3.9376
 2899TIP3    H230189   5.694   6.402  13.499  0.3754  1.1875 -2.0305
 2900TIP3   OH230190   4.862   6.218   2.287 -0.3637  0.0111  0.6503
 2900TIP3    H130191   4.848   6.217   2.192 -1.0658 -2.0154  0.7298
 2900TIP3    H230192   4.774   6.222   2.324 -0.1076  0.4456  1.2209
 2901TIP3   OH230193   0.583   4.238   0.361  0.0654 -0.0813 -0.0940
 2901TIP3    H130194   0.539   4.154   0.356 -3.2848  1.3215  2.1973
 2901TIP3    H230195   0.513   4.303   0.350  1.6268  2.3509  2.7863
 2902TIP3   OH230196   1.262   5.056  13.485 -0.2910  0.7148  0.1385
 2902TIP3    H130197   1.303   5.140  13.505 -2.1626  1.0453  3.3179
 2902TIP3    H230198   1.201   5.075  13.414  0.7064  1.5217 -0.5401
 2903TIP3   OH230199   2.239   5.517  14.438 -0.5090  0.0833 -0.1390
 2903TIP3    H130200   2.335   5.521  14.435 -0.2997 -2.6653  0.8329
 2903TIP3    H230201   2.216   5.548  14.525 -0.4611  0.0146 -0.1021
 2904TIP3   OH230202   5.412   4.425  10.647 -0.8485 -0.2343  0.3655
 2904TIP3    H130203   5.408   4.335  10.678 -0.3558 -0.5193 -0.3950
 2904TIP3    H230204   5.323   4.444  10.617 -0.5834 -1.0053 -0.9586
 2905TIP3   OH230205   0.926   6.204  12.016 -0.8041  0.6443 -0.2158
 2905TIP3    H130206   0.856   6.163  12.067 -0.5504  0.6152  0.1098
 2905TIP3    H230207   0.966   6.132  11.968  0.4041  0.2906  1.2458
 2906TIP3   OH230208   3.746   3.526   5.348 -0.1143 -0.4312 -0.2260
 2906TIP3    H130209   3.792   3.592   5.297 -0.1166 -0.4628 -0.2691
 2906TIP3    H230210   3.787   3.530   5.434  1.6043 -2.0688 -0.8913
 2907TIP3   OH230211   3.020   2.583  12.235  0.2193  0.7162  0.3411
 2907TIP3    H130212   2.984   2.504  12.196  3.8178 -0.3851 -1.2132
 2907TIP3    H230213   3.048   2.556  12.323  0.5914  0.5410  0.1677
 2908TIP3   OH230214   3.614   3.794  16.644  0.5415  0.2276  0.4356
 2908TIP3    H130215   3.578   3.812  16.557  0.5550 -0.3041  0.3162
 2908TIP3    H230216   3.540   3.806  16.704  0.4090  0.1115  0.2976
 2909TIP3   OH230217   5.261   5.385   0.248 -0.8535  0.1579  0.3999
 2909TIP3    H130218   5.259   5.474   0.212 -0.0431  0.1328  0.2797
 2909TIP3    H230219   5.322   5.391   0.321  1.3453 -0.8716 -1.2327
 2910TIP3   OH230220   0.295   3.895  12.686 -0.2042 -0.1592  0.7835
 2910TIP3    H130221   0.221   3.952  12.706 -0.1213 -0.1068  0.9322
 2910TIP3    H230222   0.301   3.898  12.590  1.1017  1.7026  0.8786
 2911TIP3   OH230223   4.251   0.602  16.065  0.6073  0.7163  0.7592
 2911TIP3    H130224   4.335   0.563  16.040  0.9259  0.7581  1.7548
 2911TIP3    H230225   4.186   0.546  16.023  1.1030  0.1119  0.7807
 2912TIP3   OH230226   1.420   3.392   3.408 -0.4104 -0.0186  0.0990
 2912TIP3    H130227   1.357   3.389   3.480 -1.5122  0.2823 -0.8203
 2912TIP3    H230228   1.392   3.466   3.355  1.1130  0.5076 -0.0071
 2913TIP3   OH230229   0.794   6.515   0.329  0.3404  0.7707  0.0954
 2913TIP3    H130230   0.748   6.596   0.352  0.6964  1.0788 -0.2498
 2913TIP3    H230231   0.724   6.454   0.305  0.1294  1.5174 -1.3212
 2914TIP3   OH230232   5.144   1.763   3.385  0.2156  0.4183 -0.0991
 2914TIP3    H130233   5.109   1.676   3.368  1.1582  0.3363 -1.8033
 2914TIP3    H230234   5.073   1.809   3.430 -0.0856 -1.3797  1.3873
 2915TIP3   OH230235   1.413   3.788  12.238  0.4371 -0.1740 -0.6993
 2915TIP3    H130236   1.412   3.778  12.333  0.2584 -2.4639 -0.9014
 2915TIP3    H230237   1.424   3.882  12.224  0.6712  0.1821  1.5739
 2916TIP3   OH230238   5.605   0.498  14.326  0.5011  0.4755 -0.8664
 2916TIP3    H130239   5.620   0.591  14.343 -1.2278  0.4169  1.4040
 2916TIP3    H230240   5.656   0.453  14.394  0.9340 -0.2531 -1.6467
 2917TIP3   OH230241   0.965   4.252  16.832 -0.5288  0.2256 -0.2610
 2917TIP3    H130242   0.968   4.194  16.756  0.9205 -0.3166  0.1704
 2917TIP3    H230243   0.910   4.325  16.805 -0.6699 -0.3406 -1.5525
 2918TIP3   OH230244   2.544   2.273   6.397 -0.3389 -0.5568  0.3317
 2918TIP3    H130245   2.632   2.239   6.414  0.6981  0.3124 -2.6669
 2918TIP3    H230246   2.551   2.367   6.415  0.1895 -0.0064 -2.3620
 2919TIP3   OH230247   4.322   3.061  12.086  0.1421 -0.1739  0.0955
 2919TIP3    H130248   4.318   3.125  12.015 -0.7240  0.3158  0.5745
 2919TIP3    H230249   4.293   3.109  12.164  1.0353 -0.7104  0.7892
 2920TIP3   OH230250   0.078   5.872   1.394  0.5926  0.0016  0.1873
 2920TIP3    H130251  -0.014   5.871   1.419  1.0578  0.7056  2.1080
 2920TIP3    H230252   0.107   5.782   1.404  0.5017  0.0796  1.2638
 2921TIP3   OH230253   2.218   5.339  15.952  0.2943  0.2858 -0.3125
 2921TIP3    H130254   2.126   5.348  15.978  0.8050  0.9577  1.4205
 2921TIP3    H230255   2.251   5.429  15.946  0.8554  0.0506 -0.8382
 2922TIP3   OH230256   6.714   0.616   0.630 -0.2825  1.0579 -0.5884
 2922TIP3    H130257   6.775   0.682   0.662 -1.9864  1.4654  2.2076
 2922TIP3    H230258   6.629   0.660   0.628 -1.1301 -0.5044 -0.5872
 2923TIP3   OH230259   1.650   5.108  13.302 -0.0161  0.7910  0.4792
 2923TIP3    H130260   1.739   5.135  13.280 -0.3735  1.9554  0.3854
 2923TIP3    H230261   1.613   5.183  13.349 -0.4676 -0.2531  1.8672
 2924TIP3   OH230262   1.410   6.724   1.577  0.3580 -0.6059 -0.2068
 2924TIP3    H130263   1.356   6.672   1.518 -0.0568  0.2303 -0.5716
 2924TIP3    H230264   1.484   6.752   1.524 -0.4058  0.8032 -0.5886
 2925TIP3   OH230265   0.466   1.075  17.026  0.4649 -0.1438 -0.5802
 2925TIP3    H130266   0.463   1.116  16.940  1.5113  0.2930 -0.4231
 2925TIP3    H230267   0.445   0.983  17.009 -0.0141  0.0730 -1.2012
 2926TIP3   OH230268   5.719   0.562  13.563  0.4512 -0.1899  0.2427
 2926TIP3    H130269   5.626   0.580  13.546  0.1997 -0.3450  1.3865
 2926TIP3    H230270   5.718   0.492  13.628  1.4002 -2.8124 -2.3591
 2927TIP3   OH230271   1.812   6.375   5.235  0.0557 -0.0890 -0.4533
 2927TIP3    H130272   1.869   6.301   5.255 -0.5872 -0.5172 -0.1835
 2927TIP3    H230273   1.725   6.337   5.225 -0.5329  0.7700  0.9992
 2928TIP3   OH230274   0.178   5.283  12.039  0.0748 -1.1461 -0.2884
 2928TIP3    H130275   0.167   5.201  11.991  0.7431 -1.0866 -0.5518
 2928TIP3    H230276   0.154   5.351  11.977 -1.5385 -1.1649  0.2578
 2929TIP3   OH230277   5.828   2.669  16.217  0.2085  0.1098 -0.0768
 2929TIP3    H130278   5.769   2.745  16.223 -1.5066 -1.1421 -0.2819
 2929TIP3    H230279   5.884   2.676  16.294 -0.3637  1.2276  0.2595
 2930TIP3   OH230280   3.083   2.176  12.873 -0.0886  0.4428  0.3064
 2930TIP3    H130281   3.062   2.124  12.795 -2.3281  1.5078  0.1016
 2930TIP3    H230282   3.177   2.193  12.866  0.4094 -2.1858 -0.4175
 2931TIP3   OH230283   1.987   5.983   0.731 -0.0912  0.5195  0.0955
 2931TIP3    H130284   2.011   6.074   0.750  3.0474 -0.0707 -0.4516
 2931TIP3    H230285   2.004   5.973   0.637  0.4204 -0.8260  0.3096
 2932TIP3   OH230286   3.167   4.335   6.001  0.3506 -0.3187 -0.4139
 2932TIP3    H130287   3.134   4.294   6.081  1.3377 -2.3987 -0.9934
 2932TIP3    H230288   3.093   4.384   5.966 -0.2354  0.2458  1.5006
 2933TIP3   OH230289   2.319   5.031  10.553  0.1487 -0.1459 -0.4028
 2933TIP3    H130290   2.366   5.114  10.559  0.4223 -0.3941  1.7234
 2933TIP3    H230291   2.385   4.969  10.522  0.4308  0.1052 -0.3157
 2934TIP3   OH230292   1.886   4.096  11.773  0.3987  0.4129  0.6021
 2934TIP3    H130293   1.954   4.031  11.756 -0.1908  0.0686 -0.5963
 2934TIP3    H230294   1.813   4.068  11.718 -0.1886  1.5968  0.7516
 2935TIP3   OH230295   6.068   6.042   0.115  0.0846  0.1554  0.4981
 2935TIP3    H130296   6.054   6.045   0.210 -0.1206 -1.5251  0.5445
 2935TIP3    H230297   6.158   6.011   0.106 -0.1486 -0.4103  0.1353
 2936TIP3   OH230298   4.013   2.807  12.833  0.0845 -0.1343  0.6455
 2936TIP3    H130299   3.976   2.859  12.761  0.4047  1.4059  1.5445
 2936TIP3    H230300   3.949   2.815  12.903  0.3955 -0.5053  0.9757
 2937TIP3   OH230301   5.889   4.358  10.981 -0.0146 -0.2230 -0.0919
 2937TIP3    H130302   5.907   4.445  10.945  1.0033 -0.7114 -0.7868
 2937TIP3    H230303   5.852   4.376  11.068  1.8831  0.8817  0.5418
 2938TIP3   OH230304   1.897   4.886  15.157 -0.0114 -0.0874  0.0215
 2938TIP3    H130305   1.978   4.837  15.149 -0.4034 -0.8200  0.4611
 2938TIP3    H230306   1.926   4.977  15.166  0.8576 -0.4903  1.7836
 2939TIP3   OH230307   0.034   3.091  16.554 -0.0595 -0.5498  0.2075
 2939TIP3    H130308   0.057   3.043  16.633  1.8485  0.3541  0.2724
 2939TIP3    H230309   0.062   3.034  16.482 -0.0101 -0.5520  0.2279
 2940TIP3   OH230310   3.921   2.078   1.319 -0.0257  0.2059  0.0640
 2940TIP3    H130311   3.957   2.108   1.402 -1.7030  1.3797  0.4207
 2940TIP3    H230312   3.951   1.988   1.311 -0.8584 -0.3809  2.5772
 2941TIP3   OH230313   0.181   6.197  13.963  0.6674 -0.2683 -0.1067
 2941TIP3    H130314   0.239   6.261  13.922  0.1519  1.0946  1.1989
 2941TIP3    H230315   0.230   6.165  14.039 -0.0172  0.5054  0.7014
 2942TIP3   OH230316   2.704   1.762  13.816  0.3868  0.3772  0.0976
 2942TIP3    H130317   2.763   1.827  13.854 -0.0389 -0.2007  1.8453
 2942TIP3    H230318   2.617   1.787  13.848 -0.1547  0.4895 -1.4180
 2943TIP3   OH230319   4.307   0.647  13.707  0.2005 -0.3890 -0.2455
 2943TIP3    H130320   4.391   0.604  13.723  1.0404  1.2551 -0.0294
 2943TIP3    H230321   4.315   0.682  13.618  0.1908  0.6809  0.1546
 2944TIP3   OH230322   3.864   5.542  15.920 -0.0932  0.0758  0.0457
 2944TIP3    H130323   3.876   5.576  15.831  1.2390  0.3878  0.3185
 2944TIP3    H230324   3.937   5.580  15.970 -1.4758  0.8625  1.5589
 2945TIP3   OH230325   1.783   5.556  12.386  0.2190 -0.0802 -0.7621
 2945TIP3    H130326   1.692   5.524  12.382 -0.1416  0.9334 -1.1055
 2945TIP3    H230327   1.808   5.567  12.294  0.5972 -0.0836 -0.6619
 2946TIP3   OH230328   0.955   0.490   6.487 -0.5786  0.6162 -0.6095
 2946TIP3    H130329   1.001   0.570   6.512  0.4575 -0.5629  1.5985
 2946TIP3    H230330   0.893   0.474   6.558 -0.6809 -0.5856 -0.9398
 2947TIP3   OH230331   4.759   5.328   2.638  0.5160 -0.0128  0.5160
 2947TIP3    H130332   4.790   5.392   2.574  1.4922 -0.3240  0.6622
 2947TIP3    H230333   4.800   5.353   2.720 -0.1340 -0.0635  0.8678
 2948TIP3   OH230334   6.095   3.140   5.916 -0.2853  0.4127 -0.7461
 2948TIP3    H130335   6.082   3.045   5.925 -0.2849  0.4392 -0.4459
 2948TIP3    H230336   6.177   3.148   5.867  0.1758  0.2580 -0.0181
 2949TIP3   OH230337   5.088   4.672   3.848  0.7586  0.0143 -0.4221
 2949TIP3    H130338   5.147   4.675   3.923  0.4143  1.1012 -0.1781
 2949TIP3    H230339   5.056   4.581   3.847 -0.3493  0.3045  1.6431
 2950TIP3   OH230340   6.125   5.746  11.810  0.2105  0.3165 -0.5359
 2950TIP3    H130341   6.097   5.819  11.866 -1.4688  0.7890 -1.9033
 2950TIP3    H230342   6.166   5.788  11.735  2.7931 -0.3248  0.3843
 2951TIP3   OH230343   0.242   3.604  13.049 -0.0697  0.4358 -0.1596
 2951TIP3    H130344   0.303   3.639  12.983  1.0170  1.4663  1.3144
 2951TIP3    H230345   0.157   3.641  13.026 -0.3148 -1.3174 -2.4830
 2952TIP3   OH230346   6.491   0.974  11.606  0.1258 -0.1808  0.0262
 2952TIP3    H130347   6.526   0.912  11.670  1.1312  1.0976  0.7796
 2952TIP3    H230348   6.415   0.930  11.568 -1.2486 -0.5404  2.9547
 2953TIP3   OH230349   0.187   3.297   6.070 -0.8429  0.2203  0.5650
 2953TIP3    H130350   0.259   3.236   6.055 -2.1231 -0.8867 -1.6686
 2953TIP3    H230351   0.195   3.322   6.162  1.1386 -1.4701  0.9255
 2954TIP3   OH230352   0.992   0.683  15.020 -0.4238  0.2368 -0.1217
 2954TIP3    H130353   0.930   0.710  14.952  0.8124 -0.1767 -1.4709
 2954TIP3    H230354   1.078   0.690  14.978  0.2576 -1.5604  0.8745
 2955TIP3   OH230355   1.718   0.449   4.455 -0.0462 -0.1045 -0.2852
 2955TIP3    H130356   1.672   0.487   4.530  0.6875  1.0528 -0.4052
 2955TIP3    H230357   1.659   0.464   4.381  0.1922  0.7196 -0.3133
 2956TIP3   OH230358   6.026   2.132   4.395  0.3325  0.5532  0.7619
 2956TIP3    H130359   6.115   2.137   4.432  0.4655 -2.4151  1.1163
 2956TIP3    H230360   6.038   2.152   4.302  1.3583  0.4462  0.8551
 2957TIP3   OH230361   4.954   4.545  13.102 -0.0968 -0.3064  0.5748
 2957TIP3    H130362   4.875   4.501  13.073 -0.7639  2.0581 -1.5849
 2957TIP3    H230363   4.952   4.539  13.198 -1.8039 -1.9960  0.4751
 2958TIP3   OH230364   5.884   0.414  16.327 -0.4942  0.1569  0.2734
 2958TIP3    H130365   5.914   0.472  16.257 -0.6836 -1.5781 -1.2992
 2958TIP3    H230366   5.896   0.326  16.292 -0.7513 -0.7624  2.3848
 2959TIP3   OH230367   5.097   4.912  15.013  0.5328 -0.4750 -0.2972
 2959TIP3    H130368   5.092   4.848  15.084 -2.1742  0.2651  0.2974
 2959TIP3    H230369   5.005   4.927  14.989  1.1982  1.9074 -1.5704
 2960TIP3   OH230370   1.470   2.146  13.425  0.5523  0.1058 -0.2244
 2960TIP3    H130371   1.477   2.236  13.458 -0.4851  0.0657  0.1336
 2960TIP3    H230372   1.377   2.135  13.404  1.1195  0.1939 -3.3958
 2961TIP3   OH230373   6.848   2.256   2.842 -0.2714 -0.0927 -0.0887
 2961TIP3    H130374   6.904   2.220   2.772 -0.3095  1.8842 -1.2151
 2961TIP3    H230375   6.759   2.250   2.807 -0.3220  0.5977 -0.1057
 2962TIP3   OH230376   5.775   4.494   2.570 -0.1066  0.1970 -0.4005
 2962TIP3    H130377   5.866   4.499   2.541 -0.2700  1.1155 -0.7866
 2962TIP3    H230378   5.738   4.421   2.520  0.8159 -1.2672  0.9523
 2963TIP3   OH230379   2.748   5.157  12.012 -0.0215 -0.2623 -0.1510
 2963TIP3    H130380   2.734   5.249  11.988 -1.2568 -0.4453 -0.2051
 2963TIP3    H230381   2.665   5.129  12.050 -0.0223 -1.6535 -1.0824
 2964TIP3   OH230382   1.011   1.888   5.349  0.0233  0.6781 -0.2159
 2964TIP3    H130383   0.990   1.974   5.384  1.5932  0.6872  0.8172
 2964TIP3    H230384   0.954   1.878   5.273  0.3671  2.9707 -0.8473
 2965TIP3   OH230385   3.659   4.484   0.226  0.0455  0.2346  0.1330
 2965TIP3    H130386   3.605   4.495   0.147  1.3662  1.5823 -0.6254
 2965TIP3    H230387   3.650   4.567   0.273  1.4820  0.5121 -0.0457
 2966TIP3   OH230388   0.879   3.448   4.010 -0.0737 -0.1834  0.0470
 2966TIP3    H130389   0.886   3.358   4.040 -1.3447 -0.7690 -1.3430
 2966TIP3    H230390   0.899   3.444   3.916  1.2975  1.2223  0.2249
 2967TIP3   OH230391   4.887   1.035  16.575 -0.0322 -0.5940 -0.1755
 2967TIP3    H130392   4.821   1.067  16.513  0.1734  0.1237 -0.0315
 2967TIP3    H230393   4.919   0.953  16.536  2.1307  1.1969 -2.4885
 2968TIP3   OH230394   6.445   0.506   3.183 -0.3951  0.1132 -0.6563
 2968TIP3    H130395   6.525   0.502   3.130  0.9465 -0.3818  1.3135
 2968TIP3    H230396   6.462   0.448   3.257 -3.0188 -0.8646 -0.6988
 2969TIP3   OH230397   5.590   1.679  12.464  0.1500  0.5174  0.0329
 2969TIP3    H130398   5.516   1.739  12.458  0.0390  0.4784  0.8297
 2969TIP3    H230399   5.612   1.678  12.557  2.3322  1.9366 -0.3944
 2970TIP3   OH230400   0.329   2.855  12.400  0.2212  0.6066 -0.0926
 2970TIP3    H130401   0.245   2.887  12.433 -0.6517 -0.5980 -1.0673
 2970TIP3    H230402   0.359   2.796  12.469  0.4900  1.3448  0.4419
 2971TIP3   OH230403   3.309   0.248   1.904 -0.2414 -0.2992  0.0353
 2971TIP3    H130404   3.398   0.229   1.874 -0.2659 -0.2082 -0.0948
 2971TIP3    H230405   3.253   0.191   1.851 -0.3783  0.6393 -0.8661
 2972TIP3   OH230406   1.078   4.548  16.623  0.5715  0.1626  0.3384
 2972TIP3    H130407   1.033   4.497  16.691  1.2185 -1.7456 -0.5784
 2972TIP3    H230408   1.169   4.554  16.655  0.7140 -0.1222 -0.0019
 2973TIP3   OH230409   0.110   2.063   2.657 -1.0581 -0.5262  0.6892
 2973TIP3    H130410   0.051   2.099   2.591  0.5304  0.1938 -0.4055
 2973TIP3    H230411   0.187   2.034   2.608  1.0204  1.7970  2.3194
 2974TIP3   OH230412   1.547   2.182   4.570 -0.0306  0.5466  0.1035
 2974TIP3    H130413   1.487   2.209   4.639  0.3842  1.4584  0.1235
 2974TIP3    H230414   1.599   2.111   4.610 -1.3850 -0.5838 -0.0748
 2975TIP3   OH230415   2.863   6.441  14.941  0.7595 -0.2551 -0.9492
 2975TIP3    H130416   2.789   6.460  14.999  3.1345  0.0815  2.1900
 2975TIP3    H230417   2.831   6.371  14.884 -1.5195 -1.1950  1.2939
 2976TIP3   OH230418   6.232   3.572   4.518 -0.4648 -0.5720 -0.1307
 2976TIP3    H130419   6.299   3.584   4.451  1.4502 -1.4904  1.4967
 2976TIP3    H230420   6.174   3.504   4.482  1.6025 -2.4274 -0.1842
 2977TIP3   OH230421   4.151   5.519  15.501 -0.0572 -0.3107  0.2850
 2977TIP3    H130422   4.125   5.448  15.559  3.1702 -0.7348  1.3970
 2977TIP3    H230423   4.112   5.497  15.416 -1.7290 -1.6833  1.3611
 2978TIP3   OH230424   1.873   4.054   0.994 -0.0917  0.3185  0.0693
 2978TIP3    H130425   1.864   4.121   0.927 -1.6923 -2.1665 -2.4397
 2978TIP3    H230426   1.954   4.009   0.972  1.4351  1.8156  2.2541
 2979TIP3   OH230427   2.567   5.026   4.171 -0.6770  0.1470 -0.9090
 2979TIP3    H130428   2.474   5.022   4.194 -0.6336 -0.7877 -0.8321
 2979TIP3    H230429   2.586   5.119   4.159 -1.5400  0.3696 -0.5864
 2980TIP3   OH230430   1.482   0.889  12.396 -0.2317 -0.0235 -0.5806
 2980TIP3    H130431   1.428   0.826  12.442 -0.0120  0.6327  0.6148
 2980TIP3    H230432   1.521   0.943  12.465 -0.2763  1.3131 -1.5469
 2981TIP3   OH230433   5.718   4.385  15.965 -0.3108 -0.3978  0.0888
 2981TIP3    H130434   5.784   4.447  15.934  0.7559 -1.5101  0.0359
 2981TIP3    H230435   5.769   4.316  16.009 -1.6295  0.1120  2.5826
 2982TIP3   OH230436   0.771   3.683   3.594  0.3320  0.1977 -0.1888
 2982TIP3    H130437   0.738   3.679   3.505 -2.8266  2.2335  0.6953
 2982TIP3    H230438   0.714   3.623   3.643  2.9378 -2.0100  0.3334
 2983TIP3   OH230439   0.980   2.122   2.127 -0.0525 -0.8299  0.5950
 2983TIP3    H130440   1.006   2.078   2.207  1.3713 -0.3978  0.3948
 2983TIP3    H230441   1.031   2.081   2.058  0.7518  0.5896  0.3018
 2984TIP3   OH230442   2.597   0.505   0.927  0.7145 -0.3038 -0.8713
 2984TIP3    H130443   2.630   0.594   0.919 -1.0076  0.3766 -0.7744
 2984TIP3    H230444   2.511   0.514   0.967  0.8251 -2.0847 -0.1282
 2985TIP3   OH230445   5.014   1.423  14.741  0.4759 -0.0280  0.3363
 2985TIP3    H130446   4.950   1.461  14.801 -1.0883  0.4672 -1.5330
 2985TIP3    H230447   4.993   1.330  14.739 -1.4774  0.3664 -1.5911
 2986TIP3   OH230448   0.813   4.841  11.418  0.5194 -0.1954 -0.2293
 2986TIP3    H130449   0.733   4.830  11.469  0.4861 -0.3113 -0.3070
 2986TIP3    H230450   0.786   4.827  11.327 -0.1985  3.4038 -0.7478
 2987TIP3   OH230451   3.213   3.969   5.207 -0.2138  0.2843  0.2111
 2987TIP3    H130452   3.156   4.042   5.233  0.2499  1.5697 -2.0829
 2987TIP3    H230453   3.288   3.975   5.265 -0.9380  0.5873  1.1412
 2988TIP3   OH230454   1.878   3.054  16.315 -0.0472 -0.5595 -0.8244
 2988TIP3    H130455   1.920   2.972  16.290  0.3191 -1.0848  1.2697
 2988TIP3    H230456   1.784   3.035  16.315 -0.1019 -0.3726 -2.2481
 2989TIP3   OH230457   2.902   5.563  16.637 -0.2230 -0.2249 -0.1527
 2989TIP3    H130458   2.917   5.640  16.584  2.6269 -0.0305  0.7459
 2989TIP3    H230459   2.907   5.490  16.576 -0.3029  0.1613 -0.6243
 2990TIP3   OH230460   3.263   4.828  10.310  0.3401 -0.1398 -0.6789
 2990TIP3    H130461   3.259   4.920  10.283  0.9662 -0.4358 -1.8711
 2990TIP3    H230462   3.335   4.824  10.373  0.5701  0.1235 -0.9226
 2991TIP3   OH230463   2.053   1.191   4.243  0.1869  0.0818 -0.3370
 2991TIP3    H130464   2.097   1.131   4.303 -1.2964  0.4999  1.2284
 2991TIP3    H230465   2.028   1.137   4.168 -1.0540 -1.2825  1.0120
 2992TIP3   OH230466   5.547   2.350  11.499 -0.2537  0.1249 -0.2340
 2992TIP3    H130467   5.608   2.284  11.467  0.6457 -0.9180  3.2694
 2992TIP3    H230468   5.461   2.307  11.497 -0.2371  0.1144 -1.1991
 2993TIP3   OH230469   0.800   0.663  13.720 -0.4083 -0.7940  0.2297
 2993TIP3    H130470   0.802   0.602  13.646 -0.1983 -2.6697  1.7159
 2993TIP3    H230471   0.820   0.749  13.681 -0.2843 -1.7238 -1.8628
 2994TIP3   OH230472   0.726   3.584  14.585 -0.4134 -0.7243  0.1097
 2994TIP3    H130473   0.783   3.647  14.629 -0.1169  0.6504 -2.0835
 2994TIP3    H230474   0.639   3.625  14.587 -0.3403 -0.5009 -0.7753
 2995TIP3   OH230475   4.542   1.035  13.659 -0.3030  0.1957  0.5938
 2995TIP3    H130476   4.580   0.953  13.691  0.3518 -0.5427 -1.8451
 2995TIP3    H230477   4.612   1.099  13.670  0.3043 -0.2880 -0.2989
 2996TIP3   OH230478   1.483   0.622   1.982 -0.5534  0.1765 -0.1918
 2996TIP3    H130479   1.462   0.611   2.074  1.1045  1.2730  0.3597
 2996TIP3    H230480   1.405   0.590   1.936 -1.5498 -0.0747  1.5709
 2997TIP3   OH230481   3.621   2.864   5.552  0.2101  0.0218  0.1361
 2997TIP3    H130482   3.632   2.958   5.564 -2.6222  0.3115  1.1834
 2997TIP3    H230483   3.572   2.856   5.470  0.5574 -0.5684 -0.0200
 2998TIP3   OH230484   2.302   4.677   1.643 -0.3147  0.3692  0.4983
 2998TIP3    H130485   2.334   4.599   1.689 -0.8571  0.2041  0.5995
 2998TIP3    H230486   2.281   4.646   1.555  1.2600  0.8014 -0.0708
 2999TIP3   OH230487   4.610   3.991   2.049  0.2138 -0.0422  0.4870
 2999TIP3    H130488   4.685   4.002   1.991 -0.7129  1.6962 -0.4592
 2999TIP3    H230489   4.613   4.068   2.106  0.1999 -0.9277  1.7322
 3000TIP3   OH230490   6.122   3.729   0.034  0.5350 -0.4969 -0.0634
 3000TIP3    H130491   6.127   3.634   0.045 -1.1834 -1.1025 -3.2977
 3000TIP3    H230492   6.139   3.743  -0.059 -0.6805  2.1998  0.0371
 3001TIP3   OH230493   0.348   2.351  15.745 -0.0080  0.0687 -0.2997
 3001TIP3    H130494   0.284   2.297  15.698  0.4849  0.0128 -0.9222
 3001TIP3    H230495   0.406   2.384  15.677 -0.0673  1.0755  0.1232
 3002TIP3   OH230496   0.483   5.162  13.519 -0.2237 -0.3866  0.2634
 3002TIP3    H130497   0.414   5.224  13.499 -0.9668 -0.7328  1.6390
 3002TIP3    H230498   0.545   5.212  13.573  0.4848 -0.1549 -0.7357
 3003TIP3   OH230499   6.100   6.055   5.537 -0.7989 -0.3333 -0.3484
 3003TIP3    H130500   6.025   6.111   5.560 -0.4323 -0.5313  1.5353
 3003TIP3    H230501   6.168   6.080   5.600  0.2958 -1.0283 -1.2245
 3004TIP3   OH230502   3.374   4.421  14.753 -0.3693  0.0164 -0.0627
 3004TIP3    H130503   3.416   4.492  14.704 -1.0790 -0.4978 -1.4719
 3004TIP3    H230504   3.379   4.448  14.844  0.7241  1.1599 -0.4406
 3005TIP3   OH230505   3.388   0.678   3.223 -0.4124 -0.7089 -0.5353
 3005TIP3    H130506   3.437   0.644   3.148 -1.0622  0.2057 -1.3924
 3005TIP3    H230507   3.375   0.771   3.204 -0.5065 -0.4355  0.7620
 3006TIP3   OH230508   0.058   6.754   4.904 -0.1818 -0.5114  0.0314
 3006TIP3    H130509  -0.023   6.764   4.854  0.0432 -0.7132 -0.3743
 3006TIP3    H230510   0.074   6.660   4.907  0.4401 -0.4326 -0.5392
 3007TIP3   OH230511   1.913   5.660  13.844 -0.3101  0.6487 -0.1943
 3007TIP3    H130512   1.855   5.733  13.824  1.2503  1.4967 -1.9243
 3007TIP3    H230513   1.981   5.663  13.776  0.1639 -2.0474  0.0321
 3008TIP3   OH230514   5.856   6.107   5.895  0.0607 -0.0382  0.7434
 3008TIP3    H130515   5.854   6.029   5.950 -0.0661 -0.5260  0.0630
 3008TIP3    H230516   5.783   6.096   5.834  1.1049 -0.2797 -0.5247
 3009TIP3   OH230517   0.415   1.118  15.363  0.0054  0.2200  0.3569
 3009TIP3    H130518   0.430   1.138  15.455  0.0199  1.6226  0.0734
 3009TIP3    H230519   0.394   1.024  15.361  2.4850 -0.4426  1.4869
 3010TIP3   OH230520   0.781   4.244   1.152 -0.0204 -0.4143  0.8981
 3010TIP3    H130521   0.765   4.200   1.069  0.6461  1.7247 -0.4568
 3010TIP3    H230522   0.845   4.312   1.131 -1.2894  1.4829  2.7046
 3011TIP3   OH230523   3.829   4.062   0.147  0.7110 -0.1352 -0.0757
 3011TIP3    H130524   3.844   4.140   0.200 -0.5851 -0.2944  0.5635
 3011TIP3    H230525   3.907   4.008   0.160  2.3339  1.6478 -1.7053
 3012TIP3   OH230526   0.660   5.038   2.654 -0.6077 -0.3771 -0.3974
 3012TIP3    H130527   0.640   5.053   2.561 -0.2208  1.4501 -0.2180
 3012TIP3    H230528   0.733   5.097   2.673 -2.0326  0.8822  1.5701
 3013TIP3   OH230529   0.394   2.241  12.324  0.0161  0.1769  0.1820
 3013TIP3    H130530   0.404   2.280  12.238 -0.0993 -1.2610 -0.5224
 3013TIP3    H230531   0.300   2.235  12.338 -0.0368 -1.5658 -0.5937
 3014TIP3   OH230532   3.897   5.433   1.423 -0.2274  0.0458  0.0785
 3014TIP3    H130533   3.823   5.378   1.397  0.5403 -1.0517  0.1221
 3014TIP3    H230534   3.890   5.511   1.368 -0.2373 -0.9646 -1.3988
 3015TIP3   OH230535   5.467   0.713   2.132  0.4271 -0.5727 -0.0972
 3015TIP3    H130536   5.495   0.709   2.223 -0.4527 -2.2028  0.1284
 3015TIP3    H230537   5.371   0.722   2.136  0.3898 -0.5299 -0.8725
 3016TIP3   OH230538   0.883   6.179  15.493 -0.1575 -0.0294  0.2791
 3016TIP3    H130539   0.878   6.113  15.562  0.7228 -1.8154 -1.2779
 3016TIP3    H230540   0.889   6.129  15.412  1.0139  1.9637 -0.9531
 3017TIP3   OH230541   6.191   5.122   4.977 -0.1851  0.3668  0.1075
 3017TIP3    H130542   6.229   5.061   4.914 -0.5518  1.8763 -1.6757
 3017TIP3    H230543   6.101   5.134   4.948 -0.4572  0.8975  1.1007
 3018TIP3   OH230544   0.270   3.250  12.084 -0.2690  0.1848  0.5819
 3018TIP3    H130545   0.291   3.179  12.144  2.0153  0.4939  0.2537
 3018TIP3    H230546   0.174   3.250  12.078 -0.3623 -2.6542  0.8129
 3019TIP3   OH230547   5.552   0.123   0.328 -0.2033 -0.0245 -0.6014
 3019TIP3    H130548   5.582   0.193   0.386 -1.0481  0.5725 -0.8651
 3019TIP3    H230549   5.630   0.069   0.314  0.1427  0.1065  0.6672
 3020TIP3   OH230550   0.489   5.678   2.856  0.0385  0.2101  0.2354
 3020TIP3    H130551   0.552   5.609   2.834  2.3790  1.6088  2.0144
 3020TIP3    H230552   0.529   5.724   2.930 -0.3524  4.7180 -2.0244
 3021TIP3   OH230553   1.593   0.585   2.734  0.4787  0.4000  0.0696
 3021TIP3    H130554   1.644   0.665   2.721  0.8660  0.3238  1.0567
 3021TIP3    H230555   1.644   0.516   2.692  0.9573  0.4091  0.6205
 3022TIP3   OH230556   0.903   0.101   3.134  0.0735  0.1896  0.1566
 3022TIP3    H130557   0.834   0.039   3.157 -0.6813  0.1323 -2.0953
 3022TIP3    H230558   0.982   0.047   3.127  0.1798  0.0911  1.6704
 3023TIP3   OH230559   3.259   0.482   3.381  0.3261 -0.5002  0.2080
 3023TIP3    H130560   3.332   0.466   3.441  2.0739  0.5581 -1.5108
 3023TIP3    H230561   3.290   0.552   3.323 -1.1781 -1.5979 -2.0679
 3024TIP3   OH230562   5.185   1.565   2.705  0.0797 -0.0117 -0.3498
 3024TIP3    H130563   5.269   1.522   2.687 -0.5379 -1.0685 -0.7853
 3024TIP3    H230564   5.137   1.501   2.758 -0.9150  0.0740 -1.1348
 3025TIP3   OH230565   2.384   6.606  13.013  0.0555 -0.0945 -0.5884
 3025TIP3    H130566   2.296   6.643  13.017  0.3703  0.7217 -0.9289
 3025TIP3    H230567   2.442   6.682  13.016  0.7401 -0.6020 -0.6834
 3026TIP3   OH230568   3.353   1.400   4.938  0.2720  0.5604 -0.2909
 3026TIP3    H130569   3.432   1.440   4.973  0.7170 -0.8985  0.4647
 3026TIP3    H230570   3.369   1.306   4.945 -1.3314  0.2364 -0.5953
 3027TIP3   OH230571   4.476   6.458   4.273 -0.2651  0.2114  0.1916
 3027TIP3    H130572   4.460   6.537   4.220 -2.2806  0.3230  0.8863
 3027TIP3    H230573   4.430   6.475   4.355  1.0299 -0.8530  1.1693
 3028TIP3   OH230574   5.711   3.199  14.052  0.0912 -0.6301  0.5235
 3028TIP3    H130575   5.648   3.127  14.054  0.6719 -1.2049 -0.7252
 3028TIP3    H230576   5.796   3.157  14.067  0.1338  0.2800  3.3393
 3029TIP3   OH230577   4.425   0.039   5.648 -0.7250  0.0196 -0.7224
 3029TIP3    H130578   4.339   0.015   5.614 -1.1298 -1.1384  0.9608
 3029TIP3    H230579   4.407   0.084   5.731  0.2824 -0.3544 -0.2753
 3030TIP3   OH230580   4.245   6.053  13.954  0.0757 -0.3154 -0.4744
 3030TIP3    H130581   4.318   6.076  13.896 -0.9921 -0.4939 -1.9413
 3030TIP3    H230582   4.212   5.970  13.920 -0.8559 -0.2040  0.1209
 3031TIP3   OH230583   3.431   5.240  16.051 -1.0324 -0.2392 -0.5982
 3031TIP3    H130584   3.353   5.266  16.002 -0.8005  0.6577 -0.4962
 3031TIP3    H230585   3.422   5.145  16.060 -1.0220 -0.4584 -2.4778
 3032TIP3   OH230586   2.386   1.608   5.281  0.3440 -0.5818  0.3478
 3032TIP3    H130587   2.417   1.643   5.364  0.9133  1.2843 -0.6119
 3032TIP3    H230588   2.432   1.524   5.272 -0.1278 -1.0866  2.1211
 3033TIP3   OH230589   2.682   3.516   6.132 -0.4110 -0.0498  0.4634
 3033TIP3    H130590   2.679   3.612   6.140 -1.6038 -0.0577  0.1825
 3033TIP3    H230591   2.599   3.486   6.166 -0.8487 -0.8596 -1.1926
 3034TIP3   OH230592   0.141   4.325  14.314 -0.0011  0.3017  0.0026
 3034TIP3    H130593   0.072   4.264  14.342  1.3677 -1.1640  0.3293
 3034TIP3    H230594   0.163   4.298  14.225 -0.0004  0.9271 -0.1942
 3035TIP3   OH230595   1.573   5.112  12.758 -0.0422 -0.4259 -0.3005
 3035TIP3    H130596   1.596   5.102  12.851 -2.1551 -1.3983  0.1640
 3035TIP3    H230597   1.573   5.207  12.745 -0.9466 -0.2033  1.0581
 3036TIP3   OH230598   5.696   6.685   6.115  0.3883 -0.0761 -0.0074
 3036TIP3    H130599   5.690   6.635   6.033  1.5959  0.0019 -0.1528
 3036TIP3    H230600   5.777   6.654   6.156  0.3510  0.6641  0.6423
 3037TIP3   OH230601   3.287   2.351  11.743 -0.4071  0.0198  0.1297
 3037TIP3    H130602   3.373   2.335  11.783 -0.1313 -1.2805 -0.8986
 3037TIP3    H230603   3.241   2.405  11.806  1.1800  0.7778  0.6939
 3038TIP3   OH230604   5.975   0.771  14.930 -0.0188 -0.3198  0.0663
 3038TIP3    H130605   6.067   0.796  14.933 -0.1736  0.1528  1.4097
 3038TIP3    H230606   5.946   0.796  14.842  1.4157 -1.5712 -0.8021
 3039TIP3   OH230607   1.790   2.430  16.446 -0.5757 -0.3735 -0.4796
 3039TIP3    H130608   1.868   2.430  16.501 -1.3399 -1.3234  0.6667
 3039TIP3    H230609   1.802   2.355  16.387 -0.8630 -0.8928  0.1025
 3040TIP3   OH230610   2.828   4.580   4.636  0.0262  0.0059  0.2444
 3040TIP3    H130611   2.815   4.661   4.588 -1.0108  0.9008  1.9528
 3040TIP3    H230612   2.789   4.512   4.581 -0.9262  0.9579 -0.2786
 3041TIP3   OH230613   0.538   0.432  15.544 -0.3709 -0.2958  0.2205
 3041TIP3    H130614   0.494   0.507  15.585 -1.9117 -0.2051 -1.4675
 3041TIP3    H230615   0.467   0.380  15.507  0.7810 -1.8753  0.1564
 3042TIP3   OH230616   4.999   4.031  13.203  0.6717 -0.2477  0.0609
 3042TIP3    H130617   5.065   3.967  13.177  0.9444 -0.3567  0.9674
 3042TIP3    H230618   5.031   4.114  13.169  1.3263 -0.2894  0.5442
 3043TIP3   OH230619   5.317   3.020  12.293 -0.1938 -0.1317  0.2421
 3043TIP3    H130620   5.390   3.049  12.348 -1.0921  1.1680  0.7998
 3043TIP3    H230621   5.244   3.010  12.354 -1.0170  0.6120 -0.5940
 3044TIP3   OH230622   6.227   5.468  13.514 -0.1034  0.1669 -0.0280
 3044TIP3    H130623   6.156   5.455  13.452 -1.4677 -2.4271  1.8356
 3044TIP3    H230624   6.288   5.396  13.497 -0.5028 -0.5896  1.5623
 3045TIP3   OH230625   0.219   0.038  10.518  0.2510 -0.2156  0.1367
 3045TIP3    H130626   0.191   0.010  10.431  0.6260 -0.1152 -0.0188
 3045TIP3    H230627   0.192  -0.033  10.576 -0.3051 -0.1296 -0.0104
 3046TIP3   OH230628   3.242   3.538   0.322 -0.2344  0.0031  0.3649
 3046TIP3    H130629   3.159   3.494   0.307  0.4057 -1.7232  1.5274
 3046TIP3    H230630   3.250   3.542   0.417  1.2923 -0.5014  0.2925
 3047TIP3   OH230631   3.528   0.928   3.029 -0.0264 -0.3569  0.0072
 3047TIP3    H130632   3.549   1.022   3.029  0.4087 -0.4430 -0.8684
 3047TIP3    H230633   3.435   0.925   3.009  0.0064 -0.1143 -0.1916
 3048TIP3   OH230634   0.136   6.084  15.364  0.3873 -0.4149 -0.1711
 3048TIP3    H130635   0.173   5.996  15.368 -0.3846 -0.6937  2.5162
 3048TIP3    H230636   0.051   6.077  15.407 -0.4882  1.3072 -1.4736
 3049TIP3   OH230637   4.726   1.217  14.927 -0.5344 -0.3644 -0.1167
 3049TIP3    H130638   4.802   1.212  14.868 -1.3356 -0.5924 -1.1555
 3049TIP3    H230639   4.675   1.139  14.907 -0.4761 -0.8165  1.3973
 3050TIP3   OH230640   2.682   4.885  12.688 -0.0425 -0.1598 -0.4037
 3050TIP3    H130641   2.718   4.943  12.621  0.8785  0.0387  0.2478
 3050TIP3    H230642   2.624   4.942  12.739  0.2546  0.0073 -0.2469
 3051TIP3   OH230643   5.308   1.611  13.015 -0.4085  0.2721 -0.2775
 3051TIP3    H130644   5.344   1.531  12.977  0.0206  2.2553 -4.5993
 3051TIP3    H230645   5.382   1.651  13.061  0.3873 -0.0890 -1.2170
 3052TIP3   OH230646   0.102   3.607  16.764  0.3922 -0.4058 -0.1928
 3052TIP3    H130647   0.104   3.511  16.762  1.6560 -0.4778 -4.3330
 3052TIP3    H230648   0.194   3.633  16.767  0.1619  0.5881 -1.0396
 3053TIP3   OH230649   3.528   3.166   0.676 -0.7135 -0.4547  0.5448
 3053TIP3    H130650   3.534   3.162   0.581  1.8560 -0.5823  0.6316
 3053TIP3    H230651   3.434   3.163   0.695 -1.3270  0.3873 -1.9882
 3054TIP3   OH230652   3.899   0.037  17.107 -0.3695  0.3261  0.2351
 3054TIP3    H130653   3.967   0.103  17.114 -0.4100  0.3339  0.5707
 3054TIP3    H230654   3.873   0.038  17.015  0.0489  0.3530  0.1181
 3055TIP3   OH230655   4.479   2.452  14.610  0.0891  0.4985 -0.2080
 3055TIP3    H130656   4.406   2.390  14.611 -0.0353  0.6068  1.7691
 3055TIP3    H230657   4.551   2.403  14.569  0.2108 -1.2740  1.9369
 3056TIP3   OH230658   1.245   4.318  16.862  0.6546 -0.5199  0.0400
 3056TIP3    H130659   1.297   4.241  16.836  0.8620 -0.0417 -1.0251
 3056TIP3    H230660   1.156   4.295  16.837  0.7019 -0.4541 -0.1918
 3057TIP3   OH230661   5.952   4.739   0.271  0.5151  0.1903 -0.4540
 3057TIP3    H130662   5.994   4.766   0.188 -1.1211  0.6820 -1.1547
 3057TIP3    H230663   5.859   4.734   0.250 -0.8282  5.3621  2.4848
 3058TIP3   OH230664   0.541   1.875  17.156  0.0075 -0.4814 -0.4166
 3058TIP3    H130665   0.464   1.919  17.191 -1.1920 -2.7807  0.0370
 3058TIP3    H230666   0.615   1.927  17.189 -1.2618  0.3574  1.2851
 3059TIP3   OH230667   3.133   5.168   4.253 -0.3945 -0.1100 -0.2295
 3059TIP3    H130668   3.137   5.207   4.341  2.7422 -2.2431  0.7428
 3059TIP3    H230669   3.170   5.235   4.196 -2.7314  1.4175 -0.1003
 3060TIP3   OH230670   3.533   5.486   4.025  0.5467 -0.2448 -0.0554
 3060TIP3    H130671   3.617   5.528   4.044  0.6793 -0.5761  0.0928
 3060TIP3    H230672   3.510   5.517   3.938  0.5580  0.2769  0.1250
 3061TIP3   OH230673   3.448   0.090   3.850  0.4941  0.5616 -0.3686
 3061TIP3    H130674   3.447   0.173   3.898  1.2870  0.3796 -0.0167
 3061TIP3    H230675   3.537   0.084   3.816 -0.4511  1.5045 -3.3263
 3062TIP3   OH230676   4.939   1.702  12.382 -0.7416  0.3268  0.4038
 3062TIP3    H130677   4.940   1.681  12.475 -0.2476  0.0461  0.3436
 3062TIP3    H230678   5.022   1.748  12.367 -1.4672  1.6575  0.3786
 3063TIP3   OH230679   4.064   3.337   5.386 -0.4437 -0.0705  0.2723
 3063TIP3    H130680   4.124   3.302   5.452  0.4045  0.9883  0.1010
 3063TIP3    H230681   4.058   3.431   5.406 -0.5094  0.1892 -0.8738
 3064TIP3   OH230682   1.450   3.134  13.084  0.2591  0.5879 -0.4979
 3064TIP3    H130683   1.378   3.108  13.141 -1.0801  1.3007 -1.8084
 3064TIP3    H230684   1.446   3.229  13.081  1.8968  0.7172  0.1722
 3065TIP3   OH230685   4.486   4.383   4.134  0.6715  0.1727  0.7237
 3065TIP3    H130686   4.525   4.298   4.113  1.9298  0.8597  0.1059
 3065TIP3    H230687   4.561   4.438   4.157  0.0563  1.5019 -0.3038
 3066TIP3   OH230688   1.117   3.497  13.677 -0.2312  0.5287  0.2235
 3066TIP3    H130689   1.141   3.409  13.651  0.1802  0.7854 -0.2747
 3066TIP3    H230690   1.139   3.502  13.770  0.3315  0.3110  0.1026
 3067TIP3   OH230691   1.635   2.428   2.778  0.8663 -0.3463  0.3352
 3067TIP3    H130692   1.584   2.353   2.751  0.1185 -0.4152  1.8099
 3067TIP3    H230693   1.584   2.468   2.849  1.8921  0.7591  0.5000
 3068TIP3   OH230694   4.108   5.176   2.649 -0.2805  0.1630  0.2603
 3068TIP3    H130695   4.027   5.129   2.630 -0.7608  0.3344  1.8033
 3068TIP3    H230696   4.177   5.112   2.630 -0.7664 -0.0859 -0.7617
 3069TIP3   OH230697   3.540   1.355  13.272 -0.5412  0.6600 -0.0958
 3069TIP3    H130698   3.487   1.433  13.290 -2.2919  0.4049 -3.4405
 3069TIP3    H230699   3.493   1.284  13.315  0.1982  1.1532  1.6160
 3070TIP3   OH230700   1.633   2.264  10.522 -0.6455  0.5965  0.4106
 3070TIP3    H130701   1.590   2.327  10.580 -1.8331 -0.5236  0.7815
 3070TIP3    H230702   1.581   2.265  10.442 -1.1218 -0.4579  0.6993
 3071TIP3   OH230703   4.876   3.795   5.585 -0.5983  0.5786 -0.3509
 3071TIP3    H130704   4.941   3.818   5.652  0.6889 -1.5303 -0.7568
 3071TIP3    H230705   4.805   3.753   5.633 -0.7648  1.1534 -0.0922
 3072TIP3   OH230706   1.828   2.692   2.783  0.0003 -0.2013 -0.3606
 3072TIP3    H130707   1.810   2.614   2.731 -0.2065 -0.2533 -0.2115
 3072TIP3    H230708   1.743   2.719   2.817 -0.1080  0.7238 -1.2971
 3073TIP3   OH230709   1.281   2.576   3.797  0.4576 -0.5466 -0.4113
 3073TIP3    H130710   1.220   2.504   3.782  0.6452 -0.5967 -0.9581
 3073TIP3    H230711   1.243   2.649   3.748  1.0161 -0.6776 -1.0510
 3074TIP3   OH230712   1.522   2.655  13.208  0.3902 -0.1619  0.4103
 3074TIP3    H130713   1.582   2.612  13.147 -0.0399  0.0691 -0.1823
 3074TIP3    H230714   1.495   2.735  13.163 -0.1656 -0.1396  0.7790
 3075TIP3   OH230715   6.582   1.695  16.308 -0.2888  0.0914 -0.8233
 3075TIP3    H130716   6.584   1.791  16.308 -0.5882  0.0997 -0.3771
 3075TIP3    H230717   6.654   1.670  16.251  0.6600  0.5627  0.1245
 3076TIP3   OH230718   0.462   5.147  15.092 -0.0172  0.0071  0.0164
 3076TIP3    H130719   0.393   5.098  15.136 -1.2748 -0.2384 -2.0694
 3076TIP3    H230720   0.424   5.234  15.080 -1.0355 -0.7301 -3.1525
 3077TIP3   OH230721   1.691   3.104   5.572 -0.3706 -0.0846  0.2216
 3077TIP3    H130722   1.620   3.058   5.526 -1.3277  0.6106  0.9595
 3077TIP3    H230723   1.760   3.113   5.506 -1.7256  0.9383 -1.1259
 3078TIP3   OH230724   5.357   3.702   0.451 -0.2616 -0.5785 -0.5496
 3078TIP3    H130725   5.269   3.733   0.472  0.2397  0.3400  0.2533
 3078TIP3    H230726   5.375   3.741   0.365  0.0218  0.6694  0.0583
 3079TIP3   OH230727   5.646   2.505  14.405  0.3591  0.4896  0.1020
 3079TIP3    H130728   5.672   2.572  14.342 -0.0498 -0.4368 -1.0945
 3079TIP3    H230729   5.554   2.488  14.386  0.4151 -0.3055  0.4733
 3080TIP3   OH230730   5.231   3.019   0.994 -0.2680  0.0696  0.0881
 3080TIP3    H130731   5.158   3.011   0.933  0.8273 -2.6966 -1.0127
 3080TIP3    H230732   5.210   2.960   1.066  0.0676  0.6415  0.6709
 3081TIP3   OH230733   4.151   3.922  15.744  0.1744 -0.0884 -0.9494
 3081TIP3    H130734   4.182   3.842  15.703  1.8309  1.1702 -2.3331
 3081TIP3    H230735   4.231   3.974  15.756 -0.7254  0.9730  0.7901
 3082TIP3   OH230736   5.772   2.309   3.784 -0.0270 -0.1320 -0.2621
 3082TIP3    H130737   5.818   2.347   3.859  1.5188  0.1812 -1.3440
 3082TIP3    H230738   5.688   2.355   3.782  0.0983  0.1969  0.9745
 3083TIP3   OH230739   2.867   4.280  16.681  0.5689 -0.4058  0.0885
 3083TIP3    H130740   2.798   4.319  16.626  0.7347  1.0388  0.8480
 3083TIP3    H230741   2.947   4.325  16.654  0.8599 -0.6028  0.6120
 3084TIP3   OH230742   1.931   5.839   6.360 -0.3675 -0.4252  0.0638
 3084TIP3    H130743   1.958   5.916   6.310  1.2152 -0.2538  1.1358
 3084TIP3    H230744   1.933   5.867   6.451 -1.7079 -1.1913  0.3644
 3085TIP3   OH230745   3.834   2.449  14.129 -0.5687 -0.9824 -0.0395
 3085TIP3    H130746   3.881   2.454  14.045  0.5752  0.5341  0.6327
 3085TIP3    H230747   3.888   2.394  14.185 -1.3816 -2.0751 -0.2923
 3086TIP3   OH230748   2.755   5.921  15.990  0.3751 -0.0815  0.1084
 3086TIP3    H130749   2.681   5.954  15.940  0.6792  0.9737  0.3421
 3086TIP3    H230750   2.763   5.981  16.064 -0.5894 -2.0574  1.9464
 3087TIP3   OH230751   6.094   2.114   4.734 -0.2507 -0.0834 -0.1648
 3087TIP3    H130752   6.185   2.134   4.710 -0.6124 -0.3476 -1.9074
 3087TIP3    H230753   6.087   2.141   4.825  1.0235  1.8602 -0.5673
 3088TIP3   OH230754   0.801   5.342   1.087  0.6677  0.4164  0.1426
 3088TIP3    H130755   0.791   5.250   1.110  0.4055 -0.2641 -2.3842
 3088TIP3    H230756   0.895   5.356   1.082  0.7374  0.6274  1.6195
 3089TIP3   OH230757   3.669   1.093   3.675  0.1532  1.1593  0.1577
 3089TIP3    H130758   3.705   1.174   3.712 -0.2734  0.4367  2.3288
 3089TIP3    H230759   3.621   1.054   3.748 -0.9979 -0.2596 -1.3122
 3090TIP3   OH230760   5.858   2.737   2.242  0.4130 -0.5324  0.4027
 3090TIP3    H130761   5.787   2.784   2.286 -0.1787 -2.3399  1.4922
 3090TIP3    H230762   5.841   2.749   2.149 -1.9558 -1.7119  0.6029
 3091TIP3   OH230763   0.910   5.790  16.099  0.7167  0.0066  0.1447
 3091TIP3    H130764   0.935   5.706  16.136  0.5612 -1.8670 -3.4905
 3091TIP3    H230765   0.815   5.789  16.098  0.7108 -0.6026 -1.4008
 3092TIP3   OH230766   5.986   1.913   1.575 -0.4082 -0.5184  0.1951
 3092TIP3    H130767   5.931   1.968   1.631  1.6303 -0.1384  1.9760
 3092TIP3    H230768   5.934   1.834   1.561 -1.6752  0.0905  1.1992
 3093TIP3   OH230769   3.931   5.649   0.394 -0.5046  0.0102 -0.4056
 3093TIP3    H130770   4.003   5.696   0.435 -0.8644 -0.7417  1.1675
 3093TIP3    H230771   3.892   5.598   0.465 -1.5813 -0.8422 -1.5603
 3094TIP3   OH230772   4.203   6.546   1.389  0.0875  0.4687  0.4898
 3094TIP3    H130773   4.170   6.618   1.442 -0.3161 -0.0819  0.9951
 3094TIP3    H230774   4.149   6.547   1.310  1.1044  1.6945 -0.2461
 3095TIP3   OH230775   0.821   4.187  16.012 -0.5374  0.0890  0.0575
 3095TIP3    H130776   0.831   4.120  15.945 -1.3141 -1.1698  1.1433
 3095TIP3    H230777   0.728   4.212  16.007 -0.2566  1.1037 -0.3393
 3096TIP3   OH230778   3.653   1.996  16.081 -0.6857  0.5482  0.1679
 3096TIP3    H130779   3.695   2.073  16.043  1.2794 -0.9600 -0.8944
 3096TIP3    H230780   3.655   2.011  16.175 -2.3381  2.7240 -0.0613
 3097TIP3   OH230781   4.774   3.983   1.137 -0.4094  0.4680 -0.3910
 3097TIP3    H130782   4.702   3.930   1.173  0.3927 -0.6894 -0.4403
 3097TIP3    H230783   4.818   4.020   1.213 -0.2833  0.1254 -0.2940
 3098TIP3   OH230784   2.798   0.340   0.945  0.3327  0.5177 -0.3473
 3098TIP3    H130785   2.839   0.345   0.859  0.7241 -1.1482 -0.3047
 3098TIP3    H230786   2.714   0.384   0.935  1.8687  3.6576 -0.5650
 3099TIP3   OH230787   3.584   6.243  15.714  0.3979  1.2784 -0.0109
 3099TIP3    H130788   3.555   6.295  15.789  1.0082  0.3281  0.9073
 3099TIP3    H230789   3.612   6.160  15.752  0.5246  0.6994 -1.3232
 3100TIP3   OH230790   1.354   2.243   3.755  0.1148 -0.7289 -0.7297
 3100TIP3    H130791   1.265   2.276   3.766  1.2491  1.9749  1.9504
 3100TIP3    H230792   1.385   2.285   3.675 -0.4063  0.0201 -0.5545
 3101TIP3   OH230793   1.846   2.880   4.805 -0.5923 -0.2597 -0.0313
 3101TIP3    H130794   1.910   2.855   4.738 -1.0915  0.4848 -0.8020
 3101TIP3    H230795   1.856   2.814   4.873 -1.1134 -1.9482 -1.5069
 3102TIP3   OH230796   0.943   2.663  11.661 -0.0704 -0.0807  0.2035
 3102TIP3    H130797   0.977   2.689  11.575  1.9954  0.8329  1.2237
 3102TIP3    H230798   0.934   2.568  11.655 -1.0463  0.0745 -1.3628
 3103TIP3   OH230799   3.649   5.275  17.018  0.5392  0.2733 -0.3323
 3103TIP3    H130800   3.732   5.307  17.054  1.0381 -0.8294 -0.4802
 3103TIP3    H230801   3.648   5.182  17.039 -0.5768  0.2341 -0.5122
 3104TIP3   OH230802   4.813   0.764  15.431  0.1257  0.1011  0.7170
 3104TIP3    H130803   4.722   0.746  15.455  0.4010 -0.6037  1.2608
 3104TIP3    H230804   4.808   0.797  15.341 -0.6932  0.3849  0.8613
 3105TIP3   OH230805   6.178   1.651   3.656 -0.3149 -0.3324 -0.3124
 3105TIP3    H130806   6.216   1.597   3.586  0.1646  0.4930 -0.7006
 3105TIP3    H230807   6.213   1.738   3.641 -0.3509 -0.1009  0.8614
 3106TIP3   OH230808   2.404   2.076   6.214  0.1179 -0.0712 -0.3765
 3106TIP3    H130809   2.322   2.104   6.253  0.2457  1.0317 -0.8629
 3106TIP3    H230810   2.471   2.131   6.255  0.2913  0.9299 -1.8944
 3107TIP3   OH230811   2.998   0.689  12.239 -0.1003  0.2011  0.2494
 3107TIP3    H130812   3.074   0.726  12.194  0.5913 -1.2098  0.1706
 3107TIP3    H230813   3.008   0.717  12.330 -0.2504  1.1840 -0.0359
 3108TIP3   OH230814   4.678   3.362  13.057  0.2636  0.3270 -0.1686
 3108TIP3    H130815   4.755   3.343  13.111  0.6280  1.7118 -0.1659
 3108TIP3    H230816   4.644   3.444  13.092 -0.0993  0.7114 -1.3875
 3109TIP3   OH230817   4.822   4.900   0.146  0.7685 -0.0366 -0.4756
 3109TIP3    H130818   4.878   4.834   0.106 -0.3520 -1.7413  0.6191
 3109TIP3    H230819   4.745   4.851   0.175 -0.5073  1.9170 -0.3784
 3110TIP3   OH230820   6.423   6.582   5.813 -0.1277 -0.0448  0.3879
 3110TIP3    H130821   6.459   6.514   5.869 -1.2933 -0.0305  1.2008
 3110TIP3    H230822   6.471   6.661   5.837  0.8341 -0.4425 -0.1560
 3111TIP3   OH230823   6.294   3.646   1.311  0.2186 -0.0837 -0.3294
 3111TIP3    H130824   6.375   3.654   1.260  0.7073 -0.7847  0.3165
 3111TIP3    H230825   6.311   3.696   1.391 -0.4179  0.7252 -0.6938
 3112TIP3   OH230826   1.164   0.462  11.242 -0.4741  0.0253  0.2161
 3112TIP3    H130827   1.216   0.382  11.241  0.0586  0.3483 -0.8889
 3112TIP3    H230828   1.080   0.437  11.278 -0.1584 -0.9322  0.3010
 3113TIP3   OH230829   2.509   1.369   5.274 -0.4488 -0.6983 -0.3636
 3113TIP3    H130830   2.577   1.359   5.207  1.3465  0.6051  1.1654
 3113TIP3    H230831   2.545   1.327   5.352 -1.7170 -0.6134  0.2936
 3114TIP3   OH230832   1.726   2.374  17.012 -0.1334 -0.7545 -0.4020
 3114TIP3    H130833   1.795   2.418  16.963 -0.5249  0.3903  0.0553
 3114TIP3    H230834   1.690   2.310  16.950 -1.4968  1.5103 -2.1275
 3115TIP3   OH230835   1.934   6.542   5.042 -0.6992 -0.3903 -0.0842
 3115TIP3    H130836   1.865   6.597   5.005 -1.6575 -2.3578 -1.3963
 3115TIP3    H230837   1.897   6.509   5.124 -0.1099  0.8269  0.7223
 3116TIP3   OH230838   1.186   5.468  14.631 -0.2280  0.1769  0.5658
 3116TIP3    H130839   1.164   5.430  14.546  0.7134  0.2935  0.2595
 3116TIP3    H230840   1.221   5.395  14.682 -0.9364  0.0723  0.9209
 3117TIP3   OH230841   2.705   4.586  13.609  0.2008 -0.4603  0.0857
 3117TIP3    H130842   2.759   4.659  13.579  0.1883 -0.3201  0.4049
 3117TIP3    H230843   2.651   4.564  13.533  0.5241 -0.4345 -0.1535
 3118TIP3   OH230844   0.956   4.267   4.975 -0.0189  0.2215  0.5880
 3118TIP3    H130845   0.951   4.175   4.948 -4.5032  0.4946 -0.2730
 3118TIP3    H230846   0.966   4.316   4.893  0.9413  0.5726  0.9052
 3119TIP3   OH230847   4.978   6.086   4.740  0.1051 -0.2335  0.6688
 3119TIP3    H130848   4.908   6.068   4.803 -0.5064  0.9466  0.3592
 3119TIP3    H230849   5.056   6.048   4.780 -0.4475 -0.3125  1.7123
 3120TIP3   OH230850   5.572   3.454  12.554 -0.7243 -0.4743  0.4535
 3120TIP3    H130851   5.527   3.408  12.483 -1.7255  0.8930  0.1628
 3120TIP3    H230852   5.618   3.385  12.601  1.1551 -1.2752 -2.3091
 3121TIP3   OH230853   4.536   1.643  16.577 -0.5187  0.7481  0.3718
 3121TIP3    H130854   4.577   1.651  16.663 -1.3255 -1.4485  1.0255
 3121TIP3    H230855   4.449   1.680  16.588 -0.1448  1.7246  0.1030
 3122TIP3   OH230856   1.160   2.707  15.432  0.1363 -0.1775  0.1988
 3122TIP3    H130857   1.157   2.629  15.488  1.9521 -1.7820 -1.7449
 3122TIP3    H230858   1.088   2.694  15.370 -0.4852  0.4675  0.7760
 3123TIP3   OH230859   1.077   6.313   5.796  0.3992  0.2286  0.1223
 3123TIP3    H130860   1.046   6.309   5.705 -1.5972  2.2477  0.6103
 3123TIP3    H230861   1.122   6.397   5.803  1.1019 -0.1893  0.8713
 3124TIP3   OH230862   4.153   5.199   6.317 -0.0138 -0.0349 -0.4385
 3124TIP3    H130863   4.209   5.213   6.240  1.0255  0.8431  0.4433
 3124TIP3    H230864   4.087   5.268   6.311  1.2034  1.2541  0.4314
 3125TIP3   OH230865   1.434   6.756   1.185  0.3864  0.4321  0.0941
 3125TIP3    H130866   1.465   6.845   1.202  2.5531 -0.1704 -0.4460
 3125TIP3    H230867   1.513   6.705   1.171 -0.8320 -1.5038 -0.1116
 3126TIP3   OH230868   6.736   3.787  17.037 -0.1535 -0.0955 -0.9533
 3126TIP3    H130869   6.794   3.829  16.974 -0.5873  1.0199 -0.6381
 3126TIP3    H230870   6.794   3.762  17.109  0.0723  0.2740 -1.0011
 3127TIP3   OH230871   6.470   6.513   1.476  0.1468 -0.2689  0.1491
 3127TIP3    H130872   6.534   6.535   1.408  0.7343 -1.7217  0.2067
 3127TIP3    H230873   6.494   6.425   1.505 -0.5339  0.0328  1.7382
 3128TIP3   OH230874   1.961   6.462  15.406 -0.0677 -0.1830 -0.2721
 3128TIP3    H130875   1.878   6.496  15.372 -0.5326 -0.6338  0.3856
 3128TIP3    H230876   2.023   6.534  15.393 -0.8512  0.6357  0.3844
 3129TIP3   OH230877   4.802   5.051   1.220  0.0487  0.0900  0.1938
 3129TIP3    H130878   4.840   5.126   1.265  0.3533 -0.3333  0.6551
 3129TIP3    H230879   4.745   5.009   1.285 -0.2605  0.0238 -0.1151
 3130TIP3   OH230880   1.992   0.126   5.650 -0.0423 -0.0596  0.1731
 3130TIP3    H130881   1.974   0.149   5.559  0.6041 -0.7708 -0.1463
 3130TIP3    H230882   1.947   0.042   5.664 -0.0494 -0.0087  0.4733
 3131TIP3   OH230883   0.585   2.580   1.461 -0.1574 -0.3706  0.3841
 3131TIP3    H130884   0.628   2.560   1.378 -0.5819 -1.2037  0.3589
 3131TIP3    H230885   0.502   2.620   1.435 -0.3802 -0.8171  0.3966
 3132TIP3   OH230886   1.097   1.936  10.524 -0.5577  0.1833  0.2641
 3132TIP3    H130887   1.171   1.975  10.477 -0.1046 -0.8632  0.0912
 3132TIP3    H230888   1.030   2.004  10.523  1.0613  1.9382  2.1612
 3133TIP3   OH230889   1.785   2.515   2.220 -0.6117  0.4015  0.3543
 3133TIP3    H130890   1.724   2.504   2.292  0.8901  1.5114  1.8690
 3133TIP3    H230891   1.752   2.592   2.172 -0.8036  0.5508  0.7238
 3134TIP3   OH230892   1.709   4.022   3.517 -0.7098  0.0484 -0.0210
 3134TIP3    H130893   1.690   4.063   3.433  1.3562  1.9445  0.3539
 3134TIP3    H230894   1.658   4.072   3.580 -0.4976  0.1085  0.1043
 3135TIP3   OH230895   4.282   5.301  15.893 -0.4206 -0.2178 -0.8443
 3135TIP3    H130896   4.279   5.388  15.934 -1.7845 -1.0717  0.9694
 3135TIP3    H230897   4.209   5.253  15.931  2.7758 -3.6814  1.7513
 3136TIP3   OH230898   6.553   3.069   0.408 -0.0518  0.4491  1.0164
 3136TIP3    H130899   6.643   3.098   0.394 -0.2578  0.9192  0.6428
 3136TIP3    H230900   6.509   3.083   0.325 -0.7310  1.2063  1.4849
 3137TIP3   OH230901   5.181   2.450   1.843  0.5587 -0.6275  0.5242
 3137TIP3    H130902   5.099   2.406   1.864  0.6238 -0.8198  0.3797
 3137TIP3    H230903   5.166   2.489   1.757  0.6098 -0.6446  0.5071
 3138TIP3   OH230904   0.138   1.844  13.187 -0.2722 -0.0299  0.3781
 3138TIP3    H130905   0.160   1.862  13.096 -1.4525 -1.2717 -0.1902
 3138TIP3    H230906   0.046   1.870  13.195  0.2892  1.7663  1.7324
 3139TIP3   OH230907   0.795   5.073  10.645  0.2246  0.0582 -0.0606
 3139TIP3    H130908   0.803   5.160  10.606 -0.4385 -0.0680 -0.5076
 3139TIP3    H230909   0.788   5.088  10.739 -2.0589  0.6753 -0.2613
 3140TIP3   OH230910   3.051   0.465   0.497  0.2466 -0.1772  0.3845
 3140TIP3    H130911   3.062   0.503   0.410 -0.1932 -0.0660  0.3749
 3140TIP3    H230912   3.084   0.375   0.489  1.3530  0.2132  0.4250
 3141TIP3   OH230913   0.189   2.180  14.041 -0.4053 -0.2907 -0.5959
 3141TIP3    H130914   0.208   2.105  14.098  0.3084 -1.1937 -1.9656
 3141TIP3    H230915   0.093   2.185  14.040 -0.4496 -0.8294 -0.0457
 3142TIP3   OH230916   1.317   5.432   3.708  0.3505  0.2710  0.1809
 3142TIP3    H130917   1.294   5.522   3.728 -0.7497  0.3553 -1.2684
 3142TIP3    H230918   1.243   5.399   3.657 -0.5508 -2.3415  2.9131
 3143TIP3   OH230919   0.554   2.978  13.389 -0.5551 -0.7339 -0.0645
 3143TIP3    H130920   0.516   2.966  13.476  0.0994 -0.0329  0.3351
 3143TIP3    H230921   0.488   3.029  13.341  0.5133  1.9749  1.1640
 3144TIP3   OH230922   3.143   6.343  12.998 -0.1893  0.2992  0.1806
 3144TIP3    H130923   3.182   6.311  12.917  0.0450 -3.5016  1.6125
 3144TIP3    H230924   3.212   6.334  13.064 -1.2796  0.3469  1.3787
 3145TIP3   OH230925   1.181   1.965  15.911  0.4958 -0.1025 -0.1326
 3145TIP3    H130926   1.246   1.994  15.974  0.3131 -0.1339  0.0717
 3145TIP3    H230927   1.228   1.959  15.828  0.6524  0.2824 -0.0725
 3146TIP3   OH230928   1.543   4.229  15.718  0.5362  0.1033  0.7878
 3146TIP3    H130929   1.530   4.253  15.810 -0.6344 -0.1811  0.7128
 3146TIP3    H230930   1.620   4.172  15.720  1.4119  1.2572  1.3768
 3147TIP3   OH230931   0.572   3.215   2.320  0.3785 -0.1293 -0.5130
 3147TIP3    H130932   0.520   3.250   2.392 -0.5245 -1.4002 -0.4959
 3147TIP3    H230933   0.606   3.132   2.354 -0.7725 -1.1785 -1.7878
 3148TIP3   OH230934   0.691   4.309  10.869 -0.2163 -0.0579 -0.4499
 3148TIP3    H130935   0.732   4.265  10.795  0.1757  1.2523 -1.0450
 3148TIP3    H230936   0.711   4.402  10.855  0.1570  0.1804  1.4912
 3149TIP3   OH230937   0.982   1.663  12.582 -0.3256 -0.2913 -0.4407
 3149TIP3    H130938   1.069   1.697  12.603 -1.2397  1.0145  1.6182
 3149TIP3    H230939   0.922   1.734  12.605 -1.9916 -1.3067 -1.3740
 3150TIP3   OH230940   3.966   6.513   1.641 -0.4925  0.2351 -0.0528
 3150TIP3    H130941   3.879   6.476   1.657 -1.0967  2.1111  1.2621
 3150TIP3    H230942   3.953   6.574   1.569 -0.4722  1.1678  0.7216
 3151TIP3   OH230943   6.265   6.755  16.805 -0.1721 -0.4534 -0.1201
 3151TIP3    H130944   6.304   6.680  16.850 -0.0298  1.0671  2.5320
 3151TIP3    H230945   6.339   6.803  16.769 -0.1871 -1.0603 -0.9787
 3152TIP3   OH230946   5.329   6.215   5.431 -0.2624  0.4938 -0.1238
 3152TIP3    H130947   5.407   6.197   5.379 -0.2644 -1.8392  0.5657
 3152TIP3    H230948   5.258   6.217   5.366  0.0033 -0.3574 -0.4693
 3153TIP3   OH230949   0.749   6.549   1.918 -0.3424  0.2819 -0.2729
 3153TIP3    H130950   0.791   6.627   1.953 -0.5675  1.0694 -1.6793
 3153TIP3    H230951   0.700   6.580   1.842 -1.3440 -1.0514 -0.2114
 3154TIP3   OH230952   4.029   4.720  11.325  0.0404  0.2041  0.3880
 3154TIP3    H130953   4.068   4.735  11.238  1.0626 -1.3681  0.5395
 3154TIP3    H230954   4.031   4.806  11.367  0.2992  0.8195 -0.8296
 3155TIP3   OH230955   3.961   4.488   2.529 -0.2828 -0.0241  0.1989
 3155TIP3    H130956   3.981   4.441   2.611 -1.7057 -1.8309 -0.4103
 3155TIP3    H230957   4.009   4.570   2.536  1.5433 -1.1466  1.8023
 3156TIP3   OH230958   3.233   1.179   0.352  0.3333 -0.5468 -0.2013
 3156TIP3    H130959   3.207   1.087   0.347  0.4269 -0.6646  1.1412
 3156TIP3    H230960   3.323   1.177   0.384  0.4383  0.0148 -0.4360
 3157TIP3   OH230961   3.767   1.020  10.946 -0.2158 -0.1863  0.0931
 3157TIP3    H130962   3.843   1.077  10.952 -0.1281 -0.3165  0.2153
 3157TIP3    H230963   3.694   1.075  10.975 -0.2780  0.1497 -0.6993
 3158TIP3   OH230964   2.718   4.543  15.131  0.5201 -0.1115 -0.1725
 3158TIP3    H130965   2.775   4.467  15.137  0.0946 -0.6271 -1.9079
 3158TIP3    H230966   2.696   4.549  15.038  0.0449  1.7723  0.0132
 3159TIP3   OH230967   3.792   1.510  15.546 -0.3762 -0.3582 -0.1296
 3159TIP3    H130968   3.700   1.523  15.566 -0.0410  1.0770  0.6557
 3159TIP3    H230969   3.816   1.430  15.592 -0.9971 -0.1960  0.4990
 3160TIP3   OH230970   3.100   6.536   5.105  0.1247 -0.2424  0.3421
 3160TIP3    H130971   3.028   6.586   5.142  0.4589 -1.0100  2.1102
 3160TIP3    H230972   3.177   6.592   5.115  0.1163 -0.2164  0.2634
 3161TIP3   OH230973   6.101   4.489  12.499  0.6177  0.5636  0.1721
 3161TIP3    H130974   6.112   4.434  12.577 -2.6087  0.0865  0.4580
 3161TIP3    H230975   6.017   4.534  12.514  0.8187  1.8955 -2.2326
 3162TIP3   OH230976   5.112   1.649  13.909  0.0648 -0.2266  0.4061
 3162TIP3    H130977   5.094   1.562  13.873  0.3515 -0.2324  0.2759
 3162TIP3    H230978   5.045   1.705  13.869  1.4161  0.1185 -1.5092
 3163TIP3   OH230979   4.799   3.507   5.338 -0.2135  0.7620 -0.2147
 3163TIP3    H130980   4.840   3.430   5.300  1.1290  0.6223  1.3597
 3163TIP3    H230981   4.705   3.492   5.330  0.0382 -0.4701 -1.0096
 3164TIP3   OH230982   1.651   2.806  12.805  0.1791 -0.5625  0.0020
 3164TIP3    H130983   1.727   2.750  12.790 -0.2888 -0.4764 -3.3517
 3164TIP3    H230984   1.659   2.876  12.741 -2.0092  0.2117  0.4872
 3165TIP3   OH230985   4.152   1.542  11.264  0.1541 -0.0969  0.0531
 3165TIP3    H130986   4.147   1.450  11.293  0.1815 -0.3698 -0.7925
 3165TIP3    H230987   4.117   1.592  11.338 -0.9496 -0.8770  0.0891
 3166TIP3   OH230988   4.424   0.743  12.067 -0.2486 -0.4406 -0.0225
 3166TIP3    H130989   4.433   0.723  12.160  0.6536 -1.0224 -0.2219
 3166TIP3    H230990   4.501   0.704  12.027 -0.6287 -0.1918 -1.0175
 3167TIP3   OH230991   2.022   5.611   5.908 -0.0265  0.2237 -0.2653
 3167TIP3    H130992   1.946   5.578   5.955 -1.7520  2.2592 -1.4210
 3167TIP3    H230993   2.025   5.559   5.828  0.2316 -0.3192  0.0937
 3168TIP3   OH230994   5.859   5.590  14.848  0.3188 -0.2067  0.0872
 3168TIP3    H130995   5.911   5.572  14.769  1.6579  1.3136  0.5551
 3168TIP3    H230996   5.771   5.608  14.814  0.9392  0.7337 -1.1227
 3169TIP3   OH230997   2.104   4.386  10.539  0.1275  0.0950  0.3614
 3169TIP3    H130998   2.035   4.324  10.563  0.7916 -0.7808  0.0518
 3169TIP3    H230999   2.174   4.332  10.504  2.0089  0.6496  2.9231
 3170TIP3   OH231000   5.223   5.335   0.916 -0.6368 -0.2923  0.2029
 3170TIP3    H131001   5.225   5.339   0.820  0.2035 -0.2641  0.2174
 3170TIP3    H231002   5.288   5.269   0.938  0.3644  0.8695  0.8233
 3171TIP3   OH231003   4.200   4.984  12.331 -0.6195 -0.2099 -0.4247
 3171TIP3    H131004   4.206   4.927  12.254 -0.3161 -0.4423 -0.2312
 3171TIP3    H231005   4.200   5.073  12.295  0.1019 -0.3011 -0.6602
 3172TIP3   OH231006   2.329   6.016   5.624  0.0537 -0.4245  0.6513
 3172TIP3    H131007   2.336   6.092   5.567 -1.3399 -0.4527  0.4138
 3172TIP3    H231008   2.326   6.052   5.713 -1.1357 -0.1386  0.5141
 3173TIP3   OH231009   5.462   1.412   0.028  0.5710  0.0930  0.3372
 3173TIP3    H131010   5.501   1.454   0.104  0.0254  1.0083  0.1199
 3173TIP3    H231011   5.370   1.438   0.030  0.6209  0.4217 -0.8232
 3174TIP3   OH231012   4.679   0.163  11.419  0.2268  0.0496 -0.1753
 3174TIP3    H131013   4.608   0.172  11.481  0.4156 -2.2280  0.4627
 3174TIP3    H231014   4.756   0.198  11.464 -0.5054  3.4351 -1.2189
 3175TIP3   OH231015   2.065   6.420  14.163 -0.2437  0.2634 -0.2569
 3175TIP3    H131016   2.132   6.392  14.101 -0.0790 -2.3658  0.9894
 3175TIP3    H231017   1.985   6.377  14.132 -1.2386  2.5701 -1.1510
 3176TIP3   OH231018   6.191   3.278  11.870 -0.1911 -0.1312  0.2330
 3176TIP3    H131019   6.206   3.372  11.886 -0.0429  0.2804 -2.0442
 3176TIP3    H231020   6.279   3.241  11.861 -0.2702 -0.3683  0.4285
 3177TIP3   OH231021   4.353   2.992  11.274 -0.1972 -0.0819 -0.2697
 3177TIP3    H131022   4.357   2.902  11.308 -1.9114 -0.5842 -1.2701
 3177TIP3    H231023   4.393   2.985  11.187 -0.8728 -0.0178 -0.5897
 3178TIP3   OH231024   1.426   4.448   3.541  0.1322  0.0158 -0.1762
 3178TIP3    H131025   1.520   4.467   3.543 -0.0154  0.8400 -0.6690
 3178TIP3    H231026   1.413   4.398   3.461  0.4589 -1.9139  0.9269
 3179TIP3   OH231027   1.794   0.315  13.535  0.3866  0.2783  0.1027
 3179TIP3    H131028   1.801   0.407  13.558 -1.2481  0.0355  1.7235
 3179TIP3    H231029   1.884   0.281  13.545  0.5890  1.2027  1.7706
 3180TIP3   OH231030   3.050   0.189   1.014 -0.3807 -0.3253  0.3412
 3180TIP3    H131031   3.059   0.164   0.922 -3.2821  0.6128 -0.3174
 3180TIP3    H231032   3.036   0.107   1.060 -1.0644 -0.6440 -0.4129
 3181TIP3   OH231033   1.855   1.229  16.866  0.2152 -0.0071 -0.2290
 3181TIP3    H131034   1.843   1.246  16.772  0.6032  2.1747  0.0689
 3181TIP3    H231035   1.919   1.295  16.894 -0.9753  0.3276  1.8603
 3182TIP3   OH231036   5.689   5.036  14.156 -0.2092 -0.3300 -0.7945
 3182TIP3    H131037   5.665   5.080  14.075  2.3563  0.9071 -0.9765
 3182TIP3    H231038   5.781   5.013  14.145 -0.3703 -2.1336  0.9448
 3183TIP3   OH231039   4.873   1.515  16.251  0.1998  0.1745  0.4225
 3183TIP3    H131040   4.899   1.459  16.325  0.1676  0.4425  0.6361
 3183TIP3    H231041   4.868   1.603  16.288  0.3488  0.3363  0.0568
 3184TIP3   OH231042   0.344   1.170  12.075  0.6888 -0.1536  0.2383
 3184TIP3    H131043   0.279   1.128  12.132 -1.2348  1.5027 -0.5964
 3184TIP3    H231044   0.330   1.264  12.088  1.4654  0.2592 -1.5769
 3185TIP3   OH231045   1.299   5.495  16.763  0.2494  0.8381  0.3390
 3185TIP3    H131046   1.272   5.582  16.791 -0.7006  0.3614  0.9381
 3185TIP3    H231047   1.234   5.470  16.696  0.0442  0.2736  0.7427
 3186TIP3   OH231048   0.535   5.583   5.719 -0.0748 -0.6748  0.9866
 3186TIP3    H131049   0.585   5.503   5.705 -0.5162 -0.8926  0.6612
 3186TIP3    H231050   0.575   5.646   5.659 -1.4593 -1.3927 -0.7699
 3187TIP3   OH231051   2.946   3.611   2.969  0.0205 -0.1404 -0.2384
 3187TIP3    H131052   2.991   3.527   2.968  1.9527  0.8248 -0.1486
 3187TIP3    H231053   2.958   3.644   3.059  1.0298  1.0602 -0.7775
 3188TIP3   OH231054   2.060   3.693  13.271 -0.3549 -0.2107  0.0256
 3188TIP3    H131055   2.072   3.698  13.366  1.3210 -3.0570  0.0749
 3188TIP3    H231056   2.139   3.733  13.234 -0.1091 -0.7898 -0.0948
 3189TIP3   OH231057   0.989   4.550   3.557 -0.1755 -0.2052 -0.1906
 3189TIP3    H131058   0.921   4.613   3.531 -1.3981 -0.9580  1.0605
 3189TIP3    H231059   0.975   4.536   3.650  0.4355 -1.8801 -0.3122
 3190TIP3   OH231060   4.653   6.671   0.727 -0.0832  0.2647  0.0073
 3190TIP3    H131061   4.685   6.684   0.817 -0.7302  0.6839  0.1912
 3190TIP3    H231062   4.719   6.712   0.672 -0.4460  1.4364  0.3959
 3191TIP3   OH231063   5.528   6.272   5.008 -0.2569 -0.4888 -0.0578
 3191TIP3    H131064   5.575   6.190   5.025 -1.5728 -1.0846  0.8886
 3191TIP3    H231065   5.483   6.257   4.926  0.8526 -0.0600 -0.7663
 3192TIP3   OH231066   2.607   1.438  15.334 -0.6589  0.5492 -0.2170
 3192TIP3    H131067   2.638   1.381  15.264  0.0830  0.8672 -0.1504
 3192TIP3    H231068   2.521   1.468  15.304 -0.1509  1.0571 -1.1985
 3193TIP3   OH231069   5.879   3.567  12.380  0.1134 -0.1486  0.2968
 3193TIP3    H131070   5.793   3.562  12.423 -0.6486 -1.4592 -1.2734
 3193TIP3    H231071   5.911   3.655  12.402 -0.8397 -0.2454  2.3341
 3194TIP3   OH231072   6.155   6.699   4.087 -0.0107  0.2106 -0.5354
 3194TIP3    H131073   6.128   6.783   4.048  1.7754  0.6201 -0.9460
 3194TIP3    H231074   6.158   6.717   4.181 -2.6445 -0.3076 -0.2531
 3195TIP3   OH231075   0.769   3.703  11.082 -0.1181  0.1661 -0.3003
 3195TIP3    H131076   0.765   3.791  11.044  0.9807 -0.3748 -1.7659
 3195TIP3    H231077   0.742   3.645  11.011  0.7732 -0.7887  0.1078
 3196TIP3   OH231078   5.990   0.449  15.343  0.5154 -0.4428  0.7829
 3196TIP3    H131079   6.032   0.364  15.332 -0.9870 -1.4332  2.1442
 3196TIP3    H231080   6.040   0.493  15.411  1.1467 -0.3230  0.2503
 3197TIP3   OH231081   0.053   2.090  10.469  0.2232 -0.1174 -0.0157
 3197TIP3    H131082  -0.006   2.163  10.491 -1.5952 -1.0713 -1.5110
 3197TIP3    H231083   0.008   2.012  10.503  0.6217 -0.8571 -1.1355
 3198TIP3   OH231084   5.888   0.341   1.205  0.4546 -0.1501  0.6120
 3198TIP3    H131085   5.944   0.370   1.277  0.2923  0.3570  0.5424
 3198TIP3    H231086   5.877   0.419   1.150 -2.0130  0.4154  1.7314
 3199TIP3   OH231087   1.195   3.960   6.048  0.5654  0.0029  0.0194
 3199TIP3    H131088   1.197   4.046   6.005  2.1438  0.7533  1.4604
 3199TIP3    H231089   1.141   3.973   6.126  2.5440  0.3519  1.4063
 3200TIP3   OH231090   0.619   5.735   1.194  0.1664  0.6677  0.3492
 3200TIP3    H131091   0.635   5.642   1.206  0.0311  0.7443  1.2137
 3200TIP3    H231092   0.687   5.778   1.246 -0.5098  1.0270  0.9675
 3201TIP3   OH231093   1.878   6.377   0.807  0.5166  0.1170  0.5749
 3201TIP3    H131094   1.852   6.396   0.897  0.9570 -0.6070  0.8659
 3201TIP3    H231095   1.962   6.331   0.815 -0.2657 -1.4932 -0.1069
 3202TIP3   OH231096   6.308   0.288   1.955  0.1942  0.3006 -0.1088
 3202TIP3    H131097   6.215   0.303   1.973  0.0421 -0.8084  0.1070
 3202TIP3    H231098   6.313   0.282   1.860 -0.4666 -2.4661 -0.0482
 3203TIP3   OH231099   1.167   2.505  11.950  0.3458 -0.1298 -0.2391
 3203TIP3    H131100   1.239   2.461  11.904  0.4710 -2.1684  1.7423
 3203TIP3    H231101   1.172   2.595  11.920  2.5425 -0.6196 -1.6099
 3204TIP3   OH231102   5.329   1.075  15.876  0.1002 -0.1846  0.6099
 3204TIP3    H131103   5.417   1.112  15.868 -0.1028  0.1680 -0.1154
 3204TIP3    H231104   5.295   1.110  15.958 -0.1173  1.3289 -0.0909
 3205TIP3   OH231105   0.680   5.375   5.616 -0.3304  0.0314 -0.4901
 3205TIP3    H131106   0.667   5.296   5.564  0.1172 -0.3321 -0.0675
 3205TIP3    H231107   0.707   5.342   5.702  0.1040  0.6542 -0.3830
 3206TIP3   OH231108   3.509   1.292   5.345 -0.4614  0.4522 -0.2151
 3206TIP3    H131109   3.434   1.259   5.296 -1.7906 -1.5890  2.8343
 3206TIP3    H231110   3.476   1.369   5.391 -0.0431  0.7621 -0.4215
 3207TIP3   OH231111   6.574   3.244  12.164  0.2088 -1.0984 -0.0501
 3207TIP3    H131112   6.514   3.212  12.097 -0.5839 -0.2771  0.2534
 3207TIP3    H231113   6.526   3.312  12.209  0.9302 -1.2652  1.0119
 3208TIP3   OH231114   0.449   1.468  14.389 -0.2925  0.4331 -0.0808
 3208TIP3    H131115   0.415   1.447  14.476  0.3030 -0.5714 -0.0722
 3208TIP3    H231116   0.544   1.470  14.400 -0.2642  2.0398 -0.3480
 3209TIP3   OH231117   5.263   1.569  12.068  0.1313  0.0268  0.2469
 3209TIP3    H131118   5.198   1.499  12.057  1.3075 -1.1299  0.4576
 3209TIP3    H231119   5.342   1.535  12.025  2.1531 -0.7747  4.1608
 3210TIP3   OH231120   0.461   3.674   0.229 -0.5178 -0.0794 -1.1206
 3210TIP3    H131121   0.464   3.764   0.263  3.7513 -0.4063 -0.0809
 3210TIP3    H231122   0.502   3.621   0.298 -0.8318 -2.4840 -2.6711
 3211TIP3   OH231123   0.228   1.724   4.632 -0.0183 -0.0318  0.0753
 3211TIP3    H131124   0.174   1.649   4.658  1.4995 -1.3166 -0.2677
 3211TIP3    H231125   0.205   1.738   4.540 -1.6470  1.1634  0.6311
 3212TIP3   OH231126   3.105   6.681   1.916 -0.2724 -0.1353  0.0078
 3212TIP3    H131127   3.138   6.627   1.987  1.6980  1.7157  0.6016
 3212TIP3    H231128   3.031   6.729   1.954 -0.8197 -0.9649  0.0250
 3213TIP3   OH231129   5.970   4.743  13.729 -1.1909  0.4417 -0.1954
 3213TIP3    H131130   5.896   4.765  13.786 -1.4289  1.3224 -0.8412
 3213TIP3    H231131   5.952   4.787  13.647  0.3428  1.1501 -0.1860
 3214TIP3   OH231132   3.146   1.971   1.254  0.2420  0.1981  0.1616
 3214TIP3    H131133   3.200   1.997   1.329  1.3872  0.3352 -0.6771
 3214TIP3    H231134   3.074   1.921   1.292 -1.2998  3.2844  1.7443
 3215TIP3   OH231135   5.128   5.090  15.768  0.7678 -0.4979 -0.2483
 3215TIP3    H131136   5.091   5.131  15.690  1.1346 -0.8280 -0.6013
 3215TIP3    H231137   5.200   5.037  15.735  0.8542 -0.7310  0.3058
 3216TIP3   OH231138   4.145   2.425  11.745 -0.2912 -0.0070 -0.2735
 3216TIP3    H131139   4.165   2.365  11.673  0.1927 -1.3380  0.9041
 3216TIP3    H231140   4.077   2.379  11.796 -0.7117  0.9545  0.0584
 3217TIP3   OH231141   4.967   1.684   0.061  0.1291 -0.2363  0.5499
 3217TIP3    H131142   4.990   1.591   0.063 -0.7743 -0.5441 -1.3402
 3217TIP3    H231143   4.942   1.701  -0.030  0.4664  1.9171  0.8084
 3218TIP3   OH231144   2.385   1.605   2.060  0.0487  0.2304  0.2715
 3218TIP3    H131145   2.290   1.599   2.074  0.0206  0.7251  0.2972
 3218TIP3    H231146   2.418   1.655   2.134  0.2344  0.6832 -0.1164
 3219TIP3   OH231147   5.267   5.446  13.835 -0.0499 -0.0423 -0.4803
 3219TIP3    H131148   5.256   5.521  13.776 -0.4167  1.1342  1.0266
 3219TIP3    H231149   5.219   5.375  13.792 -0.5749  0.8650 -1.4467
 3220TIP3   OH231150   6.807   1.367  12.942  0.0629 -0.2678  0.1758
 3220TIP3    H131151   6.799   1.404  13.030  0.3418 -2.2056  1.0619
 3220TIP3    H231152   6.733   1.404  12.894  0.1572  1.1678  1.0642
 3221TIP3   OH231153   6.526   0.321   5.290 -0.1227  0.1356  0.3170
 3221TIP3    H131154   6.452   0.317   5.350  0.5761 -2.0348  1.1209
 3221TIP3    H231155   6.590   0.259   5.326  1.1358  0.2352 -1.5976
 3222TIP3   OH231156   6.243   1.279   2.933 -0.2288  0.5142  0.0962
 3222TIP3    H131157   6.326   1.297   2.888 -0.3399 -0.0457 -0.3430
 3222TIP3    H231158   6.183   1.257   2.862 -1.6770  4.0863  0.0138
 3223TIP3   OH231159   2.883   6.280  16.022 -0.2407  0.4593 -0.2201
 3223TIP3    H131160   2.978   6.286  16.027 -0.3065  0.9857  0.5260
 3223TIP3    H231161   2.866   6.245  15.935  0.5183  3.7655 -1.8762
 3224TIP3   OH231162   1.809   0.894   5.103  0.1007 -0.3842  0.3932
 3224TIP3    H131163   1.716   0.918   5.109  0.6515  1.5493  2.2856
 3224TIP3    H231164   1.817   0.852   5.017 -2.0305  1.7534 -0.9824
 3225TIP3   OH231165   1.077   5.727  13.280  0.0680 -0.3248 -0.3558
 3225TIP3    H131166   1.115   5.814  13.275 -1.2286  0.2331 -0.9156
 3225TIP3    H231167   1.059   5.703  13.189 -0.8901 -0.5764 -0.1081
 3226TIP3   OH231168   3.470   6.750  13.388 -0.1853  0.4898 -0.2706
 3226TIP3    H131169   3.526   6.685  13.429 -1.6489 -0.1606  0.7986
 3226TIP3    H231170   3.465   6.723  13.296  0.0787 -0.3006 -0.0618
 3227TIP3   OH231171   4.523   6.639  11.777  0.1668 -0.2779  0.3400
 3227TIP3    H131172   4.482   6.714  11.821 -2.0833 -1.0081 -0.3517
 3227TIP3    H231173   4.485   6.640  11.689  0.3963 -1.9775  0.1871
 3228TIP3   OH231174   4.662   6.019   4.058 -0.2064  0.2046  0.3499
 3228TIP3    H131175   4.612   6.098   4.076 -0.5762  0.0782 -0.0895
 3228TIP3    H231176   4.648   5.963   4.134 -1.6454 -0.2723 -0.2334
 3229TIP3   OH231177   1.383   5.292   1.148  0.1408  0.7528  0.4953
 3229TIP3    H131178   1.343   5.300   1.234  1.7267  1.1632  1.2385
 3229TIP3    H231179   1.450   5.360   1.146 -0.1513  1.0432 -1.2488
 3230TIP3   OH231180   0.873   3.213  12.107  0.0873 -0.1098 -0.3758
 3230TIP3    H131181   0.927   3.160  12.166 -0.5208 -0.8558 -0.4747
 3230TIP3    H231182   0.792   3.228  12.155 -0.6413 -1.2149 -1.2214
 3231TIP3   OH231183   3.017   4.036  13.347  0.2650 -0.1615  0.2117
 3231TIP3    H131184   3.010   4.051  13.253 -0.4946 -1.0428  0.1056
 3231TIP3    H231185   3.062   4.114  13.381  0.2201  0.3343 -0.8244
 3232TIP3   OH231186   6.304   2.206  14.235 -0.4153 -0.1772  0.0479
 3232TIP3    H131187   6.247   2.172  14.304  1.2465  0.7995  1.9875
 3232TIP3    H231188   6.392   2.177  14.259  0.7080  3.0058  0.2984
 3233TIP3   OH231189   3.321   4.290   0.919  0.1150  0.4974 -0.5691
 3233TIP3    H131190   3.287   4.323   1.003  1.7245  0.0150  0.3205
 3233TIP3    H231191   3.261   4.220   0.895  2.3432 -3.0486  2.9430
 3234TIP3   OH231192   5.922   6.353  15.505 -0.4147 -0.2471  1.0884
 3234TIP3    H131193   5.996   6.309  15.545 -0.8764 -1.2565  0.8597
 3234TIP3    H231194   5.849   6.339  15.565 -1.7045 -3.7403 -0.9738
 3235TIP3   OH231195   0.903   0.197  13.179 -0.4197 -0.4307  0.6621
 3235TIP3    H131196   0.865   0.279  13.147  3.2143  0.5946 -1.6392
 3235TIP3    H231197   0.948   0.222  13.259  0.4453 -0.2084  0.1155
 3236TIP3   OH231198   2.916   4.818  11.367 -0.1255 -0.4384 -0.0635
 3236TIP3    H131199   2.991   4.877  11.364 -2.7178  3.1743 -0.2403
 3236TIP3    H231200   2.921   4.768  11.286  1.2822  0.7702 -0.7656
 3237TIP3   OH231201   3.288   3.753   6.182  0.1038 -0.1587  0.6893
 3237TIP3    H131202   3.364   3.804   6.154  0.6515 -1.4405 -0.2738
 3237TIP3    H231203   3.213   3.808   6.161  0.6051 -0.2162 -1.5752
 3238TIP3   OH231204   4.111   5.842  12.059 -0.0265 -0.1053 -0.0369
 3238TIP3    H131205   4.147   5.806  11.978  1.2215 -1.7363  1.1867
 3238TIP3    H231206   4.071   5.767  12.103 -1.4039  0.9179  0.5202
 3239TIP3   OH231207   0.798   5.727   2.321  0.5364  0.4265 -0.6988
 3239TIP3    H131208   0.728   5.696   2.264  0.6933 -0.1847 -0.5675
 3239TIP3    H231209   0.762   5.805   2.363  0.8440  1.6107 -2.5184
 3240TIP3   OH231210   1.518   3.543  14.064  0.1294 -0.0788  0.3190
 3240TIP3    H131211   1.578   3.617  14.072 -1.3386  1.3048 -0.9853
 3240TIP3    H231212   1.436   3.574  14.102 -0.1425 -1.5296  0.9846
 3241TIP3   OH231213   0.560   1.358  12.527  0.2291  0.1871  1.0779
 3241TIP3    H131214   0.475   1.401  12.537 -0.7276 -0.5899 -2.2982
 3241TIP3    H231215   0.623   1.430  12.522 -0.7617  1.0136 -0.1706
 3242TIP3   OH231216   3.424   3.742  10.371  0.0152 -0.2868  0.3802
 3242TIP3    H131217   3.388   3.695  10.296 -1.0041 -0.3460  0.8918
 3242TIP3    H231218   3.376   3.825  10.373 -1.1532 -0.9437  1.9020
 3243TIP3   OH231219   5.691   4.162   2.804 -0.1380 -0.1009  0.1312
 3243TIP3    H131220   5.763   4.102   2.786  0.2223  0.9331 -2.2016
 3243TIP3    H231221   5.624   4.139   2.741 -1.2585 -0.0277  1.2490
 3244TIP3   OH231222   3.953   4.746  13.276  0.4656  0.0607  0.6200
 3244TIP3    H131223   3.945   4.651  13.271 -0.0141  0.1601 -1.9291
 3244TIP3    H231224   3.895   4.771  13.348  1.4189 -1.6125  2.0511
 3245TIP3   OH231225   4.880   0.593  14.329 -0.4274 -0.4527 -0.2691
 3245TIP3    H131226   4.971   0.619  14.345 -0.6840  0.6837 -0.5426
 3245TIP3    H231227   4.835   0.675  14.309 -1.2160 -1.1668 -1.5751
 3246TIP3   OH231228   6.781   4.591   3.491  0.2276 -0.3346 -0.3507
 3246TIP3    H131229   6.693   4.627   3.475  0.0891 -0.7728 -0.5946
 3246TIP3    H231230   6.803   4.546   3.409  1.2969  1.0181 -0.8314
 3247TIP3   OH231231   2.925   2.070  15.780  0.4572  0.0571  0.1168
 3247TIP3    H131232   2.949   1.988  15.737 -1.6850  0.8844 -3.0960
 3247TIP3    H231233   2.896   2.126  15.708 -0.2654  2.8722  2.4161
 3248TIP3   OH231234   5.479   5.274  15.237 -0.0876  0.1570  0.4261
 3248TIP3    H131235   5.553   5.215  15.249  0.1645 -0.1621 -2.0595
 3248TIP3    H231236   5.404   5.225  15.270  0.3959 -0.7662  0.2100
 3249TIP3   OH231237   3.454   1.159   1.802  0.0167  0.5317  0.0589
 3249TIP3    H131238   3.533   1.212   1.812 -0.0247  0.5076  0.5304
 3249TIP3    H231239   3.470   1.082   1.856  0.0337  0.1063 -0.5394
 3250TIP3   OH231240   3.838   2.631   2.263  0.1795 -0.3364  0.0148
 3250TIP3    H131241   3.848   2.536   2.269 -1.5395 -0.4829  1.6524
 3250TIP3    H231242   3.797   2.656   2.346 -0.5239  1.6578 -0.8658
 3251TIP3   OH231243   1.402   1.811   5.495  0.7989  0.4505  0.1673
 3251TIP3    H131244   1.327   1.761   5.526 -0.8499  1.2064 -2.3216
 3251TIP3    H231245   1.457   1.747   5.449  1.1114  0.1066  1.0086
 3252TIP3   OH231246   1.387   1.143   4.241  0.6336 -0.3802 -0.3395
 3252TIP3    H131247   1.334   1.064   4.248 -0.2570  0.2718  0.5162
 3252TIP3    H231248   1.441   1.143   4.320 -0.5189  0.6693  0.4688
 3253TIP3   OH231249   5.887   3.911   0.639  0.5032 -0.6289 -0.4190
 3253TIP3    H131250   5.802   3.925   0.599 -0.4852 -1.5035  1.2583
 3253TIP3    H231251   5.945   3.890   0.566 -1.3271 -2.7859 -1.3596
 3254TIP3   OH231252   6.736   0.476   5.156  0.0646 -0.0280 -0.0691
 3254TIP3    H131253   6.742   0.395   5.207  0.9881 -0.4347 -0.8047
 3254TIP3    H231254   6.812   0.474   5.099  0.5298  1.7290  0.4250
 3255TIP3   OH231255   5.188   4.467  16.639  0.5125  0.6256  0.4998
 3255TIP3    H131256   5.124   4.435  16.702  0.5122  0.1475  0.2640
 3255TIP3    H231257   5.178   4.562  16.640  1.0076  0.6816  1.7491
 3256TIP3   OH231258   1.488   4.529  15.720  0.5023 -0.0204 -0.5553
 3256TIP3    H131259   1.574   4.537  15.762 -0.9360  1.1830  2.4156
 3256TIP3    H231260   1.470   4.435  15.721 -0.4741 -0.0235  4.1463
 3257TIP3   OH231261   0.172   3.893  11.992 -0.1351  0.2295  0.0583
 3257TIP3    H131262   0.220   3.884  12.075 -0.2775  1.6469  0.3088
 3257TIP3    H231263   0.157   3.802  11.964  0.3055 -0.2727  1.3518
 3258TIP3   OH231264   0.423   6.133   3.585 -0.0124 -0.0748 -0.1638
 3258TIP3    H131265   0.509   6.097   3.562  0.3792 -0.6697  1.9695
 3258TIP3    H231266   0.364   6.100   3.517  1.8283  2.8541 -3.5574
 3259TIP3   OH231267   3.768   2.475  14.756  0.3056  0.6327  0.3717
 3259TIP3    H131268   3.758   2.570  14.755 -1.2195  0.4998 -0.7412
 3259TIP3    H231269   3.706   2.445  14.823 -1.2948  0.3023 -1.1576
 3260TIP3   OH231270   2.355   6.362  13.698  0.6042 -0.4107 -0.9445
 3260TIP3    H131271   2.384   6.428  13.761  1.5310  1.3233 -3.0963
 3260TIP3    H231272   2.380   6.279  13.738 -1.6322  0.2975  2.3969
 3261TIP3   OH231273   2.549   5.074   0.344 -0.8424  0.0062 -0.3996
 3261TIP3    H131274   2.645   5.078   0.349 -0.7958 -0.5716 -0.8151
 3261TIP3    H231275   2.526   4.991   0.386 -1.3085  1.0537  1.5155
 3262TIP3   OH231276   0.000   0.294   0.843  0.2274 -0.1823 -0.0047
 3262TIP3    H131277  -0.053   0.314   0.920 -1.1748 -0.6052 -0.8297
 3262TIP3    H231278   0.078   0.349   0.853 -0.6700  0.9790  0.9008
 3263TIP3   OH231279   3.898   6.030   0.135  0.2612  0.3028  0.2369
 3263TIP3    H131280   3.835   6.092   0.098 -0.0388  0.1152  0.4338
 3263TIP3    H231281   3.896   5.955   0.075  1.2691  0.8362 -0.4955
 3264TIP3   OH231282   2.920   5.070   3.605  0.5514 -0.5843 -0.1519
 3264TIP3    H131283   2.950   5.048   3.517  1.7370  0.1499  0.0451
 3264TIP3    H231284   2.997   5.055   3.661  0.0928 -0.1574  0.6146
 3265TIP3   OH231285   4.837   3.254  16.963  0.5527 -0.1603 -0.1983
 3265TIP3    H131286   4.829   3.327  17.024 -0.3623  0.4990 -1.0876
 3265TIP3    H231287   4.785   3.279  16.887 -0.0959 -1.9025 -0.3868
 3266TIP3   OH231288   1.656   4.007  16.059 -0.4142  0.2229  0.9817
 3266TIP3    H131289   1.750   3.996  16.073 -0.1268  0.4811 -0.5817
 3266TIP3    H231290   1.617   3.924  16.087  0.4240 -0.3591  0.4665
 3267TIP3   OH231291   1.416   3.443  15.044  0.4683  0.2078 -0.5679
 3267TIP3    H131292   1.379   3.380  15.106 -0.7272  1.7313  0.3440
 3267TIP3    H231293   1.428   3.394  14.963 -1.0477 -1.0112 -0.0911
 3268TIP3   OH231294   6.399   2.799   3.678 -0.1253 -0.2355 -0.3596
 3268TIP3    H131295   6.408   2.760   3.765  2.5513  0.5681 -0.1848
 3268TIP3    H231296   6.338   2.871   3.691  1.5645  0.9982  1.3633
 3269TIP3   OH231297   4.049   1.961  11.090  0.0950 -0.0978 -0.0043
 3269TIP3    H131298   4.008   2.043  11.062 -0.3261 -1.1693 -2.8827
 3269TIP3    H231299   4.065   1.973  11.184 -2.7361  2.0835  0.3338
 3270TIP3   OH231300   1.945   6.244  16.540 -0.1072  0.1217  0.0524
 3270TIP3    H131301   1.948   6.149  16.529  0.9962  0.2814 -1.3123
 3270TIP3    H231302   1.905   6.257  16.626 -0.0827 -1.5812  0.3550
 3271TIP3   OH231303   1.657   2.713  12.209  0.1254 -0.0511  0.0882
 3271TIP3    H131304   1.692   2.675  12.290 -0.4826  0.1646  0.4561
 3271TIP3    H231305   1.730   2.764  12.173  0.9055 -1.3968 -0.3265
 3272TIP3   OH231306   0.889   1.197   2.242 -0.2154  0.7746  0.7504
 3272TIP3    H131307   0.795   1.210   2.249 -0.2737  0.0674  1.5693
 3272TIP3    H231308   0.927   1.284   2.254 -0.8186  1.5298 -2.1326
 3273TIP3   OH231309   0.133   4.664   5.552  0.3772 -0.2935 -0.1331
 3273TIP3    H131310   0.083   4.603   5.497  1.1268 -0.3058 -0.8214
 3273TIP3    H231311   0.080   4.744   5.553  1.1422  0.3298 -2.3654
 3274TIP3   OH231312   3.604   6.557   6.181  0.0361 -0.7419  0.4753
 3274TIP3    H131313   3.666   6.502   6.229  0.9638  0.4624  0.6934
 3274TIP3    H231314   3.564   6.612   6.248  1.2458  0.8602 -0.0527
 3275TIP3   OH231315   3.954   1.699  15.665 -0.3395 -0.2816 -0.0598
 3275TIP3    H131316   3.888   1.650  15.616 -0.2530  0.8758 -1.4204
 3275TIP3    H231317   3.927   1.693  15.756 -0.6070 -2.3933 -0.2305
 3276TIP3   OH231318   6.391   1.505  16.167  0.5255 -0.5249 -0.2449
 3276TIP3    H131319   6.442   1.581  16.196 -0.6485  0.3704 -0.4472
 3276TIP3    H231320   6.453   1.432  16.171  1.3794  0.2243  1.0192
 3277TIP3   OH231321   1.019   3.928  16.828  0.7663 -0.5620 -0.1863
 3277TIP3    H131322   0.946   3.905  16.770  0.5731  1.9485 -1.0325
 3277TIP3    H231323   1.084   3.860  16.811  0.5871 -0.1289 -3.1701
 3278TIP3   OH231324   4.521   1.042  14.168 -0.0959  0.6277  0.1310
 3278TIP3    H131325   4.501   0.963  14.117 -0.7855  0.2416  0.9641
 3278TIP3    H231326   4.585   1.090  14.115 -0.0868 -0.2192 -0.6457
 3279TIP3   OH231327   5.131   4.238   1.221  0.3482  0.0296 -0.2437
 3279TIP3    H131328   5.144   4.168   1.157  0.7897 -0.8824  0.8059
 3279TIP3    H231329   5.209   4.233   1.277  1.1936  2.4113 -1.0698
 3280TIP3   OH231330   0.843   3.906  14.295 -0.4711  0.8175  0.1245
 3280TIP3    H131331   0.905   3.976  14.276 -0.0386 -0.0609 -1.9488
 3280TIP3    H231332   0.802   3.932  14.378 -0.9043  3.8920 -0.9401
 3281TIP3   OH231333   4.088   5.237  15.576 -0.0261  0.0554  0.2418
 3281TIP3    H131334   4.170   5.217  15.621  0.2462 -1.2478 -0.7506
 3281TIP3    H231335   4.020   5.221  15.641  0.4780  0.6367  0.9204
 3282TIP3   OH231336   0.343   3.596  14.234 -0.5597  0.4968 -0.5761
 3282TIP3    H131337   0.425   3.593  14.284 -1.6477  1.8723  1.4242
 3282TIP3    H231338   0.363   3.548  14.154  1.2823 -1.9687  1.1700
 3283TIP3   OH231339   4.050   5.996  16.287  0.2809 -0.1811  0.1270
 3283TIP3    H131340   4.104   5.926  16.251  0.8550  0.6546 -0.7089
 3283TIP3    H231341   4.004   5.956  16.361  1.6220 -1.0744  0.5233
 3284TIP3   OH231342   3.549   2.456   0.129 -0.2021 -0.0538 -0.3190
 3284TIP3    H131343   3.621   2.503   0.088 -0.1108  0.0624 -0.0311
 3284TIP3    H231344   3.505   2.523   0.183 -0.0179 -0.3204  0.1636
 3285TIP3   OH231345   6.210   0.016   4.644 -0.0272 -0.0202 -0.0331
 3285TIP3    H131346   6.119   0.004   4.616 -0.1957 -0.7947  0.7998
 3285TIP3    H231347   6.230   0.107   4.620 -0.6887 -0.1415 -1.1158
 3286TIP3   OH231348   1.796   1.686  11.982  0.4410 -0.1085  0.1286
 3286TIP3    H131349   1.797   1.691  11.887  1.5793 -1.2552  0.0465
 3286TIP3    H231350   1.740   1.610  12.002 -0.1114  0.3621  0.3955
 3287TIP3   OH231351   5.784   4.075  12.163 -0.3725 -0.0819  0.5928
 3287TIP3    H131352   5.855   4.033  12.114  1.4230  2.1286  1.1325
 3287TIP3    H231353   5.764   4.154  12.114 -1.7904 -0.1409  1.0239
 3288TIP3   OH231354   6.556   5.481   2.577  0.2989 -0.1162  0.2194
 3288TIP3    H131355   6.486   5.421   2.604 -0.5412  0.0191 -1.5275
 3288TIP3    H231356   6.558   5.547   2.647 -0.3331 -0.8987  1.0095
 3289TIP3   OH231357   5.704   2.107  11.147 -0.1950 -0.4781  0.0064
 3289TIP3    H131358   5.765   2.048  11.103 -0.8882 -0.6496 -0.7438
 3289TIP3    H231359   5.625   2.055  11.160 -0.3970 -0.0791  0.4268
 3290TIP3   OH231360   2.433   4.282  15.343 -0.2434  0.4017  0.1203
 3290TIP3    H131361   2.390   4.366  15.327  0.3840  0.8267  0.6145
 3290TIP3    H231362   2.364   4.217  15.333 -0.5924  0.9088 -0.9900
 3291TIP3   OH231363   6.742   3.034   4.565 -0.1195 -0.1621  0.0914
 3291TIP3    H131364   6.716   3.126   4.564  1.0401  0.2160 -2.2375
 3291TIP3    H231365   6.671   2.989   4.609  0.7143  2.1829  4.4194
 3292TIP3   OH231366   0.677   1.268  16.268 -0.2917  0.4019  0.5472
 3292TIP3    H131367   0.761   1.306  16.295  1.6061 -2.7188 -0.3704
 3292TIP3    H231368   0.634   1.338  16.219  1.7641  2.1636  1.0787
 3293TIP3   OH231369   4.364   3.582   4.817  0.0058 -0.0844  0.1985
 3293TIP3    H131370   4.277   3.575   4.776  0.1510 -0.4091 -0.0506
 3293TIP3    H231371   4.396   3.668   4.788  0.6024 -0.8012 -1.3461
 3294TIP3   OH231372   6.533   6.204  15.802 -0.3113  0.3648  0.5653
 3294TIP3    H131373   6.452   6.158  15.825 -0.4974 -0.0830 -0.9133
 3294TIP3    H231374   6.602   6.140  15.817 -0.4764 -0.0862 -0.5044
 3295TIP3   OH231375   5.616   0.980  14.801 -0.4594  0.1377 -0.2198
 3295TIP3    H131376   5.592   1.052  14.741 -0.0213 -0.8859 -1.6682
 3295TIP3    H231377   5.653   0.913  14.744 -0.8569 -1.2506  1.1137
 3296TIP3   OH231378   2.027   2.992  12.457 -0.4609 -0.0448 -0.6907
 3296TIP3    H131379   2.098   2.969  12.398 -0.4018 -0.2136 -0.5542
 3296TIP3    H231380   2.054   2.957  12.542 -0.7056 -0.1093 -0.6383
 3297TIP3   OH231381   3.263   3.102   3.398 -0.1788  0.1224  0.0049
 3297TIP3    H131382   3.342   3.051   3.380  0.3632  1.1047 -0.4563
 3297TIP3    H231383   3.197   3.036   3.422  0.3922 -0.8332 -0.9540
 3298TIP3   OH231384   6.605   0.518  15.482  0.3562  0.0567 -0.1579
 3298TIP3    H131385   6.642   0.563  15.558  2.7214  1.3000 -1.9316
 3298TIP3    H231386   6.542   0.579  15.446  1.3306  0.7010 -0.8049
 3299TIP3   OH231387   3.036   4.322   3.649  0.0347 -0.1152  0.2654
 3299TIP3    H131388   3.056   4.287   3.736  1.7217 -3.4829 -1.2797
 3299TIP3    H231389   2.958   4.274   3.621  1.6211 -1.9217 -1.3898
 3300TIP3   OH231390   1.398   3.817  15.378 -0.1001 -0.2493 -0.3494
 3300TIP3    H131391   1.342   3.814  15.455  0.0689 -1.3247 -0.2467
 3300TIP3    H231392   1.475   3.867  15.405 -1.5206  2.3827 -0.8775
 3301TIP3   OH231393   0.503   2.765  16.665 -0.5625  0.4524  0.1880
 3301TIP3    H131394   0.503   2.694  16.600  0.4551 -0.6087  1.3140
 3301TIP3    H231395   0.413   2.766  16.699 -0.5403 -0.4463  0.3006
 3302TIP3   OH231396   2.680   2.809   3.799 -0.1332  0.2143  0.0578
 3302TIP3    H131397   2.756   2.749   3.800  1.1968  1.8363  0.2925
 3302TIP3    H231398   2.608   2.755   3.767  0.8802 -1.6616  0.7526
 3303TIP3   OH231399   5.357   6.791  11.509  0.1251 -0.2481  0.1837
 3303TIP3    H131400   5.442   6.830  11.529 -0.4995  0.5127  1.5509
 3303TIP3    H231401   5.311   6.790  11.593 -0.5194 -2.4469 -0.1427
 3304TIP3   OH231402   6.239   5.385  13.777  0.4185 -0.3307  0.0824
 3304TIP3    H131403   6.237   5.436  13.696 -1.5702 -1.6624 -0.7863
 3304TIP3    H231404   6.289   5.306  13.755  0.0081 -0.6233  0.1842
 3305TIP3   OH231405   2.556   4.656   3.315  0.6834 -0.2292  0.1245
 3305TIP3    H131406   2.650   4.642   3.309  0.8608  0.5751  0.8236
 3305TIP3    H231407   2.522   4.628   3.230  1.6776  0.3677 -0.4842
 3306TIP3   OH231408   0.709   1.215  14.063 -0.2070  0.1277 -0.3209
 3306TIP3    H131409   0.755   1.134  14.086  1.6846  1.0592 -0.6972
 3306TIP3    H231410   0.632   1.215  14.119 -0.3317 -2.0015 -0.4146
 3307TIP3   OH231411   3.526   0.965  14.795 -0.5346  0.9724  0.0824
 3307TIP3    H131412   3.481   1.019  14.729  2.1549  0.8078 -2.0616
 3307TIP3    H231413   3.560   1.028  14.858 -0.2699  1.4935 -0.5592
 3308TIP3   OH231414   1.704   0.054   5.403  0.1741  0.2169 -0.4975
 3308TIP3    H131415   1.759   0.087   5.332  0.7376 -0.6255 -0.4770
 3308TIP3    H231416   1.752  -0.022   5.436 -0.7299 -0.1918 -0.0930
 3309TIP3   OH231417   2.756   4.201   3.903  0.3283 -0.5814 -0.1020
 3309TIP3    H131418   2.754   4.264   3.975  0.8186 -0.8262  0.1287
 3309TIP3    H231419   2.703   4.242   3.834 -0.6300 -0.6029  0.5981
 3310TIP3   OH231420   1.894   5.306   4.210  0.7423 -0.0797  0.0135
 3310TIP3    H131421   1.952   5.295   4.135 -0.2483  0.1609 -0.7966
 3310TIP3    H231422   1.910   5.228   4.264 -0.1043 -1.3607 -1.5257
 3311TIP3   OH231423   2.532   4.605  13.099 -0.5412 -0.3123 -0.4161
 3311TIP3    H131424   2.604   4.606  13.036 -0.4166 -2.0202 -0.3271
 3311TIP3    H231425   2.484   4.687  13.082  2.0501  1.4759  0.3123
 3312TIP3   OH231426   0.177   3.831   2.514  0.0253 -0.3087  0.2068
 3312TIP3    H131427   0.122   3.762   2.475  0.4989  0.0658 -1.1683
 3312TIP3    H231428   0.163   3.907   2.459 -0.8160  0.8681  1.9602
 3313TIP3   OH231429   2.423   3.320  16.732  0.5172 -1.0881  0.1768
 3313TIP3    H131430   2.404   3.379  16.805  0.7354 -3.0953  1.9604
 3313TIP3    H231431   2.395   3.234  16.763 -0.0943 -1.9113 -2.4352
 3314TIP3   OH231432   2.750   4.330   4.543 -0.3866  0.6335  0.2183
 3314TIP3    H131433   2.700   4.306   4.621 -0.0325 -2.9622 -0.4966
 3314TIP3    H231434   2.718   4.271   4.475  2.4600  0.4792 -1.1397
 3315TIP3   OH231435   4.579   5.193   4.213  0.4759 -0.2287  0.5729
 3315TIP3    H131436   4.560   5.181   4.306 -2.1521 -2.2462 -0.0839
 3315TIP3    H231437   4.522   5.264   4.185 -0.7570 -1.3890  0.0334
 3316TIP3   OH231438   3.027   2.446  12.467  0.0316  0.0207  0.2624
 3316TIP3    H131439   2.941   2.410  12.442  1.3396 -1.7669 -2.0705
 3316TIP3    H231440   3.016   2.472  12.558 -2.1854 -2.8611  0.9692
 3317TIP3   OH231441   6.483   2.782  16.422  0.0564  0.6508 -0.0485
 3317TIP3    H131442   6.458   2.691  16.437 -0.5765  0.9678  0.8816
 3317TIP3    H231443   6.575   2.777  16.395  0.1309 -0.2353  0.3428
 3318TIP3   OH231444   1.067   4.067   3.866  0.3785  0.3537  0.2192
 3318TIP3    H131445   1.156   4.093   3.841 -0.1664 -0.2062 -2.5860
 3318TIP3    H231446   1.011   4.110   3.802 -1.1149 -1.7186  0.0660
 3319TIP3   OH231447   2.925   5.487  16.914  0.1834  0.1399 -0.2601
 3319TIP3    H131448   2.847   5.517  16.962  0.9659  0.7862  0.6419
 3319TIP3    H231449   2.906   5.507  16.822 -1.8967 -2.2960 -0.4797
 3320TIP3   OH231450   2.240   3.495   2.619  0.1020  0.3262 -0.1044
 3320TIP3    H131451   2.232   3.437   2.543 -1.3597 -0.8582  0.8909
 3320TIP3    H231452   2.334   3.498   2.637  0.2722 -1.1835 -0.6107
 3321TIP3   OH231453   1.588   2.967   4.718  0.5268 -0.1710 -0.3062
 3321TIP3    H131454   1.549   3.009   4.795  0.1242 -0.7501 -0.1915
 3321TIP3    H231455   1.663   2.919   4.753  0.7933  0.1745 -0.3914
 3322TIP3   OH231456   6.138   0.424  17.040  0.7377  0.2046  0.0213
 3322TIP3    H131457   6.127   0.333  17.068  1.5301 -0.3307 -1.3341
 3322TIP3    H231458   6.050   0.454  17.020  0.3826 -0.0034  1.1782
 3323TIP3   OH231459   4.236   4.950  13.590  0.5514  0.5336 -0.3789
 3323TIP3    H131460   4.238   4.937  13.495  1.0529 -0.8406 -0.1939
 3323TIP3    H231461   4.151   4.991  13.606  0.5077  0.8985 -1.4296
 3324TIP3   OH231462   6.403   3.369   4.734 -0.2398  0.2319 -0.2754
 3324TIP3    H131463   6.453   3.408   4.663 -1.0524  0.5564 -0.6744
 3324TIP3    H231464   6.312   3.372   4.705 -0.6117  0.5541  0.8622
 3325TIP3   OH231465   5.379   2.503  15.662 -0.2935  0.1217 -0.1552
 3325TIP3    H131466   5.313   2.444  15.625 -1.4117 -0.5975  2.7270
 3325TIP3    H231467   5.355   2.589  15.628 -0.4856 -0.6053 -2.0045
 3326TIP3   OH231468   3.009   1.476   6.164  0.3321  0.6749  0.6320
 3326TIP3    H131469   3.002   1.487   6.258  0.8241 -2.1170  1.0679
 3326TIP3    H231470   2.920   1.453   6.136  0.5129 -0.1599  0.7102
 3327TIP3   OH231471   4.125   6.423  13.361  0.5642 -0.0871  0.0772
 3327TIP3    H131472   4.126   6.515  13.335  0.2171  0.1830  0.9814
 3327TIP3    H231473   4.077   6.422  13.444 -0.1455 -1.1916 -0.3259
 3328TIP3   OH231474   2.071   2.993  11.777  0.2856  0.2485 -0.1384
 3328TIP3    H131475   2.088   3.052  11.704  1.2270 -0.3332 -0.4082
 3328TIP3    H231476   1.986   2.954  11.757 -1.5804  3.2289  1.2499
 3329TIP3   OH231477   4.873   4.220   3.024 -0.3949 -0.1475 -0.3622
 3329TIP3    H131478   4.817   4.297   3.034 -0.5171  0.0218 -2.0660
 3329TIP3    H231479   4.939   4.229   3.092 -1.5077  0.4662  0.6785
 3330TIP3   OH231480   5.750   0.382  13.735 -0.5253  0.4848 -0.5239
 3330TIP3    H131481   5.678   0.366  13.796 -0.3219 -0.6376 -0.5571
 3330TIP3    H231482   5.821   0.415  13.791 -1.2037  2.0952 -0.5663
 3331TIP3   OH231483   1.526   6.265   2.037  0.7129  0.0587  0.0209
 3331TIP3    H131484   1.597   6.263   1.973  0.1253  1.4420 -0.7154
 3331TIP3    H231485   1.568   6.289   2.119  1.4467 -1.5516  0.1713
 3332TIP3   OH231486   1.878   0.962  16.851  0.2210 -0.3457 -0.0372
 3332TIP3    H131487   1.928   0.904  16.908 -0.1210 -1.9722 -1.3229
 3332TIP3    H231488   1.906   1.050  16.876  0.5477 -1.0119  2.1773
 3333TIP3   OH231489   4.415   0.783   5.265  0.4508 -0.3693  0.0114
 3333TIP3    H131490   4.465   0.784   5.347 -0.0420  0.1603  0.3128
 3333TIP3    H231491   4.473   0.823   5.201  1.6339 -2.5505 -0.3999
 3334TIP3   OH231492   1.134   0.696  16.898  0.3288 -0.0523 -0.0916
 3334TIP3    H131493   1.115   0.711  16.805 -2.5342 -0.9253  0.2500
 3334TIP3    H231494   1.201   0.761  16.919  0.9789  0.2548 -2.7219
 3335TIP3   OH231495   2.624   5.771   3.643  0.0803  0.1978  0.7873
 3335TIP3    H131496   2.680   5.716   3.588  0.2079 -1.8011  2.7758
 3335TIP3    H231497   2.555   5.801   3.583  0.9270 -0.7629 -0.7505
 3336TIP3   OH231498   5.768   0.913  15.011  0.0761 -0.4307  0.2196
 3336TIP3    H131499   5.843   0.857  14.991 -0.9146 -1.6570 -0.1861
 3336TIP3    H231500   5.733   0.937  14.925 -0.8019 -1.0203  0.3955
 3337TIP3   OH231501   5.985   4.579   0.504  0.2625 -0.0226 -0.2783
 3337TIP3    H131502   6.014   4.545   0.420 -0.5733  1.1895 -1.0807
 3337TIP3    H231503   5.923   4.649   0.482 -1.3491 -0.8494  1.3414
 3338TIP3   OH231504   0.976   1.678  14.865  0.2227  0.1693 -0.2140
 3338TIP3    H131505   1.063   1.666  14.903  0.7269 -0.1115 -1.4089
 3338TIP3    H231506   0.920   1.702  14.939  0.7088 -2.3709  1.0801
 3339TIP3   OH231507   3.570   1.829   0.986  0.8092  0.5902 -0.0356
 3339TIP3    H131508   3.640   1.879   1.027 -0.0210  1.5836  0.2081
 3339TIP3    H231509   3.489   1.865   1.024  0.2061 -2.0684  1.4880
 3340TIP3   OH231510   1.572   2.189  16.833  0.2051 -0.2219 -0.4665
 3340TIP3    H131511   1.592   2.101  16.802 -1.3909 -0.6423 -0.4186
 3340TIP3    H231512   1.604   2.247  16.765  1.4468 -0.8174 -0.4115
 3341TIP3   OH231513   1.744   0.611  14.728  0.1274  0.1014 -0.0314
 3341TIP3    H131514   1.664   0.565  14.752  0.8359 -0.7524  0.7604
 3341TIP3    H231515   1.806   0.590  14.798  0.7363  1.5954 -0.0807
 3342TIP3   OH231516   4.947   1.156  14.763  0.4529 -0.3959  0.0471
 3342TIP3    H131517   4.961   1.101  14.841  1.8498  0.2418  0.2710
 3342TIP3    H231518   4.922   1.094  14.695  0.1932 -1.0864  0.7496
 3343TIP3   OH231519   0.547   3.680   5.152 -0.4601  0.0559 -0.2066
 3343TIP3    H131520   0.545   3.719   5.239  1.8277 -1.4784  0.6461
 3343TIP3    H231521   0.455   3.669   5.128 -1.1594  0.4405  2.0599
 3344TIP3   OH231522   4.841   1.021   0.785 -0.0008 -0.1277  0.0343
 3344TIP3    H131523   4.787   0.992   0.858 -0.0003 -0.7029 -0.1900
 3344TIP3    H231524   4.807   1.108   0.763 -0.3622 -0.1847  0.3613
 3345TIP3   OH231525   1.209   4.911  15.317 -0.4359 -0.0973  0.0161
 3345TIP3    H131526   1.244   4.893  15.404  3.5216  0.8885 -1.1731
 3345TIP3    H231527   1.197   5.005  15.315  2.9296  0.4542 -1.4120
 3346TIP3   OH231528   5.205   4.783   0.762 -0.4706 -0.2402  0.0324
 3346TIP3    H131529   5.125   4.835   0.772 -0.1879  0.1913  0.0993
 3346TIP3    H231530   5.238   4.772   0.851 -0.3920 -0.3160 -0.0056
 3347TIP3   OH231531   2.032   5.218  10.767  0.5840 -0.0002 -0.0813
 3347TIP3    H131532   2.032   5.158  10.692 -0.6480 -2.2182  1.5749
 3347TIP3    H231533   1.945   5.258  10.765  0.4326 -0.3100  0.3485
 3348TIP3   OH231534   2.831   1.963   1.772  0.5138  0.1474 -0.2092
 3348TIP3    H131535   2.858   1.968   1.863  1.6542  0.0780 -0.5198
 3348TIP3    H231536   2.759   2.025   1.764 -0.7730 -1.0745  1.1087
 3349TIP3   OH231537   4.273   6.613  15.776 -0.4158  0.0601  0.2595
 3349TIP3    H131538   4.239   6.701  15.790  0.1368  0.1097  1.4829
 3349TIP3    H231539   4.267   6.572  15.862  3.7096  0.4983  0.9554
 3350TIP3   OH231540   2.332   3.053  12.955 -0.6135 -0.6302 -0.8646
 3350TIP3    H131541   2.278   3.047  12.876  0.1690 -0.1475 -1.4518
 3350TIP3    H231542   2.291   2.993  13.017 -0.9067 -1.4408 -1.8304
 3351TIP3   OH231543   5.940   2.878   1.277 -0.0226 -0.1688 -0.0276
 3351TIP3    H131544   6.019   2.925   1.305  0.0520 -0.5103  0.3481
 3351TIP3    H231545   5.875   2.946   1.263  0.0321  0.0352  0.6760
 3352TIP3   OH231546   0.094   4.007  16.961  0.5050 -0.5102 -0.1921
 3352TIP3    H131547   0.070   4.049  17.044  1.2280  2.1742 -1.2131
 3352TIP3    H231548   0.175   3.960  16.980  0.6042 -0.0092  0.6630
 3353TIP3   OH231549   6.099   1.643  16.808  0.1159 -0.1439 -0.1278
 3353TIP3    H131550   6.089   1.569  16.749 -0.9055  0.8231 -1.2129
 3353TIP3    H231551   6.158   1.702  16.762  0.5155 -0.0457  0.5025
 3354TIP3   OH231552   5.244   1.107  15.604  0.7813 -0.0814 -0.2829
 3354TIP3    H131553   5.279   1.111  15.693 -0.4385  0.3564  0.2004
 3354TIP3    H231554   5.149   1.104  15.616  0.5405  1.2160 -1.6075
 3355TIP3   OH231555   5.189   2.260  11.179  0.4212 -0.0279 -0.4523
 3355TIP3    H131556   5.217   2.343  11.141  0.0263  1.0465  1.4493
 3355TIP3    H231557   5.093   2.268  11.186  0.4149 -0.4793  0.0567
 3356TIP3   OH231558   3.092   5.336  13.024  0.0006  0.3494  0.2985
 3356TIP3    H131559   3.106   5.412  13.082 -0.4585  1.4961 -1.0416
 3356TIP3    H231560   2.999   5.318  13.031 -0.0402  0.4391 -0.0165
 3357TIP3   OH231561   0.234   5.486  17.131  0.0888 -0.5497  0.4112
 3357TIP3    H131562   0.328   5.507  17.132 -0.0897  0.2546  0.5832
 3357TIP3    H231563   0.192   5.559  17.176 -0.6402 -0.8488  0.2346
 3358TIP3   OH231564   3.731   2.398   3.706 -0.1957 -0.3084  0.2167
 3358TIP3    H131565   3.802   2.460   3.693 -1.1479  1.0285  1.1461
 3358TIP3    H231566   3.709   2.368   3.618  1.1399 -0.3348 -0.1256
 3359TIP3   OH231567   1.422   2.328   4.794  0.0624  0.3094  0.4436
 3359TIP3    H131568   1.327   2.316   4.784 -0.1559  1.6310  0.7827
 3359TIP3    H231569   1.440   2.412   4.753  1.0510  0.1956  0.6270
 3360TIP3   OH231570   4.348   3.808  13.829  0.3497  0.6684 -0.0307
 3360TIP3    H131571   4.436   3.788  13.863  0.3772 -0.3126 -0.6568
 3360TIP3    H231572   4.302   3.846  13.904  0.6640 -0.7050  0.8908
 3361TIP3   OH231573   6.804   1.680   4.154  0.0618  0.4594  0.1322
 3361TIP3    H131574   6.804   1.585   4.170  1.4069  0.3631 -0.2911
 3361TIP3    H231575   6.790   1.688   4.060 -0.9467  0.7394  0.2913
 3362TIP3   OH231576   2.322   4.852  15.574  0.2412  0.3188 -0.3766
 3362TIP3    H131577   2.384   4.924  15.564  1.6846 -0.8777 -0.5397
 3362TIP3    H231578   2.268   4.854  15.495  1.6442 -0.0001 -1.3859
 3363TIP3   OH231579   0.896   2.983   3.789  0.2798 -0.0112  0.5164
 3363TIP3    H131580   0.871   2.959   3.878 -1.2320  0.8873  0.3528
 3363TIP3    H231581   0.962   2.917   3.764  0.3979 -0.5327  2.1206
 3364TIP3   OH231582   3.613   2.746  12.782 -0.2728  0.1939  0.9274
 3364TIP3    H131583   3.582   2.731  12.872  0.6245 -0.6456  1.1244
 3364TIP3    H231584   3.694   2.695  12.777  1.5253  2.8790  0.6866
 3365TIP3   OH231585   4.761   6.603  12.240 -0.3881 -0.3632 -0.0490
 3365TIP3    H131586   4.680   6.651  12.222  1.1820  2.2358 -0.8507
 3365TIP3    H231587   4.762   6.593  12.335 -0.2733  2.4941  0.3640
 3366TIP3   OH231588   2.077   2.274   3.220 -0.2906 -0.1456 -0.1226
 3366TIP3    H131589   2.140   2.340   3.249 -0.1892 -0.1864 -0.2473
 3366TIP3    H231590   2.083   2.276   3.125 -2.2200  1.5360 -0.2650
 3367TIP3   OH231591   1.122   0.893   2.604  0.0756  0.4311  0.0345
 3367TIP3    H131592   1.037   0.923   2.572  1.1480  1.3047 -2.2268
 3367TIP3    H231593   1.185   0.931   2.543  2.0272 -1.1120  0.9751
 3368TIP3   OH231594   2.967   2.228   6.054 -0.2836  0.3473 -0.1918
 3368TIP3    H131595   2.968   2.278   5.973 -1.2266 -0.2837 -0.6070
 3368TIP3    H231596   3.051   2.248   6.096  0.2450  0.6291 -1.3510
 3369TIP3   OH231597   2.427   1.381  16.704  0.1339  0.6182 -0.9502
 3369TIP3    H131598   2.455   1.299  16.663 -1.6237 -0.0769 -0.8314
 3369TIP3    H231599   2.421   1.361  16.797 -2.6539  0.0773 -1.1476
 3370TIP3   OH231600   3.809   4.420   4.821 -0.0237  0.0102  0.2656
 3370TIP3    H131601   3.721   4.415   4.858 -0.6354 -0.7645 -1.2217
 3370TIP3    H231602   3.866   4.386   4.890 -0.8905  0.3801  1.1882
 3371TIP3   OH231603   3.998   1.882   5.909  0.0475 -0.3843  0.5236
 3371TIP3    H131604   4.020   1.835   5.989  3.5000  1.0501  0.5537
 3371TIP3    H231605   4.001   1.814   5.841  0.4767 -1.0054  1.1443
 3372TIP3   OH231606   1.790   1.314   4.195 -0.1882  0.8585 -0.2077
 3372TIP3    H131607   1.757   1.238   4.242 -0.7323  2.0027  1.3417
 3372TIP3    H231608   1.884   1.316   4.216  0.0873 -0.0539 -1.2613
 3373TIP3   OH231609   1.574   4.075   2.694 -0.3163 -0.5260  0.5513
 3373TIP3    H131610   1.493   4.078   2.643  0.3408 -0.6452 -0.5335
 3373TIP3    H231611   1.562   4.141   2.762 -2.5283 -2.5221  2.3198
 3374TIP3   OH231612   6.662   6.833   1.012 -0.0762 -0.7838  0.2424
 3374TIP3    H131613   6.685   6.792   0.928 -0.0016  1.3052 -0.8017
 3374TIP3    H231614   6.747   6.854   1.052 -0.1173  0.0386 -0.0949
 3375TIP3   OH231615   6.637   5.632  11.330 -0.0450 -0.4081 -0.0236
 3375TIP3    H131616   6.615   5.693  11.400  0.4194  0.0171 -0.2435
 3375TIP3    H231617   6.555   5.586  11.313  0.0903 -1.2651  1.5034
 3376TIP3   OH231618   1.939   4.882   3.677 -0.0204  0.2679 -0.1572
 3376TIP3    H131619   1.948   4.828   3.599  1.1428 -0.4122  0.4208
 3376TIP3    H231620   1.952   4.822   3.750  0.2777  1.1323  0.5274
 3377TIP3   OH231621   0.158   2.272  13.199 -0.4764 -0.3080 -0.3383
 3377TIP3    H131622   0.180   2.187  13.237 -1.2986 -0.7341 -0.7885
 3377TIP3    H231623   0.156   2.332  13.273  0.2335 -0.6543 -0.0341
 3378TIP3   OH231624   6.466   5.121  11.921  0.0108  0.1778  0.0095
 3378TIP3    H131625   6.486   5.214  11.932 -0.9585  0.2239  1.7563
 3378TIP3    H231626   6.376   5.120  11.887  0.3089 -0.1216 -0.7890
 3379TIP3   OH231627   0.412   4.123   3.483  0.1688  0.1334  0.3972
 3379TIP3    H131628   0.502   4.101   3.507  0.6125 -0.0675 -1.2989
 3379TIP3    H231629   0.419   4.207   3.437 -0.4773  0.0144  0.0684
 3380TIP3   OH231630   4.742   3.384   1.117  0.3040  0.0385  0.0075
 3380TIP3    H131631   4.779   3.372   1.030 -0.3686 -2.1809 -0.0420
 3380TIP3    H231632   4.781   3.314   1.170 -1.2789 -0.3195  0.7848
 3381TIP3   OH231633   0.226   1.229   1.494 -0.5469  0.3497  0.8343
 3381TIP3    H131634   0.255   1.311   1.534 -0.8473 -0.1286  2.0599
 3381TIP3    H231635   0.304   1.172   1.497 -0.8917 -0.0891  1.8548
 3382TIP3   OH231636   1.787   0.752   1.339  0.1337 -0.0159 -0.1117
 3382TIP3    H131637   1.698   0.765   1.307  0.4736  0.4505 -0.8962
 3382TIP3    H231638   1.797   0.815   1.410 -0.1867 -0.1309  0.0369
 3383TIP3   OH231639   0.194   3.005   5.559 -1.0617  0.3010 -0.1212
 3383TIP3    H131640   0.244   3.003   5.641  0.3753  1.8170 -0.8916
 3383TIP3    H231641   0.107   3.036   5.584 -1.1318 -0.7455  1.0185
 3384TIP3   OH231642   1.617   3.419  11.853 -0.0375 -0.1548  0.5234
 3384TIP3    H131643   1.662   3.498  11.824 -0.4531 -0.7273 -1.9772
 3384TIP3    H231644   1.666   3.390  11.930  1.4059  1.3857  0.2476
 3385TIP3   OH231645   1.938   3.102  12.823 -0.4885  0.7831  0.2619
 3385TIP3    H131646   1.915   3.082  12.914 -0.4619 -0.7956 -0.0417
 3385TIP3    H231647   1.982   3.023  12.792 -0.7227  1.1950 -1.1988
 3386TIP3   OH231648   6.034   5.597  14.582  0.1940 -0.4040  0.7171
 3386TIP3    H131649   5.957   5.623  14.530 -1.5361 -2.4531  2.0825
 3386TIP3    H231650   6.077   5.530  14.528 -0.9527 -1.6976  1.3320
 3387TIP3   OH231651   0.651   0.521  12.514  0.0773  0.6360 -0.3213
 3387TIP3    H131652   0.630   0.610  12.542 -0.9089  0.6723 -1.0780
 3387TIP3    H231653   0.628   0.466  12.589 -3.4053  0.6293 -1.2278
 3388TIP3   OH231654   5.624   6.389  14.280  0.1879  0.1726 -0.0844
 3388TIP3    H131655   5.563   6.461  14.261 -1.6801 -0.8444  1.6569
 3388TIP3    H231656   5.697   6.431  14.325 -0.0113  1.2004 -0.6820
 3389TIP3   OH231657   1.126   4.798   4.215  0.0088  0.1885  0.3168
 3389TIP3    H131658   1.046   4.835   4.253  0.6543  1.1246  0.7959
 3389TIP3    H231659   1.158   4.866   4.156 -0.7905 -1.1000 -1.7405
 3390TIP3   OH231660   5.776   3.989  13.280  0.0145  0.2142 -0.6744
 3390TIP3    H131661   5.771   3.895  13.297  0.0728  0.2734 -0.3132
 3390TIP3    H231662   5.701   4.007  13.223  1.3618 -0.4604 -2.7629
 3391TIP3   OH231663   0.233   3.874  10.657 -0.3354 -1.0889 -0.0622
 3391TIP3    H131664   0.310   3.931  10.658 -1.2725  0.2317 -0.1579
 3391TIP3    H231665   0.249   3.811  10.727  0.5649 -0.4752  0.3034
 3392TIP3   OH231666   3.831   5.368   1.983  0.2401  0.3329  0.2982
 3392TIP3    H131667   3.820   5.451   1.935  0.5346  1.6568  2.3945
 3392TIP3    H231668   3.749   5.357   2.030 -0.6352 -1.7353 -1.5162
 3393TIP3   OH231669   2.065   4.478  15.691  0.4344  0.1745  0.7602
 3393TIP3    H131670   2.064   4.398  15.639  0.6971  0.1338  0.8178
 3393TIP3    H231671   2.018   4.542  15.637  1.0674  0.2465  0.2834
 3394TIP3   OH231672   0.425   2.643  13.871  0.0381  0.9231 -0.2221
 3394TIP3    H131673   0.438   2.554  13.903 -0.3226  0.6458 -0.8210
 3394TIP3    H231674   0.404   2.694  13.948  0.0608  0.4517  0.0993
 3395TIP3   OH231675   2.805   2.397   2.176 -0.3699  0.2266  0.4369
 3395TIP3    H131676   2.872   2.442   2.227  1.3617  0.4777 -1.8909
 3395TIP3    H231677   2.727   2.452   2.185  0.6885  1.7927  0.4920
 3396TIP3   OH231678   4.063   0.959  16.235 -0.8598  0.1504  0.1607
 3396TIP3    H131679   4.048   1.032  16.296  2.4308  0.6501  0.5619
 3396TIP3    H231680   4.066   1.001  16.149  0.8470  0.5100  0.3718
 3397TIP3   OH231681   4.403   0.084   2.956 -0.2252  0.7044 -0.1366
 3397TIP3    H131682   4.431   0.175   2.960 -0.7247  0.9000 -0.9078
 3397TIP3    H231683   4.333   0.078   3.022  0.9123  0.4575  1.0828
 3398TIP3   OH231684   5.119   3.222   5.388  0.1895 -0.0665  0.8662
 3398TIP3    H131685   5.061   3.236   5.313  1.0970  0.2247  0.2019
 3398TIP3    H231686   5.075   3.265   5.461 -0.9645 -0.8002  0.6333
 3399TIP3   OH231687   1.336   1.354  14.197  0.2455 -0.3441  0.4722
 3399TIP3    H131688   1.400   1.407  14.151 -0.0012 -0.9682 -0.6158
 3399TIP3    H231689   1.376   1.337  14.283  0.6273  0.9701  0.5685
 3400TIP3   OH231690   1.236   5.237   1.936  0.3877  0.3267 -0.4409
 3400TIP3    H131691   1.271   5.243   2.025 -1.2830 -1.2949  0.3860
 3400TIP3    H231692   1.290   5.169   1.894 -1.1608 -1.6689  0.6119
 3401TIP3   OH231693   3.719   0.308   6.000  0.1781  0.1947  0.1642
 3401TIP3    H131694   3.763   0.388   6.030  0.1109 -0.0681  0.9856
 3401TIP3    H231695   3.639   0.339   5.956  0.2047  0.5818  0.3889
 3402TIP3   OH231696   1.477   3.453  13.139  0.3198 -0.2187 -0.2080
 3402TIP3    H131697   1.534   3.472  13.064  0.9472  1.2800  0.6086
 3402TIP3    H231698   1.389   3.475  13.109  0.6868  1.3677 -0.2305
 3403TIP3   OH231699   5.671   0.585  12.820  0.0829  0.2213  0.1468
 3403TIP3    H131700   5.749   0.632  12.792  0.5293 -0.4925  0.1847
 3403TIP3    H231701   5.703   0.518  12.880 -0.5072 -0.3185 -0.1268
 3404TIP3   OH231702   5.525   1.370  13.535  0.1693  0.0236 -0.6319
 3404TIP3    H131703   5.545   1.439  13.599  0.0047  0.8310 -1.4387
 3404TIP3    H231704   5.533   1.288  13.585 -0.6613  0.6674  0.6130
 3405TIP3   OH231705   3.121   1.732   2.875 -1.1233 -0.7197  0.6082
 3405TIP3    H131706   3.171   1.802   2.835 -0.4845 -0.7986  1.2527
 3405TIP3    H231707   3.042   1.725   2.821 -1.1258  0.3850  0.4543
 3406TIP3   OH231708   3.203   6.462   4.736 -0.4172 -0.0833 -0.2952
 3406TIP3    H131709   3.116   6.433   4.709 -0.2338  1.3208 -2.6212
 3406TIP3    H231710   3.219   6.542   4.686  2.2214 -0.3036  0.0327
 3407TIP3   OH231711   4.763   6.456  15.572 -0.3883 -0.5226 -0.2942
 3407TIP3    H131712   4.688   6.408  15.606 -0.6141 -0.8617 -1.2383
 3407TIP3    H231713   4.732   6.547  15.566 -0.4853 -0.5358 -0.0141
 3408TIP3   OH231714   4.616   1.842  12.979 -0.2656  0.1388  0.2689
 3408TIP3    H131715   4.680   1.830  13.050 -0.2994 -0.9667  0.1168
 3408TIP3    H231716   4.601   1.754  12.945  0.1462  0.7107 -1.4716
 3409TIP3   OH231717   3.480   4.671   3.101  0.0312 -0.1207  0.1742
 3409TIP3    H131718   3.508   4.643   3.014  2.8865  2.6076  0.0392
 3409TIP3    H231719   3.415   4.606   3.127  0.6502 -2.2880 -3.0587
 3410TIP3   OH231720   5.493   0.006   3.877  0.3093 -0.5305  0.1184
 3410TIP3    H131721   5.472   0.098   3.863 -0.4957 -0.6769  0.3000
 3410TIP3    H231722   5.499  -0.032   3.790 -1.3330 -0.7170  0.0488
 3411TIP3   OH231723   4.606   4.927   4.145 -0.0557 -0.0458 -0.5131
 3411TIP3    H131724   4.695   4.899   4.162  0.6414  1.5266 -1.3397
 3411TIP3    H231725   4.608   5.022   4.158 -1.3198  0.1636 -1.6631
 3412TIP3   OH231726   5.871   3.124  11.442 -0.2023 -0.1174  0.1006
 3412TIP3    H131727   5.805   3.170  11.389  0.3564 -0.1310 -0.6186
 3412TIP3    H231728   5.940   3.189  11.456 -0.7174  0.1629  1.5543
 3413TIP3   OH231729   6.706   3.197   4.169 -0.0575 -0.0950 -0.2340
 3413TIP3    H131730   6.778   3.172   4.111  0.8671 -1.3887  1.4016
 3413TIP3    H231731   6.635   3.136   4.147  0.6231 -1.2268  0.5961
 3414TIP3   OH231732   0.303   0.428  11.076  0.2145  0.0908  0.6496
 3414TIP3    H131733   0.274   0.421  10.985  1.0489  1.1946  0.2762
 3414TIP3    H231734   0.395   0.399  11.074 -0.0543 -0.8764  1.3449
 3415TIP3   OH231735   0.598   3.342   5.574  0.0211 -0.2927 -0.9527
 3415TIP3    H131736   0.689   3.329   5.550  0.4578 -2.5974  1.4755
 3415TIP3    H231737   0.595   3.430   5.611  1.1655 -0.0718 -1.3574
 3416TIP3   OH231738   1.696   5.547  11.073 -0.7453 -0.1023  0.2095
 3416TIP3    H131739   1.649   5.607  11.017 -0.2080 -1.2042 -1.4871
 3416TIP3    H231740   1.747   5.492  11.013  2.3492  0.6919  1.8762
 3417TIP3   OH231741   6.209   0.297   0.922 -0.3050 -0.3844  0.3092
 3417TIP3    H131742   6.117   0.298   0.895 -0.5329 -0.1894  1.0888
 3417TIP3    H231743   6.207   0.295   1.017  0.5003 -2.1777  0.3325
 3418TIP3   OH231744   5.263   4.029  11.937 -0.1358 -0.0525  0.0492
 3418TIP3    H131745   5.228   4.055  12.022 -0.3786 -1.7435  0.5020
 3418TIP3    H231746   5.229   3.940  11.924 -1.2349  0.6321 -2.4238
 3419TIP3   OH231747   3.310   3.136   5.484 -0.4969  0.1500  0.4218
 3419TIP3    H131748   3.386   3.181   5.520 -0.3490  0.0048  0.2916
 3419TIP3    H231749   3.268   3.201   5.428  0.8302 -0.4484 -1.3751
 3420TIP3   OH231750   0.715   6.628  12.715 -0.0436 -0.2024 -0.2671
 3420TIP3    H131751   0.700   6.535  12.729 -0.7403 -0.0160  0.3013
 3420TIP3    H231752   0.694   6.669  12.800  1.9515  0.2914  0.0427
 3421TIP3   OH231753   0.116   2.811  15.535  0.3859  0.1859 -0.3818
 3421TIP3    H131754   0.066   2.738  15.498  1.4190 -1.6077  1.5425
 3421TIP3    H231755   0.186   2.827  15.472  0.2402 -0.5855 -0.7445
 3422TIP3   OH231756   6.211   1.897   5.507 -0.1540  0.5032  0.3708
 3422TIP3    H131757   6.197   1.962   5.576 -0.2390  0.8596  0.0239
 3422TIP3    H231758   6.273   1.835   5.545  0.9350  1.4984  0.2542
 3423TIP3   OH231759   5.129   3.860  15.767 -0.4900 -0.2034  0.4573
 3423TIP3    H131760   5.164   3.933  15.717 -1.0434  0.4278  0.9675
 3423TIP3    H231761   5.206   3.807  15.788 -0.2681 -0.5846 -1.1851
 3424TIP3   OH231762   6.779   4.943   3.316 -0.1815 -0.0314  1.1244
 3424TIP3    H131763   6.691   4.921   3.286  0.7695 -1.6738 -0.6746
 3424TIP3    H231764   6.795   5.031   3.282 -0.3763 -0.5542 -0.3725
 3425TIP3   OH231765   3.844   4.397   0.621  0.1494  0.2287  0.2865
 3425TIP3    H131766   3.776   4.434   0.564  0.9272 -0.2525 -0.9886
 3425TIP3    H231767   3.865   4.467   0.682 -1.3695  0.4463  0.5964
 3426TIP3   OH231768   1.319   0.529   4.429 -0.5724  0.2167  0.4780
 3426TIP3    H131769   1.339   0.499   4.340 -0.9557  1.5430 -0.0968
 3426TIP3    H231770   1.226   0.552   4.425 -1.3053 -2.2079  1.9938
 3427TIP3   OH231771   2.286   1.341   4.273  0.0185  0.0568  0.1117
 3427TIP3    H131772   2.326   1.309   4.354  2.8348  0.9040 -0.8613
 3427TIP3    H231773   2.193   1.319   4.283  0.1421  0.5896  3.7638
 3428TIP3   OH231774   4.535   6.042   0.083 -0.3192 -0.0355 -0.3572
 3428TIP3    H131775   4.591   5.970   0.053 -0.4057  0.1258 -0.9025
 3428TIP3    H231776   4.446   6.009   0.071 -0.3508 -0.1861  0.2540
 3429TIP3   OH231777   1.427   3.482  13.602 -0.9840  0.0634  0.2306
 3429TIP3    H131778   1.336   3.484  13.629 -1.0232  0.0100  0.1031
 3429TIP3    H231779   1.461   3.399  13.635 -1.7758 -1.3466 -2.2664
 3430TIP3   OH231780   0.136   6.248  13.607  0.1941 -0.1120 -0.7172
 3430TIP3    H131781   0.044   6.236  13.631  0.1636  1.1734 -0.1033
 3430TIP3    H231782   0.175   6.291  13.683  0.8214  1.1974 -1.7353
 3431TIP3   OH231783   6.816   1.282   4.790  0.5227  0.3891  0.5164
 3431TIP3    H131784   6.874   1.212   4.758  0.6062  1.0686 -0.8895
 3431TIP3    H231785   6.757   1.238   4.852  0.3567 -1.0136 -0.5828
 3432TIP3   OH231786   3.179   1.826  13.604 -0.1590 -0.0783  0.3665
 3432TIP3    H131787   3.128   1.816  13.685 -1.5143 -0.3427 -0.4792
 3432TIP3    H231788   3.211   1.916  13.607 -1.0665  0.2496  0.7281
 3433TIP3   OH231789   0.616   5.285  10.923  0.2441 -0.1828 -0.6825
 3433TIP3    H131790   0.677   5.213  10.935 -0.6780 -1.0851 -1.2452
 3433TIP3    H231791   0.573   5.267  10.840 -2.5777 -0.9746  0.8190
 3434TIP3   OH231792   3.800   5.477   4.051  0.0652  0.2707 -0.0466
 3434TIP3    H131793   3.795   5.420   3.974  0.2233  1.8632 -1.2908
 3434TIP3    H231794   3.836   5.559   4.018 -3.0946  2.2510  0.9657
 3435TIP3   OH231795   0.240   3.673  11.218  0.2821  0.1642  0.0489
 3435TIP3    H131796   0.296   3.752  11.220  1.3827 -0.6054  1.1842
 3435TIP3    H231797   0.275   3.622  11.145 -0.3640  0.6545 -0.6205
 3436TIP3   OH231798   3.901   6.827   2.619  0.3464  0.0622  0.2663
 3436TIP3    H131799   3.976   6.786   2.663  1.3576  0.4913 -0.9969
 3436TIP3    H231800   3.853   6.871   2.690  0.9009 -0.7835  1.1930
 3437TIP3   OH231801   5.295   6.187  12.731 -0.1753  0.4264 -0.4724
 3437TIP3    H131802   5.233   6.255  12.755 -0.7935 -0.4150  0.3888
 3437TIP3    H231803   5.360   6.186  12.802  0.9757  1.4308 -1.4562
 3438TIP3   OH231804   1.262   0.134   5.682 -0.2035 -0.7580 -0.5269
 3438TIP3    H131805   1.355   0.127   5.660 -0.3879 -1.3373 -1.1375
 3438TIP3    H231806   1.258   0.112   5.775  0.4809  0.9413 -0.0532
 3439TIP3   OH231807   4.680   0.488  12.519  0.2139  0.1020  0.4882
 3439TIP3    H131808   4.603   0.431  12.520  0.0912  0.2093 -0.7638
 3439TIP3    H231809   4.670   0.544  12.595 -0.3299 -0.6865  1.0115
 3440TIP3   OH231810   5.480   1.970  11.235  0.8923  0.4197  0.4515
 3440TIP3    H131811   5.489   1.932  11.322 -0.7643  2.0884  1.4312
 3440TIP3    H231812   5.425   1.908  11.187 -1.2092  1.1318  1.8062
 3441TIP3   OH231813   2.229   0.603   1.458  0.3576  0.0367 -0.5831
 3441TIP3    H131814   2.172   0.663   1.505  0.9202 -1.4379  2.2559
 3441TIP3    H231815   2.310   0.652   1.445 -0.4739  1.1250 -1.8922
 3442TIP3   OH231816   6.109   2.866   4.439 -0.7051 -0.4215 -0.4688
 3442TIP3    H131817   6.175   2.797   4.427  0.9525  1.1321 -0.6078
 3442TIP3    H231818   6.116   2.889   4.532 -1.0312 -0.2124 -0.4973
 3443TIP3   OH231819   5.121   4.805   2.690 -0.1599 -0.2623 -0.0445
 3443TIP3    H131820   5.216   4.803   2.700 -0.2054  0.0599  0.5124
 3443TIP3    H231821   5.099   4.898   2.683 -0.2831 -0.4006 -1.8444
 3444TIP3   OH231822   5.297   0.691  15.606  0.3911  0.1126 -0.0453
 3444TIP3    H131823   5.278   0.651  15.691  0.0106  0.0551 -0.1560
 3444TIP3    H231824   5.392   0.690  15.600  0.3747 -1.5775 -0.4207
 3445TIP3   OH231825   6.330   1.226   0.966  0.3165 -0.3701  1.1418
 3445TIP3    H131826   6.406   1.237   1.023 -0.3556 -1.1603  2.2162
 3445TIP3    H231827   6.291   1.143   0.993 -0.3313 -0.4910 -0.1114
 3446TIP3   OH231828   0.088   5.748  15.555 -0.1267 -0.3566  0.1547
 3446TIP3    H131829   0.161   5.714  15.607 -1.1067 -1.4830  0.8394
 3446TIP3    H231830   0.085   5.841  15.576  0.3989 -0.5168  1.0006
 3447TIP3   OH231831   5.519   6.368   2.468 -0.0932  0.2808  0.0557
 3447TIP3    H131832   5.476   6.287   2.440  0.3801 -0.0775  0.3472
 3447TIP3    H231833   5.446   6.426   2.493 -0.4588  0.1847 -0.7727
 3448TIP3   OH231834   3.318   5.316   1.110  0.5761 -0.4525 -0.0937
 3448TIP3    H131835   3.400   5.362   1.127 -1.3700  3.2356  0.2165
 3448TIP3    H231836   3.301   5.331   1.017  1.1718 -3.0391 -0.7032
 3449TIP3   OH231837   1.998   1.718   3.209 -0.4937 -0.7331  0.3787
 3449TIP3    H131838   1.997   1.629   3.173 -0.5688 -0.3196 -0.6773
 3449TIP3    H231839   1.906   1.740   3.220 -0.4624 -1.3548  2.1449
 3450TIP3   OH231840   5.576   1.797   4.206 -0.0141 -0.3555  0.0743
 3450TIP3    H131841   5.493   1.820   4.249  0.7413 -0.5200  1.6866
 3450TIP3    H231842   5.563   1.708   4.174 -1.3396  0.5102 -2.0829
 3451TIP3   OH231843   3.656   4.892  14.261  0.1793 -0.4983  0.3411
 3451TIP3    H131844   3.579   4.859  14.307 -0.4356  1.1490  0.5584
 3451TIP3    H231845   3.697   4.814  14.225 -1.7181 -1.4033  0.0042
 3452TIP3   OH231846   2.733   3.806  16.670 -0.0803  0.5984  0.6599
 3452TIP3    H131847   2.689   3.890  16.653  1.9501  1.3921 -1.1070
 3452TIP3    H231848   2.810   3.807  16.613 -0.4330 -2.8691 -0.1013
 3453TIP3   OH231849   4.926   5.510   3.853 -0.1528  0.0619 -0.0470
 3453TIP3    H131850   4.872   5.550   3.922 -0.2133  0.8178 -0.5226
 3453TIP3    H231851   4.868   5.506   3.777  0.7192  1.7785 -0.8523
 3454TIP3   OH231852   0.833   1.957   6.806 -0.4000  0.3912  0.6240
 3454TIP3    H131853   0.897   1.886   6.807  0.3052  0.9439  3.2930
 3454TIP3    H231854   0.882   2.035   6.779 -0.9080  0.1472 -1.1484
 3455TIP3   OH231855   4.771   5.811  13.414  0.5949 -0.0255  0.0469
 3455TIP3    H131856   4.773   5.871  13.487 -1.5888  1.1113 -0.7655
 3455TIP3    H231857   4.815   5.858  13.343  2.1542 -0.8838  0.3909
 3456TIP3   OH231858   3.194   4.168   2.434  0.1233  0.9293  0.3055
 3456TIP3    H131859   3.283   4.181   2.401  0.0493 -1.2671 -0.9734
 3456TIP3    H231860   3.199   4.193   2.526  2.4553 -0.4502  0.6467
 3457TIP3   OH231861   3.527   5.539   0.294  0.6680 -0.3406 -0.2488
 3457TIP3    H131862   3.445   5.569   0.256  1.8225  0.5421 -2.1806
 3457TIP3    H231863   3.564   5.617   0.336  1.1512 -0.3928 -0.5688
 3458TIP3   OH231864   2.918   1.545  15.463  0.4951 -0.3235 -0.2502
 3458TIP3    H131865   2.843   1.532  15.521  0.7817 -0.5976  0.0656
 3458TIP3    H231866   2.993   1.516  15.514  0.7052 -0.9754 -0.9029
 3459TIP3   OH231867   5.622   3.966  15.836 -0.4921  0.2572 -0.1721
 3459TIP3    H131868   5.664   4.029  15.894  1.7546 -0.9036 -0.4199
 3459TIP3    H231869   5.655   3.987  15.749  1.1761 -1.8239 -0.1280
 3460TIP3   OH231870   0.010   6.480  14.282 -0.1500  0.1907  0.3979
 3460TIP3    H131871  -0.035   6.550  14.235 -2.3164 -0.7860  0.8812
 3460TIP3    H231872  -0.059   6.439  14.334  1.3984 -1.2519  1.4018
 3461TIP3   OH231873   6.004   4.293  11.299  0.1516 -1.1312  0.1255
 3461TIP3    H131874   5.991   4.207  11.338 -0.9466 -1.1876 -0.3420
 3461TIP3    H231875   6.089   4.287  11.256 -0.0681 -2.0942 -0.1918
 3462TIP3   OH231876   0.543   2.750  13.637 -0.6625  0.6585  0.0253
 3462TIP3    H131877   0.507   2.710  13.717 -1.1055 -0.7400 -0.8313
 3462TIP3    H231878   0.550   2.843  13.658 -1.2130  0.3996  1.5283
 3463TIP3   OH231879   3.152   6.141  13.645  0.1875  0.4110  0.6453
 3463TIP3    H131880   3.108   6.218  13.681 -0.2878  1.8523 -2.6739
 3463TIP3    H231881   3.087   6.071  13.654 -1.4867  1.6674 -0.9021
 3464TIP3   OH231882   1.322   2.398  12.675 -0.8196 -0.0727 -0.3650
 3464TIP3    H131883   1.315   2.454  12.752 -0.5838  0.7987 -0.9631
 3464TIP3    H231884   1.231   2.385  12.647 -0.8173  1.1955 -1.0399
 3465TIP3   OH231885   1.736   3.331  15.724 -0.3053 -0.3423  0.8218
 3465TIP3    H131886   1.688   3.249  15.732 -1.4210 -0.4835 -4.1377
 3465TIP3    H231887   1.826   3.305  15.704 -0.4605 -0.3694  0.1370
 3466TIP3   OH231888   3.543   5.065  13.887 -0.1847 -0.5526 -0.0255
 3466TIP3    H131889   3.499   5.028  13.810 -2.4897 -1.4989  1.6102
 3466TIP3    H231890   3.481   5.049  13.959  0.7482  2.4442  1.6148
 3467TIP3   OH231891   0.862   4.345  13.648 -0.4644 -0.2215  0.3276
 3467TIP3    H131892   0.919   4.363  13.574  1.9170 -0.6433  1.9529
 3467TIP3    H231893   0.814   4.427  13.662 -1.4139 -0.3101 -1.9604
 3468TIP3   OH231894   3.961   2.573   3.625  0.4551  0.2155 -0.3838
 3468TIP3    H131895   3.986   2.571   3.718 -1.5033 -2.6516  0.2470
 3468TIP3    H231896   4.036   2.534   3.580 -0.1916 -2.4358  0.6409
 3469TIP3   OH231897   3.875   2.360   2.231 -0.3317  0.3561  0.0635
 3469TIP3    H131898   3.915   2.293   2.176  1.2931  0.9358  0.4760
 3469TIP3    H231899   3.910   2.344   2.319 -0.0651  1.5892  0.2089
 3470TIP3   OH231900   2.379   5.563   4.775  0.6937  0.0550  0.0401
 3470TIP3    H131901   2.307   5.584   4.834  1.6178 -0.2413  1.3320
 3470TIP3    H231902   2.370   5.624   4.703 -0.0180  0.9742  0.8764
 3471TIP3   OH231903   1.942   2.548   3.986 -0.8217  0.2049 -0.0595
 3471TIP3    H131904   1.979   2.473   4.031 -2.1450 -0.0163  0.7148
 3471TIP3    H231905   1.954   2.622   4.046  1.3887  0.8949 -1.2297
 3472TIP3   OH231906   3.026   3.247   4.319  0.5492  0.5817 -0.0646
 3472TIP3    H131907   2.970   3.256   4.397  0.1998 -1.9188  0.0477
 3472TIP3    H231908   3.106   3.208   4.351  0.3461 -0.6157 -0.9535
 3473TIP3   OH231909   4.361   5.176   6.121  0.2729  0.3265  0.1650
 3473TIP3    H131910   4.439   5.126   6.146  0.6662  1.5884  1.5909
 3473TIP3    H231911   4.387   5.222   6.041 -0.1410 -1.7616 -1.2559
 3474TIP3   OH231912   1.966   0.888  12.923 -0.2210  0.6508 -0.0537
 3474TIP3    H131913   1.996   0.798  12.916  0.4111  0.9376 -1.1474
 3474TIP3    H231914   1.875   0.881  12.952 -0.0106 -0.3108  0.4003
 3475TIP3   OH231915   1.277   0.446  15.948  0.4415 -0.2051 -0.6105
 3475TIP3    H131916   1.351   0.385  15.955 -0.2226 -0.8927  0.8810
 3475TIP3    H231917   1.289   0.489  15.864  2.8320  0.0738 -0.1859
 3476TIP3   OH231918   0.121   1.427   3.199  0.1754 -0.2265  0.0208
 3476TIP3    H131919   0.201   1.474   3.178  0.7265 -0.5314  1.3028
 3476TIP3    H231920   0.101   1.377   3.120  1.7058 -0.7498 -0.0818
 3477TIP3   OH231921   0.436   4.788  12.881 -0.3555 -0.1837 -0.5172
 3477TIP3    H131922   0.412   4.715  12.824  0.4540 -1.6491  0.9459
 3477TIP3    H231923   0.532   4.794  12.872 -0.4984  1.4235 -1.4132
 3478TIP3   OH231924   3.975   1.418  13.770 -0.2054 -0.2917 -0.1825
 3478TIP3    H131925   3.895   1.446  13.725 -0.1491  0.2756  0.0554
 3478TIP3    H231926   4.036   1.399  13.699 -0.5856 -0.8368 -0.3650
 3479TIP3   OH231927   3.253   6.623   2.782 -0.1699 -0.0195  0.6855
 3479TIP3    H131928   3.305   6.543   2.789 -0.9896 -0.7461 -0.9553
 3479TIP3    H231929   3.242   6.653   2.872  1.2389 -1.0357  1.2269
 3480TIP3   OH231930   6.250   0.636   0.495 -0.3314  0.0041 -0.0324
 3480TIP3    H131931   6.273   0.648   0.402  2.3310 -2.6491  0.1521
 3480TIP3    H231932   6.322   0.676   0.543 -1.2982  0.6490  0.9142
 3481TIP3   OH231933   5.664   5.336   5.552 -0.5645 -0.5443 -0.3486
 3481TIP3    H131934   5.728   5.278   5.594 -0.5879 -0.2988  0.0279
 3481TIP3    H231935   5.689   5.424   5.580 -1.2556 -0.4705  0.0553
 3482TIP3   OH231936   2.732   2.883  11.508  0.4354 -0.2329  0.2683
 3482TIP3    H131937   2.712   2.947  11.440  0.2278 -0.4023  0.1704
 3482TIP3    H231938   2.807   2.921  11.555 -0.5582  0.7665  1.1198
 3483TIP3   OH231939   0.925   2.325  14.739 -0.5189 -0.5259 -0.1605
 3483TIP3    H131940   0.896   2.414  14.717  1.5797  0.6075  1.3644
 3483TIP3    H231941   0.985   2.301  14.668 -2.5657 -1.6171 -1.6373
 3484TIP3   OH231942   0.521   1.439  13.406  0.1172  0.1904  0.0001
 3484TIP3    H131943   0.540   1.402  13.319  0.9974 -0.4827  0.4598
 3484TIP3    H231944   0.426   1.451  13.407 -0.4346 -3.1906  0.2256
 3485TIP3   OH231945   4.711   3.871   2.763 -0.5198  0.4430  0.1714
 3485TIP3    H131946   4.635   3.922   2.738 -0.3647  1.6825  2.0796
 3485TIP3    H231947   4.785   3.931   2.753  0.1611 -0.5221 -0.9586
 3486TIP3   OH231948   4.575   4.145   4.059  0.0446  0.1345 -0.2461
 3486TIP3    H131949   4.648   4.104   4.105 -0.4640 -1.0341 -0.4427
 3486TIP3    H231950   4.497   4.108   4.100 -0.4335  0.5701 -0.7405
 3487TIP3   OH231951   4.287   6.249   5.674  0.1906  0.2787 -0.1533
 3487TIP3    H131952   4.278   6.339   5.641  0.9992  0.3502 -0.2074
 3487TIP3    H231953   4.227   6.198   5.620 -0.0738  0.7424 -0.3105
 3488TIP3   OH231954   3.088   1.135  16.632 -0.4170  0.3387  0.1546
 3488TIP3    H131955   3.123   1.049  16.656 -1.0638  0.3642  1.2985
 3488TIP3    H231956   3.023   1.154  16.701 -0.1947  1.7902 -0.0087
 3489TIP3   OH231957   0.285   4.076  10.999  0.4556 -0.5329  0.4170
 3489TIP3    H131958   0.357   4.029  11.041  0.3343 -0.9116  0.2041
 3489TIP3    H231959   0.327   4.145  10.949  0.5973  0.0014  1.2481
 3490TIP3   OH231960   5.539   4.574   5.836  0.1296  0.0668  0.8065
 3490TIP3    H131961   5.578   4.661   5.849 -0.2512  0.2506  0.7486
 3490TIP3    H231962   5.607   4.523   5.792 -0.2639  0.8777 -0.8157
 3491TIP3   OH231963   5.959   0.250   3.632  0.1347  0.2320 -0.6903
 3491TIP3    H131964   5.940   0.339   3.663  3.0579  1.3643 -1.8299
 3491TIP3    H231965   5.996   0.206   3.709  0.8674  0.7729 -0.7255
 3492TIP3   OH231966   6.378   5.098  16.272 -0.9074  0.2700 -0.4001
 3492TIP3    H131967   6.342   5.075  16.357 -2.6450  1.0981 -0.8842
 3492TIP3    H231968   6.312   5.154  16.231  0.0485  0.2081 -2.1424
 3493TIP3   OH231969   1.899   6.817   5.211  0.2671  0.0966 -0.3905
 3493TIP3    H131970   1.834   6.785   5.149  0.4970 -1.9785  0.3644
 3493TIP3    H231971   1.907   6.747   5.276  2.2138  0.9139  0.3255
 3494TIP3   OH231972   5.708   6.847   4.355  0.2388 -0.2289  0.1866
 3494TIP3    H131973   5.738   6.757   4.365 -0.8184 -0.5048  1.0873
 3494TIP3    H231974   5.697   6.859   4.261  0.1874 -1.1053  0.0764
 3495TIP3   OH231975   2.990   1.942  12.266  1.0176 -0.0807 -0.0875
 3495TIP3    H131976   3.023   1.860  12.229 -0.9232 -0.3436 -1.3605
 3495TIP3    H231977   2.962   1.993  12.191  4.2125  2.8162  0.4598
 3496TIP3   OH231978   1.163   3.303  16.063 -0.3613  0.3183 -0.2432
 3496TIP3    H131979   1.145   3.341  15.977  2.2644 -1.2214 -1.6111
 3496TIP3    H231980   1.140   3.211  16.055 -0.4973  0.2414  0.8494
 3497TIP3   OH231981   5.918   0.631  11.866 -0.1417 -0.0855  0.0192
 3497TIP3    H131982   5.918   0.646  11.960  0.3138  0.1042 -0.0087
 3497TIP3    H231983   5.878   0.545  11.855 -1.4640  0.4789  0.2808
 3498TIP3   OH231984   4.051   2.280   0.093  0.5471 -0.0877 -0.1128
 3498TIP3    H131985   4.021   2.239   0.174  1.7989  0.0208  0.4267
 3498TIP3    H231986   4.060   2.373   0.115  0.0696  0.0930 -0.6369
 3499TIP3   OH231987   1.667   0.044  11.383  0.4964  0.1767 -0.2132
 3499TIP3    H131988   1.741  -0.014  11.400  0.2426  0.0332  0.4253
 3499TIP3    H231989   1.590  -0.008  11.407  0.3051  1.0407  1.1605
 3500TIP3   OH231990   5.831   4.209  13.455  0.2727  0.1668  0.0750
 3500TIP3    H131991   5.749   4.244  13.420 -1.1614 -0.9704  2.1094
 3500TIP3    H231992   5.849   4.132  13.402 -0.7386 -0.3655  0.4849
 3501TIP3   OH231993   4.623   1.827  16.842  0.1800 -0.0826 -0.0769
 3501TIP3    H131994   4.646   1.822  16.934 -1.6327  1.9564  0.5849
 3501TIP3    H231995   4.706   1.818  16.795  1.2099 -0.5960  1.7569
 3502TIP3   OH231996   2.684   5.996   1.888 -0.0884 -0.1181  0.1207
 3502TIP3    H131997   2.733   6.018   1.809 -1.7421 -0.6507 -1.1208
 3502TIP3    H231998   2.594   5.985   1.857 -0.8237 -0.0802  2.1426
 3503TIP3   OH231999   0.486   5.720  16.818  0.5575  0.2003  0.3845
 3503TIP3    H132000   0.511   5.812  16.811  2.5165 -0.3976 -1.7186
 3503TIP3    H232001   0.393   5.718  16.799  0.7285  1.6512 -0.7833
 3504TIP3   OH232002   2.780   4.621   6.250  0.6271 -0.0158 -0.4502
 3504TIP3    H132003   2.755   4.714   6.250 -2.0562 -0.5913  1.9310
 3504TIP3    H232004   2.728   4.582   6.320  2.1492 -3.2478 -0.9195
 3505TIP3   OH232005   0.003   6.622  16.961  0.7959 -0.1930 -0.0220
 3505TIP3    H132006   0.062   6.691  16.931  1.5904 -1.1929 -0.8618
 3505TIP3    H232007   0.061   6.559  17.005  0.1315 -0.4614  0.4936
 3506TIP3   OH232008   6.390   3.076   1.619 -0.7551 -0.1207  0.3471
 3506TIP3    H132009   6.483   3.098   1.623 -1.2499  2.2847  0.0429
 3506TIP3    H232010   6.385   2.999   1.562  1.2406 -1.8464  2.3347
 3507TIP3   OH232011   2.599   5.093  17.001 -0.0898 -0.8033 -0.2278
 3507TIP3    H132012   2.675   5.133  16.958 -0.3469  1.6125  1.4119
 3507TIP3    H232013   2.621   5.094  17.094 -1.5715 -1.3515  0.1547
 3508TIP3   OH232014   0.402   3.203  11.711  0.7171 -0.2620 -0.3894
 3508TIP3    H132015   0.433   3.280  11.760  1.0507 -0.0222 -0.9600
 3508TIP3    H232016   0.482   3.158  11.685  0.5025 -1.7083  1.3182
 3509TIP3   OH232017   2.075   4.384   0.787 -0.0015  0.2357 -0.1438
 3509TIP3    H132018   2.074   4.382   0.883  1.2367 -0.0690 -0.1190
 3509TIP3    H232019   2.095   4.294   0.762  3.1108  0.9263 -0.5610
 3510TIP3   OH232020   5.630   3.671  12.047 -0.2328  0.5111  0.2131
 3510TIP3    H132021   5.718   3.710  12.048 -0.9919  2.6791 -2.6771
 3510TIP3    H232022   5.571   3.746  12.058 -1.7253 -0.4413 -0.9605
 3511TIP3   OH232023   5.635   1.768  12.729  0.0206  0.2202 -0.5746
 3511TIP3    H132024   5.637   1.729  12.816  0.6873 -0.0030 -0.6904
 3511TIP3    H232025   5.717   1.816  12.721 -0.4341  0.9899 -0.7434
 3512TIP3   OH232026   6.056   5.109  14.477  0.0285 -0.4347  0.3738
 3512TIP3    H132027   6.067   5.161  14.557  1.6831 -0.4210  0.1648
 3512TIP3    H232028   5.963   5.120  14.454  0.1121  1.7200  0.8386
 3513TIP3   OH232029   1.596   4.926  16.200 -0.4854  0.5432 -0.1232
 3513TIP3    H132030   1.595   5.001  16.259 -0.4896  1.1422 -0.8728
 3513TIP3    H232031   1.623   4.853  16.255  1.2048  1.3951  0.2500
 3514TIP3   OH232032   2.347   4.240  15.844 -0.6364 -0.1183  0.2967
 3514TIP3    H132033   2.417   4.175  15.850  0.6370  1.0306 -1.1887
 3514TIP3    H232034   2.268   4.188  15.829  0.4037 -1.3611 -1.2856
 3515TIP3   OH232035   3.373   6.726   4.894 -0.0937  0.7311 -0.6569
 3515TIP3    H132036   3.433   6.652   4.878  0.0350  0.5996  0.3761
 3515TIP3    H232037   3.425   6.803   4.873 -0.5649  0.5295 -2.8179
 3516TIP3   OH232038   0.022   5.829   3.079 -0.1852 -0.0426  0.3846
 3516TIP3    H132039  -0.063   5.799   3.111  0.9809 -2.3745  1.4603
 3516TIP3    H232040   0.017   5.818   2.984 -1.8911  2.2341  0.1030
 3517TIP3   OH232041   3.317   3.918  16.987  0.3477 -0.2482  0.4461
 3517TIP3    H132042   3.411   3.914  16.968  0.0581 -1.0427 -0.9780
 3517TIP3    H232043   3.291   4.007  16.964  0.8536  0.1880  1.4846
 3518TIP3   OH232044   5.421   6.679  13.177 -0.0992 -0.3604  0.6347
 3518TIP3    H132045   5.458   6.597  13.144  1.4136  1.0043 -1.3110
 3518TIP3    H232046   5.486   6.709  13.241  0.7555  0.6069 -0.6468
 3519TIP3   OH232047   0.593   5.318  14.224  1.0639 -0.4329 -0.1661
 3519TIP3    H132048   0.538   5.255  14.270 -0.5066  0.3491 -0.8897
 3519TIP3    H232049   0.541   5.343  14.147  2.7983 -0.2873 -1.3287
 3520TIP3   OH232050   2.537   1.686   5.515  0.1529 -0.0835 -0.4471
 3520TIP3    H132051   2.554   1.592   5.524 -0.3406  0.0273  3.3866
 3520TIP3    H232052   2.622   1.727   5.530  0.3880  0.1547 -2.2175
 3521TIP3   OH232053   6.663   1.159  16.958  0.6631  0.0486  0.1360
 3521TIP3    H132054   6.642   1.133  17.048  1.7796 -0.5111  0.2551
 3521TIP3    H232055   6.602   1.110  16.904  0.6865 -0.4183  0.5301
 3522TIP3   OH232056   4.252   2.149  14.255  0.0300  0.4687  0.3321
 3522TIP3    H132057   4.342   2.156  14.223  0.1701  0.1505  0.6490
 3522TIP3    H232058   4.238   2.055  14.268 -0.0792  0.5803  1.0447
 3523TIP3   OH232059   6.319   3.573   5.020  0.2528 -0.5742 -0.4923
 3523TIP3    H132060   6.315   3.582   4.925 -0.7265 -0.0809 -0.4112
 3523TIP3    H232061   6.311   3.478   5.036 -2.3357 -0.4865 -0.8126
 3524TIP3   OH232062   0.450   5.505  10.836 -0.4376  0.7930 -0.6820
 3524TIP3    H132063   0.437   5.422  10.790  0.8820 -0.8415  1.7032
 3524TIP3    H232064   0.532   5.539  10.800  0.8328 -0.7034  0.6598
 3525TIP3   OH232065   6.151   2.551  16.839  0.5252 -0.1273  0.2318
 3525TIP3    H132066   6.204   2.631  16.841 -0.9645  0.9034  0.2267
 3525TIP3    H232067   6.111   2.547  16.926  1.9138 -1.8449  0.8461
 3526TIP3   OH232068   2.804   2.785  13.077 -0.5777  0.0304  0.4978
 3526TIP3    H132069   2.774   2.698  13.050  1.4524 -0.5455  0.0046
 3526TIP3    H232070   2.790   2.786  13.172  1.3842 -1.7036  0.8573
 3527TIP3   OH232071   2.232   6.591  14.450 -0.0914 -0.8466  0.2851
 3527TIP3    H132072   2.158   6.542  14.486 -0.0076  0.0171  1.7036
 3527TIP3    H232073   2.198   6.678  14.433  0.8517 -0.0074  2.2636
 3528TIP3   OH232074   3.574   6.573  14.770 -0.2496  0.0783  0.7844
 3528TIP3    H132075   3.586   6.668  14.762 -1.2456  0.1016 -1.0510
 3528TIP3    H232076   3.479   6.562  14.783 -0.5045 -0.7141 -1.3250
 3529TIP3   OH232077   0.590   4.936   0.309  0.3616 -0.3306 -0.0040
 3529TIP3    H132078   0.585   5.030   0.289  0.2666  0.1008  1.8716
 3529TIP3    H232079   0.638   4.932   0.391 -1.7148 -1.7222  1.2307
 3530TIP3   OH232080   5.828   2.972   0.538 -0.4645 -0.5847  0.1346
 3530TIP3    H132081   5.878   2.891   0.529 -1.0626 -0.8860 -0.5582
 3530TIP3    H232082   5.889   3.034   0.577  0.1210 -1.2562  0.2916
 3531TIP3   OH232083   2.501   4.431  12.240 -0.0921 -0.0329 -0.6817
 3531TIP3    H132084   2.480   4.423  12.147  0.4071 -2.2722 -0.6472
 3531TIP3    H232085   2.594   4.456  12.241  0.4286 -1.8459 -0.8212
 3532TIP3   OH232086   6.595   0.180  12.342 -0.7208 -0.1091  0.2075
 3532TIP3    H132087   6.536   0.121  12.389 -1.5556  1.0602  0.6651
 3532TIP3    H232088   6.543   0.259  12.326  0.6441  0.8682  0.4128
 3533TIP3   OH232089   5.065   5.130  12.838  0.3863  0.0698  0.0006
 3533TIP3    H132090   4.989   5.116  12.782  0.7333  0.9870 -0.7087
 3533TIP3    H232091   5.029   5.140  12.926 -0.3992  1.3459 -0.4451
 3534TIP3   OH232092   1.999   6.282   1.859  0.3779  0.3468 -0.7417
 3534TIP3    H132093   2.059   6.265   1.786  1.5658  1.0335  0.0491
 3534TIP3    H232094   2.054   6.279   1.937 -0.4926  1.6651 -0.0398
 3535TIP3   OH232095   4.589   3.397  15.170 -0.0832 -0.1504 -0.0164
 3535TIP3    H132096   4.668   3.410  15.118  0.6163 -1.4093  0.6871
 3535TIP3    H232097   4.607   3.319  15.222 -0.9534  0.7525  1.7278
 3536TIP3   OH232098   2.144   0.003   1.609  0.0158  0.0161 -0.1916
 3536TIP3    H132099   2.184  -0.023   1.692  1.1073 -0.3080 -0.8009
 3536TIP3    H232100   2.053  -0.025   1.617  0.5123 -1.5662  0.2442
 3537TIP3   OH232101   5.950   1.281  16.168  0.1607 -0.0769  0.4387
 3537TIP3    H132102   6.042   1.304  16.154 -0.5202  1.3777 -2.2402
 3537TIP3    H232103   5.921   1.245  16.084 -2.5942  2.8652 -0.0668
 3538TIP3   OH232104   6.490   2.558  12.086 -0.1868 -0.2730 -0.1480
 3538TIP3    H132105   6.570   2.510  12.109 -0.0335 -0.3651 -0.8383
 3538TIP3    H232106   6.430   2.542  12.159  0.2477 -0.6117  0.1411
 3539TIP3   OH232107   4.899   0.061  12.660 -0.0290  0.1561  0.2045
 3539TIP3    H132108   4.946   0.143  12.672  0.1374  0.1287 -0.2299
 3539TIP3    H232109   4.825   0.067  12.721  0.8022 -0.0210  1.2607
 3540TIP3   OH232110   1.435   3.237  16.470 -0.1962  0.4636 -0.6158
 3540TIP3    H132111   1.506   3.300  16.477 -0.8676  1.3530 -1.5576
 3540TIP3    H232112   1.366   3.272  16.527  0.2584 -0.6493  0.6860
 3541TIP3   OH232113   0.525   3.422  16.169  0.3185  0.6318  0.5181
 3541TIP3    H132114   0.602   3.455  16.122  0.4859  0.6841  0.8277
 3541TIP3    H232115   0.457   3.416  16.102  0.1200  2.1349  0.5603
 3542TIP3   OH232116   6.288   5.903  12.366 -0.4682  0.3723  0.5879
 3542TIP3    H132117   6.380   5.895  12.388 -0.2772 -0.7439 -0.4903
 3542TIP3    H232118   6.247   5.825  12.404 -0.2043 -1.3660 -2.3721
 3543TIP3   OH232119   4.497   2.940  15.310 -0.5274 -0.7600 -0.3671
 3543TIP3    H132120   4.428   2.989  15.265 -0.2000 -0.6592 -0.7641
 3543TIP3    H232121   4.563   3.007  15.332 -0.9488 -0.7033  0.7918
 3544TIP3   OH232122   6.703   5.348   4.053 -0.3247  0.1916  0.7180
 3544TIP3    H132123   6.617   5.388   4.036 -0.1133  0.6494  0.7163
 3544TIP3    H232124   6.686   5.254   4.051 -0.4889  0.2300 -1.0545
 3545TIP3   OH232125   3.306   6.711  11.400 -0.3562  0.3318  0.4394
 3545TIP3    H132126   3.285   6.633  11.451  0.7784 -0.8567 -0.8286
 3545TIP3    H232127   3.402   6.716  11.402 -0.2628  0.2608 -1.4744
 3546TIP3   OH232128   5.312   6.108  14.010 -0.0163  0.3500 -0.0134
 3546TIP3    H132129   5.305   6.014  14.028  1.9781  0.3477  1.0874
 3546TIP3    H232130   5.383   6.138  14.067 -0.4626  2.5019 -0.4930
 3547TIP3   OH232131   4.675   6.653   3.788 -0.1140 -0.1449 -0.7086
 3547TIP3    H132132   4.642   6.643   3.877 -0.5555 -2.2912 -1.0474
 3547TIP3    H232133   4.672   6.747   3.771 -2.2734  0.1118  0.7012
 3548TIP3   OH232134   0.489   5.089   0.740 -0.2881 -0.0439  0.5534
 3548TIP3    H132135   0.453   5.155   0.681 -1.5347 -0.5755  0.6882
 3548TIP3    H232136   0.551   5.040   0.686 -0.9993 -0.1708 -0.1620
 3549TIP3   OH232137   3.403   1.878  16.534  0.3341  0.3895  0.5779
 3549TIP3    H132138   3.490   1.887  16.572  1.1079 -0.8152 -0.8349
 3549TIP3    H232139   3.359   1.815  16.591  0.1001  1.5240  1.7057
 3550TIP3   OH232140   1.647   1.042  13.136  0.8327 -0.1015 -0.1819
 3550TIP3    H132141   1.700   1.086  13.069 -0.4161 -0.3195 -1.3616
 3550TIP3    H232142   1.557   1.049  13.104  0.4502 -2.3394  0.2371
 3551TIP3   OH232143   0.907   3.883   0.384  0.1803 -0.6943 -0.1730
 3551TIP3    H132144   0.952   3.810   0.426  1.8184 -0.3132 -1.1774
 3551TIP3    H232145   0.969   3.915   0.319 -0.7542  1.1928 -0.1989
 3552TIP3   OH232146   6.209   5.447   4.572 -0.3778  0.1608 -1.3672
 3552TIP3    H132147   6.187   5.407   4.656  0.5205  0.6077 -0.8900
 3552TIP3    H232148   6.295   5.487   4.588 -0.3411  0.5142 -2.4144
 3553TIP3   OH232149   4.995   5.598   0.725 -0.0043 -0.0291 -0.9137
 3553TIP3    H132150   4.932   5.667   0.704  0.8186  1.1137  0.2010
 3553TIP3    H232151   4.961   5.558   0.805  0.5918  0.4989 -0.3866
 3554TIP3   OH232152   0.131   5.807   4.951 -0.0688 -0.0646 -0.0420
 3554TIP3    H132153   0.111   5.724   4.995  4.0688 -1.4385 -0.3042
 3554TIP3    H232154   0.188   5.782   4.879  1.5953  3.0134  0.0450
 3555TIP3   OH232155   6.452   2.977   2.318  0.7738  0.0372 -0.2339
 3555TIP3    H132156   6.510   2.967   2.394 -0.2761  1.3773  0.8143
 3555TIP3    H232157   6.384   3.037   2.348 -0.7793 -0.9247 -1.6432
 3556TIP3   OH232158   0.774   2.140  15.861 -0.6220  0.4771 -0.2981
 3556TIP3    H132159   0.796   2.150  15.953  1.6670  0.4997 -0.7894
 3556TIP3    H232160   0.790   2.048  15.842 -2.0116  0.2540 -0.4825
 3557TIP3   OH232161   0.215   4.615  12.195  0.3507  0.5257  0.0488
 3557TIP3    H132162   0.198   4.544  12.256  3.3123 -1.1731 -0.9460
 3557TIP3    H232163   0.281   4.669  12.238  0.4670  0.8632 -0.5444
 3558TIP3   OH232164   0.506   5.892  15.726 -0.0387 -0.3083 -0.6753
 3558TIP3    H132165   0.428   5.906  15.780  0.7289 -0.6691  0.5941
 3558TIP3    H232166   0.566   5.843  15.784  1.6888  1.2231 -1.0769
 3559TIP3   OH232167   4.605   4.846  17.068  0.3384  0.0877  0.2152
 3559TIP3    H132168   4.573   4.859  17.157 -0.8222  0.2264 -0.2191
 3559TIP3    H232169   4.529   4.818  17.018  0.9311  0.2042 -0.7918
 3560TIP3   OH232170   1.276   1.492   5.246  0.3045  0.0634  0.4821
 3560TIP3    H132171   1.239   1.575   5.218  0.9694  0.5092  0.8716
 3560TIP3    H232172   1.276   1.498   5.342  0.4869 -0.3231  0.5056
 3561TIP3   OH232173   6.105   1.611  12.978 -0.1088 -0.0573  0.4974
 3561TIP3    H132174   6.076   1.697  13.006 -1.0329 -0.7430  1.7306
 3561TIP3    H232175   6.189   1.598  13.023  0.2085  0.3440  0.0205
 3562TIP3   OH232176   0.554   4.082  11.966 -0.7828  0.2122 -0.0285
 3562TIP3    H132177   0.476   4.040  11.929 -1.0133 -0.2949  1.0127
 3562TIP3    H232178   0.628   4.035  11.927 -1.0090  0.0198 -0.2305
 3563TIP3   OH232179   1.496   2.686  13.615  0.5297 -0.2781  0.2959
 3563TIP3    H132180   1.430   2.738  13.661 -0.1627 -1.8006  1.1150
 3563TIP3    H232181   1.579   2.730  13.632 -0.2605  1.7734 -0.8846
 3564TIP3   OH232182   2.763   5.509  11.395 -0.0321  0.1357 -0.0197
 3564TIP3    H132183   2.859   5.518  11.391 -0.1134  0.3594 -2.2229
 3564TIP3    H232184   2.750   5.420  11.428  0.9225  0.1243  0.3740
 3565TIP3   OH232185   5.890   5.376  15.048  0.2285  0.3600  0.1837
 3565TIP3    H132186   5.877   5.463  15.009 -1.6721  0.5216  1.1150
 3565TIP3    H232187   5.809   5.329  15.031  0.7561 -0.8218  0.8085
 3566TIP3   OH232188   4.975   1.289  13.968  0.3525  0.6067  0.0364
 3566TIP3    H132189   5.054   1.249  14.004  0.0106 -0.0937  0.0205
 3566TIP3    H232190   5.007   1.348  13.899  0.8137 -0.3213 -0.5619
 3567TIP3   OH232191   1.928   1.454  14.491 -0.0923  0.3145 -0.2361
 3567TIP3    H132192   1.924   1.359  14.492 -2.3613  0.3584  0.7974
 3567TIP3    H232193   2.019   1.474  14.470  0.6863 -2.0694  0.5944
 3568TIP3   OH232194   5.728   2.189  14.060  0.1175 -0.2159  0.0778
 3568TIP3    H132195   5.821   2.166  14.062  0.3140  0.5918  0.5937
 3568TIP3    H232196   5.685   2.110  14.028  1.1920  0.0953 -2.3578
 3569TIP3   OH232197   0.823   2.260  15.109  0.2486 -0.0438  0.4144
 3569TIP3    H132198   0.735   2.223  15.098  0.0653  0.9434 -2.0646
 3569TIP3    H232199   0.837   2.260  15.204 -1.9635 -1.2447  0.8165
 3570TIP3   OH232200   1.248   0.109   1.050  0.0054 -0.4292 -0.1016
 3570TIP3    H132201   1.319   0.173   1.044 -1.2814  1.1573  0.6367
 3570TIP3    H232202   1.284   0.038   1.103  0.5036  1.2106  1.8851
 3571TIP3   OH232203   5.911   1.418   2.334 -0.1093  0.6547 -0.0116
 3571TIP3    H132204   5.939   1.337   2.376 -0.2719  0.6659  0.1201
 3571TIP3    H232205   5.896   1.394   2.243 -2.3591 -0.0093  0.4678
 3572TIP3   OH232206   0.596   0.794   5.388  0.4524 -0.1572 -0.8052
 3572TIP3    H132207   0.525   0.730   5.399  1.0204 -1.1557 -2.5405
 3572TIP3    H232208   0.675   0.740   5.379  1.3245  0.9060  0.1641
 3573TIP3   OH232209   3.405   0.856   4.103  0.2944 -0.3095  0.3124
 3573TIP3    H132210   3.359   0.937   4.079 -0.6902 -0.6848  0.8531
 3573TIP3    H232211   3.471   0.883   4.167  0.7576  0.2254 -0.3777
 3574TIP3   OH232212   0.324   5.656  12.757 -0.4594  0.3094  0.5758
 3574TIP3    H132213   0.251   5.713  12.732 -0.2476  0.2316 -0.2466
 3574TIP3    H232214   0.282   5.573  12.780 -0.7812  0.8238  1.9301
 3575TIP3   OH232215   0.085   1.385  14.703  0.7002  0.0242 -0.4603
 3575TIP3    H132216   0.086   1.480  14.707 -1.5899  0.0996 -0.5658
 3575TIP3    H232217   0.124   1.357  14.785  0.7504  1.0589 -0.1218
 3576TIP3   OH232218   1.753   2.375  14.258 -0.0329  0.3363  0.0647
 3576TIP3    H132219   1.684   2.358  14.321  1.5407  0.3308  1.8957
 3576TIP3    H232220   1.804   2.446  14.297  0.9060  0.4496 -1.2942
 3577TIP3   OH232221   4.991   1.100  15.382  0.0937  0.3218  0.4171
 3577TIP3    H132222   5.044   1.173  15.414  2.1683  0.4277 -2.8551
 3577TIP3    H232223   5.018   1.026  15.437  0.7037  1.2191  1.3672
 3578TIP3   OH232224   5.187   6.601  10.475  0.1559  0.6267 -0.1514
 3578TIP3    H132225   5.151   6.619  10.388 -1.1226  0.4577  0.3288
 3578TIP3    H232226   5.119   6.628  10.536 -0.3568 -2.2878  0.7129
 3579TIP3   OH232227   0.530   0.327   0.466 -0.1198 -0.0664  0.0671
 3579TIP3    H132228   0.483   0.325   0.549  0.1757  0.3297  0.2503
 3579TIP3    H232229   0.558   0.237   0.452  0.0948 -0.0829  0.5609
 3580TIP3   OH232230   1.720   5.093   2.313  0.2411 -0.2025  0.1752
 3580TIP3    H132231   1.699   5.088   2.219 -1.9553  1.7847  0.4699
 3580TIP3    H232232   1.732   5.186   2.330  1.7168 -0.6217  1.7080
 3581TIP3   OH232233   0.525   3.756  17.176  0.0030  0.4541  0.5204
 3581TIP3    H132234   0.560   3.841  17.204 -0.2192  0.3402  1.1839
 3581TIP3    H232235   0.492   3.717  17.257  1.5177 -0.9546  0.4951
 3582TIP3   OH232236   0.016   6.303  11.660  0.0195  0.2998 -0.3015
 3582TIP3    H132237  -0.034   6.293  11.579 -0.2713 -2.1564  0.1084
 3582TIP3    H232238  -0.050   6.299  11.729  0.4931 -0.1594  0.1300
 3583TIP3   OH232239   4.541   1.371  14.312 -0.1284  0.1437 -0.3649
 3583TIP3    H132240   4.579   1.401  14.229  1.2558 -1.3495 -0.3053
 3583TIP3    H232241   4.598   1.408  14.379 -0.5727  0.3872 -0.1158
 3584TIP3   OH232242   0.391   2.371   4.698  0.5146  0.6769  1.2499
 3584TIP3    H132243   0.404   2.386   4.792  0.0608 -0.4714  1.5146
 3584TIP3    H232244   0.296   2.370   4.687  0.5554  2.1212  0.5266
 3585TIP3   OH232245   3.235   0.754  14.784 -0.1235  0.4913  0.0979
 3585TIP3    H132246   3.224   0.662  14.807  1.2421  0.2768  0.0104
 3585TIP3    H232247   3.199   0.803  14.858 -0.7742 -0.1116  0.1846
 3586TIP3   OH232248   6.408   0.248  13.136 -0.2451  0.2239  0.3482
 3586TIP3    H132249   6.386   0.196  13.059  1.7607 -0.9907  0.5110
 3586TIP3    H232250   6.355   0.212  13.206  0.2103 -0.8027  0.1816
 3587TIP3   OH232251   5.129   0.075   5.618  0.1901 -0.2191  0.6458
 3587TIP3    H132252   5.187   0.113   5.553  0.2528 -0.2125  0.7063
 3587TIP3    H232253   5.041   0.092   5.584  0.2328 -0.7548  0.2519
 3588TIP3   OH232254   0.562   5.914  10.367 -0.8717  0.0342 -0.0405
 3588TIP3    H132255   0.555   5.870  10.283 -1.2382  0.7713 -0.4049
 3588TIP3    H232256   0.650   5.892  10.399 -1.4523 -1.8975  0.3320
 3589TIP3   OH232257   3.558   1.135  11.139 -0.7198 -0.0549 -0.5745
 3589TIP3    H132258   3.465   1.122  11.122 -0.6447 -1.0774 -0.2993
 3589TIP3    H232259   3.579   1.220  11.100 -1.0454 -1.2084 -3.5123
 3590TIP3   OH232260   4.074   2.872   3.179  0.3170  0.2904  0.4381
 3590TIP3    H132261   4.022   2.844   3.254 -0.3935  2.7755  0.9620
 3590TIP3    H232262   4.026   2.840   3.103  0.2653 -0.9967  0.9911
 3591TIP3   OH232263   5.045   3.220  15.277  0.0270 -0.0236  0.0259
 3591TIP3    H132264   5.079   3.166  15.348 -0.0185 -0.2975 -0.1585
 3591TIP3    H232265   4.950   3.220  15.291 -0.0430 -0.6070 -0.3990
 3592TIP3   OH232266   1.192   0.707  13.895  0.2919 -0.1381 -0.6065
 3592TIP3    H132267   1.121   0.647  13.874 -1.6147  2.0833 -0.8536
 3592TIP3    H232268   1.170   0.743  13.981  2.2423 -0.9051  0.2758
 3593TIP3   OH232269   4.429   4.485  13.118 -0.0485 -0.2624  0.6011
 3593TIP3    H132270   4.398   4.559  13.067 -1.4074 -0.1114  1.5935
 3593TIP3    H232271   4.450   4.417  13.054 -0.5395  0.3438 -0.2043
 3594TIP3   OH232272   0.018   6.103   3.532  0.7409  0.5009  0.4047
 3594TIP3    H132273  -0.002   6.195   3.515  2.0247  0.8096  0.5026
 3594TIP3    H232274   0.080   6.079   3.463 -0.6195 -0.7076 -0.4718
 3595TIP3   OH232275   6.646   4.228   5.540  0.0520  0.1447 -0.3107
 3595TIP3    H132276   6.579   4.238   5.608 -0.7647  0.4731 -1.1308
 3595TIP3    H232277   6.698   4.153   5.568 -0.6568 -0.1073  0.3658
 3596TIP3   OH232278   2.233   1.489   0.354  0.4387  0.3573  0.0712
 3596TIP3    H132279   2.152   1.539   0.344 -0.1128 -0.8031 -1.6985
 3596TIP3    H232280   2.213   1.423   0.421  0.9258  1.9039  1.8370
 3597TIP3   OH232281   1.583   5.908   0.403  0.0025  0.5791 -0.2313
 3597TIP3    H132282   1.507   5.850   0.394  0.3717  0.1051 -0.3694
 3597TIP3    H232283   1.611   5.925   0.313 -0.8834  2.0326 -0.2450
 3598TIP3   OH232284   6.697   6.685   3.538 -0.3875 -0.3543 -0.2871
 3598TIP3    H132285   6.697   6.747   3.611  1.0361  0.2881 -0.7877
 3598TIP3    H232286   6.743   6.608   3.572 -2.2600 -1.2378  0.3730
 3599TIP3   OH232287   4.874   2.050   0.705  0.5967 -0.7302 -0.1840
 3599TIP3    H132288   4.820   2.097   0.642  3.0411 -0.3466 -2.1398
 3599TIP3    H232289   4.819   1.977   0.735 -1.9282  1.1402  0.0845
 3600TIP3   OH232290   0.548   6.004  16.764  0.5910  0.3917 -0.3439
 3600TIP3    H132291   0.617   6.031  16.825  0.6129  1.1977 -0.7076
 3600TIP3    H232292   0.586   6.014  16.677  1.4676 -3.2590 -0.5247
 3601TIP3   OH232293   2.663   4.381  17.118  0.1220  0.0724 -0.2920
 3601TIP3    H132294   2.613   4.462  17.111 -0.2776 -0.1918 -0.5409
 3601TIP3    H232295   2.597   4.312  17.124  0.3861 -0.0655  2.7602
 3602TIP3   OH232296   3.954   3.894  14.391  0.0137  0.5098 -0.4686
 3602TIP3    H132297   3.897   3.830  14.434  1.2605 -1.3695 -1.4761
 3602TIP3    H232298   3.999   3.845  14.322  2.5517  1.9685 -0.0130
 3603TIP3   OH232299   3.158   4.406   1.130 -0.0193  0.6141 -0.5968
 3603TIP3    H132300   3.070   4.441   1.136  0.1378  1.7239 -3.3286
 3603TIP3    H232301   3.214   4.483   1.122  0.9115 -0.1159 -1.3712
 3604TIP3   OH232302   3.004   2.069  14.860 -0.2761  0.1672  0.2683
 3604TIP3    H132303   2.992   1.982  14.900 -2.1673  1.7653  3.6142
 3604TIP3    H232304   2.916   2.096  14.835  0.4616  0.6543 -2.0410
 3605TIP3   OH232305   0.393   2.387  13.962 -0.1191 -0.7862 -0.5402
 3605TIP3    H132306   0.450   2.400  14.038  0.7910 -1.1036 -1.1621
 3605TIP3    H232307   0.347   2.305  13.980  1.4333 -1.8322 -1.1372
 3606TIP3   OH232308   6.747   5.422   0.836  0.2725  0.3016 -0.3444
 3606TIP3    H132309   6.674   5.372   0.872  0.9213 -0.9060 -0.6395
 3606TIP3    H232310   6.799   5.446   0.912  0.5383 -0.4613 -0.2666
 3607TIP3   OH232311   2.154   1.449   1.249  0.9291 -0.2106 -0.1262
 3607TIP3    H132312   2.202   1.524   1.214 -1.1251  0.0764 -2.5757
 3607TIP3    H232313   2.177   1.377   1.190 -1.4532 -0.0813 -1.3257
 3608TIP3   OH232314   1.712   5.148   2.682 -0.0538 -0.2769 -0.0929
 3608TIP3    H132315   1.695   5.095   2.760 -0.5221 -2.3734 -1.5335
 3608TIP3    H232316   1.778   5.212   2.710 -1.3342  0.0929  2.4072
 3609TIP3   OH232317   4.286   0.281   0.825  0.3005  0.3593 -0.3211
 3609TIP3    H132318   4.224   0.217   0.859  2.1485 -0.7396  1.2000
 3609TIP3    H232319   4.348   0.230   0.773  0.5809  1.2545 -0.8963
 3610TIP3   OH232320   3.064   5.048   2.092  0.6655  0.3523 -0.3608
 3610TIP3    H132321   3.101   5.007   2.171  0.7084 -0.8042 -0.9543
 3610TIP3    H232322   3.140   5.062   2.036  0.7527  1.9700  0.1224
 3611TIP3   OH232323   5.934   5.402   1.086 -0.8351 -0.2733 -0.6491
 3611TIP3    H132324   5.929   5.490   1.050 -0.4466  0.5395  1.1874
 3611TIP3    H232325   5.852   5.360   1.059 -1.5789  1.0539 -0.5256
 3612TIP3   OH232326   4.229   6.441   0.728 -0.1051  0.0223 -0.1315
 3612TIP3    H132327   4.288   6.513   0.704  0.4162 -0.6119 -0.7793
 3612TIP3    H232328   4.143   6.482   0.731 -0.0575  0.3739 -2.0709
 3613TIP3   OH232329   4.083   3.036  16.284 -0.1944  0.2967 -0.7234
 3613TIP3    H132330   4.053   2.952  16.250 -0.2904 -0.3324  0.8419
 3613TIP3    H232331   4.009   3.095  16.273  0.0575  0.3459 -2.3435
 3614TIP3   OH232332   2.584   1.496   3.197 -0.0386  0.2629  0.0344
 3614TIP3    H132333   2.612   1.407   3.220 -0.6841  0.3130  1.0512
 3614TIP3    H232334   2.496   1.485   3.163 -0.3109  0.5662  0.6311
 3615TIP3   OH232335   2.804   4.425  14.009 -0.3343  0.0738  0.2663
 3615TIP3    H132336   2.744   4.494  13.981 -0.2535  0.0390  0.0025
 3615TIP3    H232337   2.892   4.462  13.997 -0.2829 -0.1522 -0.0981
 3616TIP3   OH232338   0.473   1.481  16.667  0.0471  0.0340 -0.1038
 3616TIP3    H132339   0.389   1.460  16.627 -0.0700 -0.9765  0.6186
 3616TIP3    H232340   0.538   1.440  16.609 -0.1072 -1.1879  0.5399
 3617TIP3   OH232341   3.275   0.840  11.634  0.4415  0.2413 -0.1855
 3617TIP3    H132342   3.368   0.821  11.621  0.1408 -0.1307 -2.2841
 3617TIP3    H232343   3.230   0.762  11.600 -0.6361  0.6762  0.2039
 3618TIP3   OH232344   0.687   5.521   0.205 -0.5817  0.2252 -0.0839
 3618TIP3    H132345   0.709   5.614   0.206  0.2071  0.0458 -0.2742
 3618TIP3    H232346   0.706   5.492   0.294  0.8549 -0.1288 -0.4918
 3619TIP3   OH232347   0.695   4.750   2.711 -0.1630 -0.5743 -0.5232
 3619TIP3    H132348   0.698   4.841   2.739 -1.6358 -1.1897  2.0131
 3619TIP3    H232349   0.776   4.711   2.744 -0.3027 -0.5355 -0.1316
 3620TIP3   OH232350   2.451   0.439  16.924  0.0226  0.3427  0.0219
 3620TIP3    H132351   2.437   0.413  16.833 -1.0091 -0.2359  0.3302
 3620TIP3    H232352   2.544   0.424  16.939  0.2637  0.7159 -1.0195
 3621TIP3   OH232353   4.486   1.377   1.554 -0.4300 -0.0877 -0.0141
 3621TIP3    H132354   4.452   1.402   1.468  0.7990 -1.1755 -0.8513
 3621TIP3    H232355   4.471   1.282   1.558  0.8726 -0.2899  0.3268
 3622TIP3   OH232356   6.274   4.709   4.245  0.1102  0.0226  0.2214
 3622TIP3    H132357   6.340   4.660   4.294  0.3341  1.1248  1.0766
 3622TIP3    H232358   6.205   4.727   4.309 -1.8094 -2.4139 -1.0256
 3623TIP3   OH232359   4.020   2.917   4.949 -0.3703 -0.2923 -0.2740
 3623TIP3    H132360   3.950   2.888   5.008  0.2780 -0.7321  0.2871
 3623TIP3    H232361   4.002   3.010   4.936 -1.1763 -0.4377 -0.3024
 3624TIP3   OH232362   5.685   4.323   2.254  0.0160 -0.5459 -0.5484
 3624TIP3    H132363   5.630   4.385   2.206  0.4542  0.8409  0.6765
 3624TIP3    H232364   5.625   4.253   2.281 -0.6274 -0.3169 -1.3530
 3625TIP3   OH232365   6.066   4.343  14.497  0.4974 -0.3366 -0.0546
 3625TIP3    H132366   6.065   4.272  14.560  1.1346 -0.0583  0.2807
 3625TIP3    H232367   6.142   4.396  14.521 -0.9316  1.4416  0.7786
 3626TIP3   OH232368   3.153   3.414  15.603  0.3800 -0.1952  0.2885
 3626TIP3    H132369   3.110   3.494  15.633  1.4312  0.6307 -0.3699
 3626TIP3    H232370   3.157   3.423  15.507 -4.1305 -3.3572 -0.5171
 3627TIP3   OH232371   4.843   5.214   4.002  0.1896  0.6534  0.4043
 3627TIP3    H132372   4.938   5.219   3.990  0.2640  1.0185  1.0919
 3627TIP3    H232373   4.829   5.241   4.093 -0.3384 -2.0220  1.2055
 3628TIP3   OH232374   1.459   2.506  16.907  0.4672  0.0520 -0.2310
 3628TIP3    H132375   1.396   2.443  16.943  0.4991  0.0594 -0.1601
 3628TIP3    H232376   1.504   2.458  16.838  1.3494 -0.4087  0.6321
 3629TIP3   OH232377   4.909   1.048  13.357  0.3218 -0.1271 -0.3660
 3629TIP3    H132378   4.844   1.107  13.397  1.8460  1.4116 -0.0587
 3629TIP3    H232379   4.895   1.059  13.263 -0.4327 -0.4743 -0.3014
 3630TIP3   OH232380   0.393   6.018   1.001 -0.2558  0.3241 -0.3222
 3630TIP3    H132381   0.469   6.065   0.967 -1.3477  2.0230 -0.5264
 3630TIP3    H232382   0.413   6.002   1.093 -0.3837  2.4105  0.1081
 3631TIP3   OH232383   4.075   4.070  12.203 -0.3036  0.1756 -0.2949
 3631TIP3    H132384   4.091   4.163  12.219 -0.4145  0.1917 -0.2756
 3631TIP3    H232385   3.997   4.050  12.254  0.9000 -0.4268  1.3838
 3632TIP3   OH232386   0.840   2.354   3.609  0.4415  0.2509 -0.0547
 3632TIP3    H132387   0.819   2.354   3.516  1.4245  1.3354 -0.3016
 3632TIP3    H232388   0.755   2.354   3.653 -0.0364  0.5992 -0.9563
 3633TIP3   OH232389   5.140   0.717  13.181 -0.5006 -0.9326 -0.0489
 3633TIP3    H132390   5.120   0.638  13.231 -2.3108  0.0644  0.9019
 3633TIP3    H232391   5.117   0.789  13.240  0.2248  0.3108 -1.2283
 3634TIP3   OH232392   0.703   1.273   1.877  0.3268  0.3637 -0.1398
 3634TIP3    H132393   0.656   1.241   1.955  0.1224  1.1405  0.0690
 3634TIP3    H232394   0.740   1.194   1.837 -2.1286 -0.4628 -0.9681
 3635TIP3   OH232395   1.331   1.040   0.539  0.0568  0.0864 -0.1564
 3635TIP3    H132396   1.266   1.086   0.484  0.7563  0.6879 -0.5078
 3635TIP3    H232397   1.349   0.959   0.491  0.3155  0.3907 -0.5862
 3636TIP3   OH232398   1.173   1.505  10.709  0.9354 -0.2584 -0.0960
 3636TIP3    H132399   1.159   1.410  10.710  0.8214 -0.2461 -0.2945
 3636TIP3    H232400   1.146   1.532  10.621  0.2581  0.0610  0.1989
 3637TIP3   OH232401   5.434   5.648   4.311  0.4345  0.2262  0.2597
 3637TIP3    H132402   5.482   5.731   4.304 -0.6648  1.1136  2.3066
 3637TIP3    H232403   5.498   5.582   4.284  1.7931  1.6048 -0.0886
 3638TIP3   OH232404   4.368   0.952  14.452  0.4044 -0.4665  0.6004
 3638TIP3    H132405   4.346   1.026  14.395 -0.6705 -1.2504 -0.0202
 3638TIP3    H232406   4.437   0.906  14.404 -0.6787 -1.2743 -0.2372
 3639TIP3   OH232407   4.946   0.244  11.272  0.8966 -0.5902 -0.3230
 3639TIP3    H132408   4.852   0.233  11.286  0.6671  1.1420 -0.2807
 3639TIP3    H232409   4.982   0.251  11.360  0.9900 -0.7000 -0.3525
 3640TIP3   OH232410   4.496   3.009  12.278 -0.3391  0.8392 -0.3707
 3640TIP3    H132411   4.432   3.025  12.209 -2.1194  0.3994  1.1027
 3640TIP3    H232412   4.487   3.083  12.337  1.0634  1.1344 -0.4778
 3641TIP3   OH232413   0.945   5.298  11.606 -0.0213  0.5208 -0.6062
 3641TIP3    H132414   0.944   5.388  11.573 -0.2485  0.6798 -0.1647
 3641TIP3    H232415   0.969   5.245  11.529 -0.3285  0.9101 -0.9775
 3642TIP3   OH232416   2.867   6.359   5.373  0.2134 -0.1050 -0.2531
 3642TIP3    H132417   2.918   6.281   5.392 -1.1307 -0.6222  1.4084
 3642TIP3    H232418   2.921   6.432   5.406  0.0110 -0.6259  1.3102
 3643TIP3   OH232419   2.722   4.997  13.900 -0.2369  0.2868  0.0437
 3643TIP3    H132420   2.775   5.073  13.876  0.9514 -0.5475 -0.0673
 3643TIP3    H232421   2.729   4.938  13.824 -1.4882  0.2301 -0.0506
 3644TIP3   OH232422   6.285   4.791   3.343 -0.5083 -0.5779 -0.3441
 3644TIP3    H132423   6.363   4.845   3.334 -0.5312 -0.7412 -1.7173
 3644TIP3    H232424   6.215   4.853   3.360 -0.5213 -0.1365 -1.8395
 3645TIP3   OH232425   5.131   6.135   3.809 -0.1987  0.5527  0.4494
 3645TIP3    H132426   5.050   6.103   3.848 -0.6528  2.2001  0.9067
 3645TIP3    H232427   5.196   6.069   3.834 -0.9463  0.3612  2.0015
 3646TIP3   OH232428   5.407   0.797   4.119 -0.4387 -0.2648  0.6005
 3646TIP3    H132429   5.333   0.735   4.119 -2.0798  1.5680  1.7245
 3646TIP3    H232430   5.395   0.847   4.200  0.7364  1.5945 -0.3166
 3647TIP3   OH232431   3.136   4.765  15.235  0.1745 -0.3769 -0.2051
 3647TIP3    H132432   3.136   4.829  15.163  1.1462  0.5616  0.6017
 3647TIP3    H232433   3.227   4.739  15.243  0.4020  0.8066  1.7640
 3648TIP3   OH232434   3.797   6.683  15.276  0.4632  0.2528  0.0439
 3648TIP3    H132435   3.749   6.609  15.238  0.3645  1.2146 -1.8520
 3648TIP3    H232436   3.830   6.731  15.200  3.1193  0.5073  1.2649
 3649TIP3   OH232437   4.843   4.120  14.277  0.0006 -0.6814 -0.3392
 3649TIP3    H132438   4.787   4.175  14.222 -0.1678 -1.3636 -0.8693
 3649TIP3    H232439   4.879   4.180  14.342 -0.2975  0.0248 -0.8087
 3650TIP3   OH232440   5.505   3.074  13.034 -0.0960 -0.1341 -0.3660
 3650TIP3    H132441   5.453   3.127  13.095  0.1310 -0.7246  0.3547
 3650TIP3    H232442   5.504   2.986  13.072  2.5361  0.0942  0.4103
 3651TIP3   OH232443   5.377   3.229  11.132  0.7476  0.2109  0.0157
 3651TIP3    H132444   5.473   3.223  11.134  0.7583 -0.3863  3.4044
 3651TIP3    H232445   5.347   3.139  11.138  0.1708  0.4937  3.8178
 3652TIP3   OH232446   6.412   2.472   5.908 -0.1563 -0.4912  0.2342
 3652TIP3    H132447   6.507   2.478   5.893 -0.1202 -1.0938  0.2128
 3652TIP3    H232448   6.397   2.381   5.935 -0.6756 -0.2884  0.6400
 3653TIP3   OH232449   2.496   4.929   3.135  0.0679  0.0709 -0.2949
 3653TIP3    H132450   2.572   4.927   3.076  0.7285 -1.1397  0.5381
 3653TIP3    H232451   2.521   4.989   3.204 -1.2385  2.5559 -1.8303
 3654TIP3   OH232452   5.427   3.752  17.170  0.3490 -0.6769 -0.0564
 3654TIP3    H132453   5.341   3.710  17.174  0.0241  0.0279  0.6881
 3654TIP3    H232454   5.412   3.835  17.126  0.2632  0.2721  1.6585
 3655TIP3   OH232455   1.973   4.729   0.313  0.0160  0.0175  0.1511
 3655TIP3    H132456   2.055   4.745   0.360  0.0887  0.2918 -0.0665
 3655TIP3    H232457   1.998   4.731   0.220  0.3145 -2.7240  0.0734
 3656TIP3   OH232458   2.243   1.719   1.775  0.1228 -0.1571  0.0455
 3656TIP3    H132459   2.317   1.754   1.725  0.2016  1.0722  0.9716
 3656TIP3    H232460   2.281   1.693   1.859 -0.4041  0.0017  0.3401
 3657TIP3   OH232461   4.564   3.177   0.471 -0.3862  0.3902  0.4615
 3657TIP3    H132462   4.524   3.111   0.414  1.9249 -0.7996  0.1215
 3657TIP3    H232463   4.508   3.255   0.459 -1.2006 -0.4490 -1.8102
 3658TIP3   OH232464   4.988   1.105  15.047 -0.1852  0.4243  0.4782
 3658TIP3    H132465   5.011   1.198  15.043 -1.2702  0.6744 -0.8899
 3658TIP3    H232466   4.911   1.103  15.104  0.6371  0.1707  1.5937
 3659TIP3   OH232467   2.491   5.119  12.146  0.1860 -0.6303 -0.2977
 3659TIP3    H132468   2.410   5.118  12.198  0.1715  2.4758 -0.0478
 3659TIP3    H232469   2.461   5.129  12.056  0.2335  1.2549 -0.1375
 3660TIP3   OH232470   1.815   3.707  13.081  0.0749  0.0064  0.1783
 3660TIP3    H132471   1.755   3.646  13.039  0.8815 -1.3323  0.8861
 3660TIP3    H232472   1.899   3.659  13.084  0.5085  0.7946  1.5628
 3661TIP3   OH232473   1.222   2.211   2.837  0.3126  0.2394 -0.3519
 3661TIP3    H132474   1.136   2.209   2.796 -0.6358  1.5892  1.4135
 3661TIP3    H232475   1.227   2.129   2.887  0.5385 -0.3493 -1.3163
 3662TIP3   OH232476   1.101   5.281  14.410 -0.0233 -0.5398  0.0285
 3662TIP3    H132477   1.024   5.264  14.463 -0.7728 -0.4419 -1.0053
 3662TIP3    H232478   1.068   5.293  14.321  1.1610 -0.3337 -0.4130
 3663TIP3   OH232479   2.222   5.394   4.989  0.0269  0.0921  0.0213
 3663TIP3    H132480   2.223   5.337   5.066 -0.5225  0.1820  0.0964
 3663TIP3    H232481   2.149   5.454   5.004  0.3797  0.5917 -0.2253
 3664TIP3   OH232482   5.393   5.762   5.902  0.4039  0.0963  0.6956
 3664TIP3    H132483   5.358   5.719   5.824  2.6742 -1.6431  0.5190
 3664TIP3    H232484   5.317   5.776   5.958 -0.7559 -2.3653 -0.1101
 3665TIP3   OH232485   3.301   0.222  13.858  0.2827  0.4437 -0.4737
 3665TIP3    H132486   3.312   0.129  13.837 -0.1051  0.4882 -0.9035
 3665TIP3    H232487   3.313   0.227  13.953  1.1374  0.0860 -0.5562
 3666TIP3   OH232488   1.912   4.848  12.491  0.0471 -0.0176 -0.6758
 3666TIP3    H132489   1.838   4.908  12.506 -0.7897 -0.7383 -1.8180
 3666TIP3    H232490   1.961   4.888  12.419  0.6273  0.3031 -0.1176
 3667TIP3   OH232491   1.610   1.809   6.158  0.3424  0.0988  0.2052
 3667TIP3    H132492   1.638   1.743   6.221  0.1892  0.0682  0.2433
 3667TIP3    H232493   1.531   1.771   6.118  0.0151  0.4348  0.5248
 3668TIP3   OH232494   5.645   5.802   1.807  0.1675 -0.2764 -0.2111
 3668TIP3    H132495   5.591   5.878   1.788 -0.5607 -0.3700  1.3333
 3668TIP3    H232496   5.587   5.742   1.855  1.9892  0.3402  3.0818
 3669TIP3   OH232497   5.337   0.337   5.136  0.5555 -0.1135  0.3915
 3669TIP3    H132498   5.358   0.362   5.226 -0.2728  0.1753  0.5172
 3669TIP3    H232499   5.265   0.275   5.145 -2.1950  2.7568 -0.1604
 3670TIP3   OH232500   4.150   5.040  16.408 -0.1586  0.2212 -0.2347
 3670TIP3    H132501   4.192   5.117  16.369  1.1062  0.2137  1.0120
 3670TIP3    H232502   4.060   5.069  16.426 -0.3334  0.6980 -1.6952
 3671TIP3   OH232503   5.865   5.400  16.021 -0.9858  0.4741 -0.0336
 3671TIP3    H132504   5.893   5.452  16.096 -0.6358  0.7844 -0.3762
 3671TIP3    H232505   5.887   5.454  15.945  1.5043 -1.0825 -0.5388
 3672TIP3   OH232506   4.190   3.165   5.098 -0.3831  0.0729 -0.0600
 3672TIP3    H132507   4.186   3.073   5.124 -0.3345 -0.1513 -0.8254
 3672TIP3    H232508   4.284   3.185   5.098 -0.3033 -0.2615 -1.1830
 3673TIP3   OH232509   1.344   5.640   5.935 -0.4701 -0.3402 -0.6994
 3673TIP3    H132510   1.375   5.554   5.906  0.2401 -0.2676 -0.2056
 3673TIP3    H232511   1.404   5.663   6.007 -0.9614  0.3450 -0.5033
 3674TIP3   OH232512   6.335   4.363  12.808 -0.8435 -0.3543 -0.0765
 3674TIP3    H132513   6.360   4.456  12.808 -1.1421 -0.2344  1.9927
 3674TIP3    H232514   6.241   4.364  12.789 -0.9619 -0.1879  0.5105
 3675TIP3   OH232515   4.017   6.140   1.535 -0.4066  0.8297  0.5657
 3675TIP3    H132516   4.106   6.169   1.555 -1.0072  2.1798  1.4695
 3675TIP3    H232517   3.980   6.209   1.481 -0.2196 -0.7907 -1.7539
 3676TIP3   OH232518   0.304   5.476   5.586  0.0962  0.1640  0.2553
 3676TIP3    H132519   0.364   5.524   5.643 -0.6011  1.2144  0.1410
 3676TIP3    H232520   0.239   5.541   5.559  0.5066 -0.2419 -1.9073
 3677TIP3   OH232521   5.302   0.428   5.992  0.4817 -0.4610  0.2578
 3677TIP3    H132522   5.231   0.425   6.056 -2.0937  0.8331 -2.3052
 3677TIP3    H232523   5.281   0.358   5.930  0.0833  1.3297 -1.7525
 3678TIP3   OH232524   3.377   3.039   1.333  0.0537 -0.5134  0.0088
 3678TIP3    H132525   3.428   3.105   1.286 -1.2627 -0.2267 -1.0881
 3678TIP3    H232526   3.292   3.039   1.289 -1.1350 -0.5256  2.1807
 3679TIP3   OH232527   5.112   4.778  14.160  0.1694  0.2168  0.3153
 3679TIP3    H132528   5.132   4.756  14.251  1.2646 -1.5653 -0.3185
 3679TIP3    H232529   5.190   4.754  14.112 -0.5056  0.8654 -1.1510
 3680TIP3   OH232530   1.939   2.280  10.559 -0.0283  0.2187  0.1177
 3680TIP3    H132531   1.850   2.298  10.532 -0.1257  1.0298  0.9240
 3680TIP3    H232532   1.953   2.188  10.538 -0.8983  0.2059 -0.4203
 3681TIP3   OH232533   1.241   6.381  10.851  0.2222 -0.6365 -0.0856
 3681TIP3    H132534   1.169   6.403  10.791  1.5182 -1.3426 -1.9975
 3681TIP3    H232535   1.198   6.340  10.926 -1.6347  1.9459  0.4000
 3682TIP3   OH232536   6.305   0.400  11.633 -0.3291 -0.5880 -0.2569
 3682TIP3    H132537   6.375   0.382  11.696 -0.2304 -0.8735 -0.4453
 3682TIP3    H232538   6.351   0.419  11.551 -0.4605 -0.3631 -0.2778
 3683TIP3   OH232539   0.862   1.024  12.639 -0.4692 -0.4133 -0.3248
 3683TIP3    H132540   0.953   1.005  12.659 -0.1313  0.2410 -1.1852
 3683TIP3    H232541   0.813   0.987  12.712  0.6403  1.1265  1.2647
 3684TIP3   OH232542   4.475   2.773  15.062  0.2222 -0.1165  0.0394
 3684TIP3    H132543   4.399   2.718  15.079 -0.0831  0.5776  1.0371
 3684TIP3    H232544   4.500   2.806  15.148  1.1412  0.3426 -0.3852
 3685TIP3   OH232545   4.068   1.922   4.504  0.3165 -0.6069 -0.0058
 3685TIP3    H132546   4.103   2.010   4.519 -0.9825 -0.1006  0.1534
 3685TIP3    H232547   4.126   1.864   4.554  0.1250  0.3383  1.3532
 3686TIP3   OH232548   1.024   2.494  15.276  0.1845  0.6952 -0.1063
 3686TIP3    H132549   1.011   2.430  15.206  1.8095  1.8340 -1.5238
 3686TIP3    H232550   1.009   2.579  15.235 -1.3327  1.3214  1.5995
 3687TIP3   OH232551   5.062   1.342   4.428 -0.1506  0.1703  0.3097
 3687TIP3    H132552   5.101   1.262   4.464  0.6867  1.7001  3.0693
 3687TIP3    H232553   5.128   1.375   4.367  0.8927  0.3319  1.4949
 3688TIP3   OH232554   2.948   1.381  15.234  0.3062  0.0867  0.3434
 3688TIP3    H132555   2.922   1.439  15.305  0.5078 -0.4644  0.8806
 3688TIP3    H232556   2.941   1.434  15.155  0.0720  0.7052  0.7746
 3689TIP3   OH232557   1.642   3.779  16.278 -0.2315  0.4852 -0.2623
 3689TIP3    H132558   1.715   3.830  16.312  1.0263 -1.5531  0.2722
 3689TIP3    H232559   1.564   3.819  16.317  0.8585  0.7657  1.7563
 3690TIP3   OH232560   1.258   1.496   4.862 -0.2030 -0.5124  0.0896
 3690TIP3    H132561   1.238   1.406   4.888 -0.6463 -0.7153 -0.8901
 3690TIP3    H232562   1.262   1.493   4.766  1.0371  0.2598  0.0881
 3691TIP3   OH232563   1.351   5.404  15.282 -0.2417 -0.6862  0.3513
 3691TIP3    H132564   1.434   5.415  15.236  0.4059 -1.9217  1.1742
 3691TIP3    H232565   1.291   5.372  15.215  0.1314 -0.4564 -0.1007
 3692TIP3   OH232566   2.660   1.574   6.606  0.4960  0.2745  0.3818
 3692TIP3    H132567   2.566   1.557   6.611  0.0175  2.2993 -0.4575
 3692TIP3    H232568   2.666   1.669   6.592  2.6928  0.2728  0.9589
 3693TIP3   OH232569   6.064   2.156  15.624  0.7001 -0.2722 -0.0424
 3693TIP3    H132570   6.016   2.073  15.622 -1.2946  0.8039  0.7033
 3693TIP3    H232571   6.072   2.177  15.717 -0.0983  1.0489 -0.2504
 3694TIP3   OH232572   2.947   4.343  14.890  0.7087  0.3168 -0.2266
 3694TIP3    H132573   2.861   4.310  14.916  0.5295 -0.7567 -1.9973
 3694TIP3    H232574   2.936   4.368  14.798  1.8445  1.8551  0.0170
 3695TIP3   OH232575   0.408   5.380   5.348 -0.1775  0.3561 -0.1872
 3695TIP3    H132576   0.391   5.406   5.439 -2.2709 -2.0429  0.2127
 3695TIP3    H232577   0.503   5.380   5.341  0.1508 -1.3071  2.6671
 3696TIP3   OH232578   1.200   4.687  15.178 -0.1221 -0.0408 -0.1921
 3696TIP3    H132579   1.260   4.729  15.117  1.3307 -0.3715  0.9481
 3696TIP3    H232580   1.188   4.752  15.247  1.8993 -1.2478  1.4277
 3697TIP3   OH232581   2.500   5.614  14.359  0.5113  0.0569  0.2198
 3697TIP3    H132582   2.454   5.664  14.292 -0.3373 -1.2719 -0.2342
 3697TIP3    H232583   2.566   5.674  14.392  0.2061  1.1292 -1.0122
 3698TIP3   OH232584   0.166   6.628  16.610  0.2128 -0.0396  0.8460
 3698TIP3    H132585   0.188   6.605  16.520  0.9149 -0.8339  1.2146
 3698TIP3    H232586   0.219   6.706  16.627 -1.3795  1.3169 -0.0461
 3699TIP3   OH232587   4.128   0.009  12.365 -0.0153 -0.0638  0.3193
 3699TIP3    H132588   4.193  -0.007  12.297 -0.0984 -1.5491  0.5464
 3699TIP3    H232589   4.044  -0.005  12.322 -0.2513  2.0915 -0.0399
 3700TIP3   OH232590   3.501   0.204  16.883 -0.2205  0.0411 -0.2904
 3700TIP3    H132591   3.554   0.186  16.960  0.8346  0.1944 -0.9603
 3700TIP3    H232592   3.563   0.207  16.811 -1.3348 -1.4905 -1.3952
 3701TIP3   OH232593   1.064   5.279  16.785 -0.0916  0.7754 -0.0557
 3701TIP3    H132594   0.977   5.299  16.751 -0.5877 -0.4213  0.4710
 3701TIP3    H232595   1.080   5.348  16.851 -0.5440  1.1236 -0.2995
 3702TIP3   OH232596   6.122   0.081  16.324 -0.0327 -0.1205  1.0076
 3702TIP3    H132597   6.057   0.038  16.269 -1.1001  2.3321  0.2281
 3702TIP3    H232598   6.197   0.021  16.324 -1.7695 -2.4510  0.9273
 3703TIP3   OH232599   4.692   6.350  12.744 -0.3979  0.0040 -0.3312
 3703TIP3    H132600   4.620   6.312  12.794 -3.3159  0.8652 -3.5156
 3703TIP3    H232601   4.682   6.444  12.753  0.9907  0.1566 -0.0711
 3704TIP3   OH232602   6.536   4.204  11.989  0.2189  0.6390  0.3047
 3704TIP3    H132603   6.507   4.117  12.017  0.7192  0.5530  0.5797
 3704TIP3    H232604   6.506   4.263  12.059 -1.2504  0.8941 -0.5014
 3705TIP3   OH232605   2.643   6.599   4.004 -0.4420 -0.3190 -0.0434
 3705TIP3    H132606   2.682   6.557   3.927  0.2562  0.5438 -0.1678
 3705TIP3    H232607   2.693   6.563   4.078 -0.0418  0.0482 -0.1278
 3706TIP3   OH232608   2.053   2.074  12.563 -0.4058 -0.3914 -0.5448
 3706TIP3    H132609   2.103   2.115  12.493  0.2448  0.0484  0.1638
 3706TIP3    H232610   1.964   2.105  12.551 -0.1038  0.4683 -0.5874
 3707TIP3   OH232611   4.674   3.483  16.002 -0.9281  0.6094  0.1031
 3707TIP3    H132612   4.623   3.506  16.080 -2.6297 -0.0802 -0.7381
 3707TIP3    H232613   4.618   3.421  15.955  1.4851 -1.6142 -0.0219
 3708TIP3   OH232614   1.119   2.060  12.626  0.3316 -0.0982  0.2210
 3708TIP3    H132615   1.124   2.139  12.679 -1.3903  0.3187 -0.1743
 3708TIP3    H232616   1.037   2.068  12.577 -0.0607 -2.2705  0.3990
 3709TIP3   OH232617   0.993   0.045   1.575  0.3099 -0.3387  0.0671
 3709TIP3    H132618   0.954  -0.032   1.533  2.2009 -0.7972 -0.9468
 3709TIP3    H232619   0.988   0.025   1.669 -0.4566 -1.0685 -0.1082
 3710TIP3   OH232620   2.711   4.360  15.425 -0.0039  0.0866 -0.1713
 3710TIP3    H132621   2.624   4.319  15.422 -0.4236  0.8322  1.0757
 3710TIP3    H232622   2.751   4.336  15.341 -1.1438 -0.8383 -0.4886
 3711TIP3   OH232623   1.944   3.137   1.890  0.3256  0.2996  0.6379
 3711TIP3    H132624   1.926   3.133   1.797  0.0125  1.0826  0.6631
 3711TIP3    H232625   1.885   3.204   1.924 -0.9535 -1.2847  1.7344
 3712TIP3   OH232626   5.827   3.166   3.384  0.1753  0.3460  0.5964
 3712TIP3    H132627   5.876   3.090   3.417  0.3156  0.4327  0.5897
 3712TIP3    H232628   5.893   3.218   3.337 -0.3336 -0.6209 -1.3018
 3713TIP3   OH232629   4.408   6.623   0.393  0.2788  0.5258 -0.0866
 3713TIP3    H132630   4.450   6.706   0.370  2.5125 -0.9072 -1.7149
 3713TIP3    H232631   4.446   6.560   0.331 -1.3071 -1.7146  1.0859
 3714TIP3   OH232632   3.891   2.824   1.650 -0.1399  0.3554 -0.0924
 3714TIP3    H132633   3.819   2.771   1.618 -0.5031  0.2875  0.7886
 3714TIP3    H232634   3.969   2.787   1.610 -0.4647 -0.3809 -0.0500
 3715TIP3   OH232635   0.690   0.211  14.304  0.6013 -0.3971 -0.2096
 3715TIP3    H132636   0.784   0.232  14.309  0.4020  0.9612 -1.4098
 3715TIP3    H232637   0.655   0.274  14.241 -1.2180 -0.5837  0.5572
 3716TIP3   OH232638   4.565   4.979  15.121  0.3952 -0.0885 -0.2611
 3716TIP3    H132639   4.565   5.074  15.137  1.2879 -0.2755  1.0009
 3716TIP3    H232640   4.473   4.958  15.103 -0.0367  0.8213  0.7503
 3717TIP3   OH232641   2.512   4.278  13.523 -0.1149  0.5493 -0.1353
 3717TIP3    H132642   2.600   4.312  13.538  0.9757 -1.0667 -2.2100
 3717TIP3    H232643   2.512   4.192  13.565 -1.3095  1.1865  1.2542
 3718TIP3   OH232644   1.068   4.833  15.986  0.0654 -0.0485  0.0753
 3718TIP3    H132645   1.060   4.765  16.052 -2.1174  1.6067  1.6654
 3718TIP3    H232646   1.135   4.892  16.020  0.2371 -0.1328 -0.1114
 3719TIP3   OH232647   6.360   0.242   3.485  0.2185  0.2139 -0.2515
 3719TIP3    H132648   6.401   0.327   3.471 -1.1438  0.8667 -0.4172
 3719TIP3    H232649   6.318   0.249   3.571 -1.0211  0.1971 -0.8372
 3720TIP3   OH232650   3.861   6.472   0.406 -0.4522  0.0925 -0.4982
 3720TIP3    H132651   3.937   6.490   0.350  0.2562  1.4847  0.8484
 3720TIP3    H232652   3.807   6.551   0.398 -0.0043  0.6086  1.2674
 3721TIP3   OH232653   5.827   1.165   4.281  0.6139  0.2273  0.1531
 3721TIP3    H132654   5.741   1.203   4.262  0.3031 -0.1830  0.6994
 3721TIP3    H232655   5.837   1.096   4.215  0.2938 -0.0645  0.4053
 3722TIP3   OH232656   4.275   6.327   3.322  0.1786 -0.2490 -0.1914
 3722TIP3    H132657   4.271   6.420   3.303 -1.6961 -0.4508 -1.0031
 3722TIP3    H232658   4.360   6.299   3.289 -0.7084  0.4870 -3.3640
 3723TIP3   OH232659   2.679   5.210  12.873 -0.0993 -0.3509 -0.3543
 3723TIP3    H132660   2.769   5.183  12.891 -0.1873 -0.4756 -0.0947
 3723TIP3    H232661   2.685   5.304  12.858 -0.2302  0.0571  1.8808
 3724TIP3   OH232662   1.775   0.291  13.227 -0.0062  0.0687 -0.4761
 3724TIP3    H132663   1.681   0.310  13.220 -0.1480  0.6283  2.1236
 3724TIP3    H232664   1.789   0.274  13.320  2.5218  0.1479 -0.7931
 3725TIP3   OH232665   2.520   6.377   6.831 -0.2340 -0.3515 -0.5113
 3725TIP3    H132666   2.510   6.399   6.738 -1.0087  1.2031 -0.0956
 3725TIP3    H232667   2.449   6.315   6.849  0.2907 -1.1377 -1.0766
 3726TIP3   OH232668   1.300   3.073  13.433  0.1548  0.2206 -0.1761
 3726TIP3    H132669   1.281   3.005  13.368 -0.7097 -0.0971  0.3908
 3726TIP3    H232670   1.395   3.082  13.431  0.1422  0.2821 -1.5399
 3727TIP3   OH232671   2.414   2.404   5.460  0.3885  0.0682 -0.0147
 3727TIP3    H132672   2.382   2.355   5.385  0.2924  0.9771 -0.5705
 3727TIP3    H232673   2.395   2.347   5.535  0.3684 -0.7862 -0.6493
 3728TIP3   OH232674   6.170   1.880  14.245 -0.1658  0.1932  0.1323
 3728TIP3    H132675   6.093   1.831  14.217 -0.4251  0.1208  0.9633
 3728TIP3    H232676   6.238   1.813  14.256  0.1744  0.3129 -1.0861
 3729TIP3   OH232677   0.493   4.702  10.420  0.2381  0.3179 -0.0544
 3729TIP3    H132678   0.574   4.737  10.456 -0.4826  0.5296  1.4476
 3729TIP3    H232679   0.424   4.757  10.457 -0.7252 -1.0282  0.2509
 3730TIP3   OH232680   6.763   6.675  16.021  0.0212  0.2299 -0.1935
 3730TIP3    H132681   6.684   6.728  16.016 -0.2783 -0.3043 -2.2990
 3730TIP3    H232682   6.741   6.595  15.972  2.5287  1.0294 -2.8968
 3731TIP3   OH232683   6.517   2.448   0.280 -0.0597 -0.2953  0.3267
 3731TIP3    H132684   6.505   2.517   0.345  0.1940  0.1457 -0.0897
 3731TIP3    H232685   6.598   2.472   0.234  0.2417 -1.0747  0.4337
 3732TIP3   OH232686   2.472   1.755   5.985 -0.4022 -0.0596  0.1975
 3732TIP3    H132687   2.537   1.815   6.021 -0.8794  0.7550 -0.2668
 3732TIP3    H232688   2.461   1.783   5.894 -3.2316  1.5078  0.9087
 3733TIP3   OH232689   4.183   3.801   5.391  0.1640 -0.4772  0.0881
 3733TIP3    H132690   4.190   3.824   5.298  1.3509 -1.9417 -0.2226
 3733TIP3    H232691   4.252   3.851   5.434  2.1600 -2.5385 -0.4580
 3734TIP3   OH232692   6.501   3.461  12.341 -0.3426  0.2675  0.3023
 3734TIP3    H132693   6.534   3.401  12.408  1.4619 -2.4202 -2.7249
 3734TIP3    H232694   6.576   3.519  12.324 -0.9421  1.2245  0.8333
 3735TIP3   OH232695   1.853   6.650  12.734 -0.3570 -0.4218  0.2427
 3735TIP3    H132696   1.821   6.570  12.777  1.4257 -0.4282  1.6701
 3735TIP3    H232697   1.844   6.631  12.640 -0.2638 -2.1943  0.5411
 3736TIP3   OH232698   2.984   3.421   2.520 -0.4604  0.1525  0.6615
 3736TIP3    H132699   3.031   3.338   2.526  0.9886  0.9825  1.3568
 3736TIP3    H232700   3.052   3.486   2.503 -0.7842  1.8667  4.7081
 3737TIP3   OH232701   3.588   6.719   0.737 -0.0497  0.0774 -0.2336
 3737TIP3    H132702   3.556   6.703   0.826  0.1696  1.7826  0.1765
 3737TIP3    H232703   3.572   6.812   0.721 -0.4285 -0.2794 -2.1389
 3738TIP3   OH232704   4.157   3.288  15.826  0.5225  0.4858  0.0587
 3738TIP3    H132705   4.108   3.206  15.826  1.3322 -0.0018 -0.3386
 3738TIP3    H232706   4.094   3.353  15.793  0.2465 -0.1984 -0.7932
 3739TIP3   OH232707   3.809   0.673  12.231  0.2977 -0.1559 -0.1433
 3739TIP3    H132708   3.817   0.657  12.137  1.9635  0.7748 -0.2167
 3739TIP3    H232709   3.832   0.590  12.272  1.7894  0.0028 -0.5770
 3740TIP3   OH232710   1.249   2.734  12.530  0.4105 -0.4342  0.0707
 3740TIP3    H132711   1.312   2.806  12.533  0.2257 -0.2718  0.0374
 3740TIP3    H232712   1.273   2.685  12.451  0.4534 -0.3350  0.0217
 3741TIP3   OH232713   3.381   4.038  13.685  0.0973  0.2807 -0.2476
 3741TIP3    H132714   3.330   4.118  13.683  1.4786  1.2779  1.8648
 3741TIP3    H232715   3.472   4.066  13.673  0.3908 -1.3225 -2.6655
 3742TIP3   OH232716   1.135   3.603  17.098  0.7820  0.0182  0.0856
 3742TIP3    H132717   1.073   3.537  17.127 -0.1563  1.2572  1.0250
 3742TIP3    H232718   1.210   3.593  17.157  1.2536 -1.0853 -0.6663
 3743TIP3   OH232719   6.806   5.165   2.268 -0.2113  0.2180  0.6744
 3743TIP3    H132720   6.838   5.076   2.258  1.6430  0.8335  0.7286
 3743TIP3    H232721   6.805   5.180   2.362  3.3158  1.4467  0.6830
 3744TIP3   OH232722   5.144   2.200  15.014  0.5055  0.3867  0.0196
 3744TIP3    H132723   5.137   2.146  15.092  1.1773 -1.0481 -0.8816
 3744TIP3    H232724   5.223   2.253  15.028 -0.7477  1.9719  1.3766
 3745TIP3   OH232725   5.889   5.472  15.357  0.0294 -0.2564  0.5445
 3745TIP3    H132726   5.926   5.463  15.269 -0.7255  1.9232 -0.0573
 3745TIP3    H232727   5.824   5.541  15.349 -1.2839 -1.1774  2.4785
 3746TIP3   OH232728   2.031   3.469  12.039 -0.1403 -0.0142 -0.1435
 3746TIP3    H132729   2.047   3.546  12.093  1.6933  0.0523 -0.7304
 3746TIP3    H232730   2.029   3.502  11.949 -2.3447 -0.2456 -0.2350
 3747TIP3   OH232731   6.548   0.765  11.763  0.2659 -0.3001 -0.9096
 3747TIP3    H132732   6.532   0.804  11.849 -0.6112 -0.5458 -0.9570
 3747TIP3    H232733   6.562   0.672  11.781  1.3463 -0.1508 -0.9068
 3748TIP3   OH232734   6.636   0.313  14.505 -0.0125  0.6085  1.1126
 3748TIP3    H132735   6.629   0.319  14.600  0.3776  0.9269  1.1289
 3748TIP3    H232736   6.660   0.222  14.488  0.9312  0.7885  1.3998
 3749TIP3   OH232737   4.010   2.511   2.921 -0.2479 -0.2940 -0.2316
 3749TIP3    H132738   3.948   2.467   2.862 -1.7326 -1.1153  1.8456
 3749TIP3    H232739   4.096   2.478   2.894 -0.8784 -0.7199 -1.8429
 3750TIP3   OH232740   0.664   0.809   3.044 -0.1798  0.8219 -0.0302
 3750TIP3    H132741   0.618   0.774   3.120  0.7603 -0.8582 -0.1969
 3750TIP3    H232742   0.752   0.830   3.076 -0.1139  1.1525 -0.4117
 3751TIP3   OH232743   5.793   4.824  14.688 -0.4131  0.3867 -0.9081
 3751TIP3    H132744   5.815   4.758  14.754  1.9987  1.0716 -0.9493
 3751TIP3    H232745   5.698   4.816  14.677 -0.5593 -1.2403  1.0175
 3752TIP3   OH232746   5.121   4.472   1.051 -0.1655  0.4589  0.3062
 3752TIP3    H132747   5.062   4.450   0.979  0.8423  0.3470 -0.5054
 3752TIP3    H232748   5.107   4.403   1.116  0.0617 -0.3303 -0.4768
 3753TIP3   OH232749   0.626   6.645  11.346 -0.2146 -0.3887  0.2611
 3753TIP3    H132750   0.547   6.592  11.359  0.5306 -1.8401 -0.8176
 3753TIP3    H232751   0.628   6.664  11.253 -0.5043  1.6949  0.6310
 3754TIP3   OH232752   4.798   2.962  15.075 -0.1587  0.1000 -0.0201
 3754TIP3    H132753   4.781   3.029  15.009 -1.8766 -1.0609 -0.8511
 3754TIP3    H232754   4.780   3.004  15.159  0.4436  1.1355 -0.4005
 3755TIP3   OH232755   6.739   1.570  16.111 -0.0198 -0.7083  0.0099
 3755TIP3    H132756   6.812   1.629  16.092  1.4468 -2.5670 -0.4391
 3755TIP3    H232757   6.736   1.511  16.035 -0.0413 -2.5135  1.3603
 3756TIP3   OH232758   4.378   2.229  13.432  0.7934  0.0084 -0.0180
 3756TIP3    H132759   4.315   2.244  13.362 -0.3177  0.8275  1.1262
 3756TIP3    H232760   4.367   2.303  13.491  0.2510 -1.6368  2.0682
 3757TIP3   OH232761   4.226   0.052  15.103 -0.6515 -0.0364  0.1968
 3757TIP3    H132762   4.187   0.114  15.164 -0.2752 -1.6749  2.1927
 3757TIP3    H232763   4.160  -0.016  15.091 -0.2254 -0.3836 -0.2205
 3758TIP3   OH232764   4.093   1.137  12.902 -0.0906  0.2705 -0.1328
 3758TIP3    H132765   4.017   1.086  12.929  1.0303 -1.4225 -0.0487
 3758TIP3    H232766   4.163   1.109  12.960  0.0981  3.6459  1.5302
 3759TIP3   OH232767   3.811   1.522  16.678 -0.1383 -0.3703 -0.5214
 3759TIP3    H132768   3.793   1.431  16.701  0.0213  0.0157  1.3293
 3759TIP3    H232769   3.905   1.532  16.691 -0.5571  0.8322  2.7651
 3760TIP3   OH232770   6.805   1.743   2.085 -0.4678  0.4055  0.6036
 3760TIP3    H132771   6.720   1.707   2.109 -0.3281 -0.1367  0.3059
 3760TIP3    H232772   6.837   1.686   2.015 -0.0003  0.7908  0.4907
 3761TIP3   OH232773   2.185   2.915   4.017  0.3349 -0.7176  0.0296
 3761TIP3    H132774   2.108   2.862   3.994 -0.5379 -0.2044  1.5696
 3761TIP3    H232775   2.235   2.860   4.076  0.1231 -0.3515  0.5648
 3762TIP3   OH232776   5.446   1.664  15.186  0.3449  0.5771  0.7162
 3762TIP3    H132777   5.440   1.737  15.124  0.2310  0.4878  0.6211
 3762TIP3    H232778   5.355   1.640  15.203  0.3315  1.2512  1.6900
 3763TIP3   OH232779   0.274   1.646  11.267 -0.2784  0.1958  0.3509
 3763TIP3    H132780   0.249   1.563  11.307 -3.0942  1.5365  1.6852
 3763TIP3    H232781   0.191   1.687  11.242  1.1188  1.6866 -2.3483
 3764TIP3   OH232782   3.482   1.487  12.333  0.1702  0.1707  0.5730
 3764TIP3    H132783   3.443   1.571  12.306 -2.4111 -0.4963  1.8662
 3764TIP3    H232784   3.488   1.437  12.251  1.3731  1.4177 -0.1533
 3765TIP3   OH232785   6.492   2.487  16.885  0.0066 -0.3213 -0.4668
 3765TIP3    H132786   6.489   2.582  16.873  0.4943 -0.3095 -0.5096
 3765TIP3    H232787   6.578   2.470  16.925  0.2569 -0.8208 -1.2027
 3766TIP3   OH232788   2.775   0.911   2.592  0.5950  0.0264  0.5075
 3766TIP3    H132789   2.805   0.936   2.679 -1.3703 -0.8103  1.4793
 3766TIP3    H232790   2.700   0.968   2.575  1.2291  0.5034 -0.8742
 3767TIP3   OH232791   0.964   4.375   4.125 -0.0056  0.6135  0.1565
 3767TIP3    H132792   0.886   4.364   4.070 -0.0493  1.4889  0.0303
 3767TIP3    H232793   0.930   4.379   4.214 -0.1824  1.5804  0.0621
 3768TIP3   OH232794   1.937   3.259   0.168 -0.2441  0.2954  0.5556
 3768TIP3    H132795   2.026   3.292   0.156  0.6094 -2.3993 -1.5003
 3768TIP3    H232796   1.941   3.209   0.250 -0.2801  1.3431  1.2080
 3769TIP3   OH232797   4.931   6.102  13.223  0.6387 -0.7908 -0.1089
 3769TIP3    H132798   4.912   6.020  13.178  0.6035 -0.8930  0.0964
 3769TIP3    H232799   5.022   6.093  13.252 -0.2396 -1.9601  2.5226
 3770TIP3   OH232800   5.028   1.179   4.770  0.2569  0.5787 -0.6288
 3770TIP3    H132801   5.101   1.200   4.712  1.0341  0.7882  0.3990
 3770TIP3    H232802   5.018   1.084   4.765  2.5912  0.1103  1.4525
 3771TIP3   OH232803   2.133   0.510  13.447  0.0319  0.0725 -0.1084
 3771TIP3    H132804   2.181   0.436  13.410 -0.7351 -0.6689  0.3695
 3771TIP3    H232805   2.129   0.574  13.375  0.6062 -0.3804 -0.5526
 3772TIP3   OH232806   4.888   1.773  16.736 -0.7185 -0.1937  0.1250
 3772TIP3    H132807   4.957   1.805  16.795 -1.2670  1.9439 -0.3386
 3772TIP3    H232808   4.881   1.680  16.757  1.2942 -0.1599  1.2046
 3773TIP3   OH232809   4.279   1.151  13.299  0.4767 -0.0179 -0.4292
 3773TIP3    H132810   4.292   1.231  13.248  0.0187 -0.1440 -0.7545
 3773TIP3    H232811   4.204   1.108  13.257  0.1492 -0.1670  0.2915
 3774TIP3   OH232812   2.367   5.887   2.221  0.9001 -0.9995 -0.5114
 3774TIP3    H132813   2.448   5.929   2.250  0.4177 -0.9272  0.7987
 3774TIP3    H232814   2.343   5.828   2.293 -1.1121  0.2424 -0.0931
 3775TIP3   OH232815   3.012   1.075   0.115 -0.6823 -0.2444  0.0614
 3775TIP3    H132816   2.956   1.153   0.119 -0.0037  0.2233  0.7182
 3775TIP3    H232817   3.081   1.098   0.053 -0.4782 -0.3197  0.2600
 3776TIP3   OH232818   5.376   4.243  12.896  0.2253  0.5453  0.3995
 3776TIP3    H132819   5.281   4.235  12.910  0.0937  0.9701 -0.2433
 3776TIP3    H232820   5.391   4.337  12.884  0.6182  0.4028 -0.2649
 3777TIP3   OH232821   6.534   6.826   2.245 -0.2687 -0.1146 -0.4595
 3777TIP3    H132822   6.463   6.864   2.194  1.6716  1.6733 -2.0529
 3777TIP3    H232823   6.576   6.764   2.186 -1.6187 -2.7786  1.1585
 3778TIP3   OH232824   3.696   2.211  12.962 -0.0939 -0.0014 -0.0939
 3778TIP3    H132825   3.601   2.207  12.948 -0.2664  0.1982  0.8933
 3778TIP3    H232826   3.718   2.302  12.942 -0.2956  0.2181  0.6249
 3779TIP3   OH232827   6.060   5.093  10.798  0.2256 -0.0253  0.2968
 3779TIP3    H132828   5.988   5.150  10.773  0.3511  0.1517  0.3399
 3779TIP3    H232829   6.069   5.032  10.724  0.6822  0.5806 -0.1531
 3780TIP3   OH232830   5.498   4.527  17.056  0.4049  0.2894 -0.0728
 3780TIP3    H132831   5.473   4.617  17.076 -0.9211 -0.3055  1.0827
 3780TIP3    H232832   5.415   4.480  17.047  1.0783 -0.9209 -0.1853
 3781TIP3   OH232833   0.062   1.264   2.978 -0.6326  0.5398  0.0135
 3781TIP3    H132834  -0.033   1.256   2.987 -0.8078  2.1480 -0.1330
 3781TIP3    H232835   0.076   1.297   2.890  0.0425  0.6572  0.1567
 3782TIP3   OH232836   5.248   2.640  11.541  0.3883  0.5422  0.1884
 3782TIP3    H132837   5.227   2.668  11.630 -2.2408  0.7826 -0.4241
 3782TIP3    H232838   5.247   2.545  11.545  2.2230  0.4948  0.7563
 3783TIP3   OH232839   1.617   3.984   5.680  0.3303 -0.3474  0.3439
 3783TIP3    H132840   1.584   3.894   5.676 -1.9480  0.4836 -1.1552
 3783TIP3    H232841   1.558   4.029   5.740 -0.0206  0.6829 -0.7369
 3784TIP3   OH232842   2.202   6.242   6.485  0.4308  0.2937 -0.1268
 3784TIP3    H132843   2.128   6.286   6.526  0.7904 -0.0721  0.9368
 3784TIP3    H232844   2.185   6.249   6.391 -0.9367  0.2510  0.0977
 3785TIP3   OH232845   1.944   2.901   2.216 -0.3288  0.6822 -0.0109
 3785TIP3    H132846   1.983   2.815   2.233 -2.4645 -0.8780 -2.2603
 3785TIP3    H232847   2.016   2.955   2.183  0.7837 -0.6863  0.0979
 3786TIP3   OH232848   1.069   1.227   5.285  0.1191 -0.4819 -0.3854
 3786TIP3    H132849   1.089   1.308   5.331 -0.9045 -1.1193  1.2817
 3786TIP3    H232850   0.975   1.232   5.268  0.1678 -1.0482 -0.8453
 3787TIP3   OH232851   2.860   1.637  12.654 -0.3477 -0.1699 -0.0670
 3787TIP3    H132852   2.800   1.653  12.727 -1.1180  0.5261 -0.8253
 3787TIP3    H232853   2.894   1.549  12.669  0.3665  0.3735  1.7299
 3788TIP3   OH232854   5.343   4.966  12.881 -0.2245  0.1512 -0.7032
 3788TIP3    H132855   5.289   4.901  12.926 -0.7176  1.3190  0.4377
 3788TIP3    H232856   5.283   5.039  12.865  0.6206  0.8143 -0.8916
 3789TIP3   OH232857   1.274   4.192  16.111  0.0743  0.0167 -0.1822
 3789TIP3    H132858   1.253   4.126  16.044 -0.5262 -0.0613  0.0755
 3789TIP3    H232859   1.190   4.210  16.154 -0.1748  2.2202 -1.3847
 3790TIP3   OH232860   5.586   4.778  14.090 -0.2867  0.0547 -0.2761
 3790TIP3    H132861   5.619   4.865  14.111 -0.3088  0.4030 -1.6033
 3790TIP3    H232862   5.599   4.727  14.170  2.6315  0.4001 -0.4467
 3791TIP3   OH232863   4.091   2.259  16.913 -0.2210  0.1650  0.3053
 3791TIP3    H132864   4.103   2.187  16.975 -1.1125 -0.7855 -0.5959
 3791TIP3    H232865   4.048   2.327  16.964  0.6511  0.0883  1.1753
 3792TIP3   OH232866   3.212   4.332  12.514  0.1800  0.2160 -0.1511
 3792TIP3    H132867   3.231   4.406  12.571  0.7018 -0.4148  0.5088
 3792TIP3    H232868   3.295   4.285  12.506 -0.3288 -0.7545  0.1230
 3793TIP3   OH232869   2.141   4.621   1.355  0.1399  0.5570  0.2092
 3793TIP3    H132870   2.184   4.699   1.319 -0.3617  0.8778  0.3011
 3793TIP3    H232871   2.048   4.640   1.348  0.0290  0.4612  1.3426
 3794TIP3   OH232872   4.214   1.119  12.619  0.0475  0.0187  0.1457
 3794TIP3    H132873   4.205   1.156  12.707 -0.4843 -0.2803  0.2163
 3794TIP3    H232874   4.196   1.026  12.629  0.7971 -0.1704 -0.1421
 3795TIP3   OH232875   3.540   6.159  14.436 -0.4209  0.2331  0.2472
 3795TIP3    H132876   3.495   6.076  14.418 -0.7609  0.1351  1.4816
 3795TIP3    H232877   3.613   6.160  14.375 -0.5540 -0.8706  0.0478
 3796TIP3   OH232878   4.682   3.659   1.748  0.3065  0.2869 -0.1918
 3796TIP3    H132879   4.702   3.570   1.721  0.5094  0.3151 -0.1361
 3796TIP3    H232880   4.589   3.670   1.728  0.3177  0.1148 -0.3389
 3797TIP3   OH232881   2.135   2.511  12.131  0.0277 -0.2855 -0.1380
 3797TIP3    H132882   2.223   2.474  12.136 -0.2451 -1.4413 -2.4556
 3797TIP3    H232883   2.100   2.479  12.048 -1.3963  2.7585 -0.8643
 3798TIP3   OH232884   2.179   1.957  16.037  0.5528 -0.0133  0.0800
 3798TIP3    H132885   2.239   2.016  16.082  1.9580 -1.2570 -0.0723
 3798TIP3    H232886   2.180   1.877  16.089 -0.8591 -0.1383 -0.0354
 3799TIP3   OH232887   2.521   1.094   2.538  0.0245 -0.2053 -0.1744
 3799TIP3    H132888   2.430   1.070   2.555 -0.6202  0.9385 -1.7912
 3799TIP3    H232889   2.529   1.183   2.572  1.0332 -0.8685  1.4324
 3800TIP3   OH232890   5.879   0.779  14.221  0.6523  0.3290 -0.0165
 3800TIP3    H132891   5.937   0.708  14.193  0.2180 -0.2295  0.4758
 3800TIP3    H232892   5.800   0.735  14.251  0.5148  1.0018  0.6321
 3801TIP3   OH232893   4.335   5.460  11.773  0.5766  0.4861 -0.1245
 3801TIP3    H132894   4.306   5.508  11.695 -0.4454  0.9676  0.5353
 3801TIP3    H232895   4.414   5.505  11.801  0.1345  1.2238 -0.0458
 3802TIP3   OH232896   3.739   0.880   1.521  0.1979 -0.1758 -0.0823
 3802TIP3    H132897   3.812   0.846   1.468  0.3043  1.4414 -1.0361
 3802TIP3    H232898   3.674   0.908   1.457 -0.8079 -0.5599  0.7428
 3803TIP3   OH232899   3.428   6.276   4.078 -0.1958 -0.5436  0.2567
 3803TIP3    H132900   3.512   6.249   4.043  0.9297  0.5091  2.0244
 3803TIP3    H232901   3.383   6.316   4.003  1.9445  1.2462 -0.1904
 3804TIP3   OH232902   1.723   6.362  17.063 -0.0586 -0.4738  0.8505
 3804TIP3    H132903   1.735   6.452  17.035 -0.8793 -0.4112  0.6912
 3804TIP3    H232904   1.692   6.368  17.153 -0.5060 -0.5755  0.7089
 3805TIP3   OH232905   3.360   2.107   4.731  0.0786  0.4622  0.0610
 3805TIP3    H132906   3.453   2.093   4.752  0.4446 -1.3899 -2.3584
 3805TIP3    H232907   3.351   2.078   4.640 -2.4759  2.5985 -0.5062
 3806TIP3   OH232908   2.961   4.539   0.779 -0.1915 -0.0509 -0.1642
 3806TIP3    H132909   2.875   4.506   0.752 -0.2604 -1.0465  1.2059
 3806TIP3    H232910   3.018   4.462   0.777  0.0551  0.0720  1.3972
 3807TIP3   OH232911   6.013   2.807  13.792  0.4409  0.3437 -0.2208
 3807TIP3    H132912   6.031   2.899  13.815 -2.9251  1.0225  0.3342
 3807TIP3    H232913   5.948   2.813  13.722  0.5782 -1.6502 -0.5587
 3808TIP3   OH232914   4.337   2.586  17.171  0.1166 -0.6647  0.2464
 3808TIP3    H132915   4.258   2.641  17.165  0.6505  0.0999  0.1237
 3808TIP3    H232916   4.409   2.644  17.146  0.7048 -1.4088  0.1779
 3809TIP3   OH232917   1.789   0.828   2.737 -0.2488 -0.2812  0.4768
 3809TIP3    H132918   1.878   0.795   2.724 -0.4695 -1.7056  2.2372
 3809TIP3    H232919   1.800   0.923   2.742  1.0812 -0.3783  0.0242
 3810TIP3   OH232920   6.657   3.023  12.613 -0.2680 -0.2178  0.1206
 3810TIP3    H132921   6.566   3.051  12.629  0.4261  0.8047  2.6778
 3810TIP3    H232922   6.691   3.089  12.551 -1.0403 -0.2097 -0.3135
 3811TIP3   OH232923   5.400   2.324  12.479 -0.0988  0.1668  0.1324
 3811TIP3    H132924   5.363   2.237  12.462  1.6267 -1.1880  2.6285
 3811TIP3    H232925   5.345   2.384  12.429  0.1102 -2.4988 -3.7842
 3812TIP3   OH232926   4.148   2.196   1.518 -0.1774  0.1877  0.1369
 3812TIP3    H132927   4.092   2.262   1.558 -1.2580 -0.4172 -0.3245
 3812TIP3    H232928   4.222   2.245   1.483 -0.3381  0.9885  0.8815
 3813TIP3   OH232929   4.930   1.063   5.521  0.3306 -0.1848 -0.2563
 3813TIP3    H132930   4.966   0.991   5.469 -0.4264 -1.0712  0.4227
 3813TIP3    H232931   4.936   1.033   5.611  0.5083  0.8408  0.0876
 3814TIP3   OH232932   2.028   0.295   4.037 -0.4995 -0.2128  0.2277
 3814TIP3    H132933   1.969   0.365   4.011 -1.1675 -0.9062 -0.1585
 3814TIP3    H232934   1.971   0.227   4.072  0.0878 -0.7886  0.0984
 3815TIP3   OH232935   3.303   5.595  16.265 -0.3012  0.2872  0.4030
 3815TIP3    H132936   3.393   5.618  16.289 -0.3357 -0.8327  1.7114
 3815TIP3    H232937   3.256   5.678  16.264  0.9713  1.0561 -1.4814
 3816TIP3   OH232938   4.846   2.079   5.156  0.0090 -0.5377  0.0394
 3816TIP3    H132939   4.843   2.137   5.080  1.8578  0.8298  0.9422
 3816TIP3    H232940   4.916   2.017   5.136  1.6726  0.8498  1.2328
 3817TIP3   OH232941   5.274   6.700   2.993 -0.3582 -0.2788  0.4856
 3817TIP3    H132942   5.317   6.743   2.919 -1.9928 -0.7439 -0.7828
 3817TIP3    H232943   5.237   6.619   2.957 -0.6626 -0.8325  1.9503
 3818TIP3   OH232944   5.925   3.276   4.966  0.6479  0.1407 -0.9468
 3818TIP3    H132945   5.858   3.292   4.900  0.1824  0.0621 -0.4932
 3818TIP3    H232946   5.914   3.185   4.991 -2.2758  1.2061  2.5814
 3819TIP3   OH232947   0.243   1.993   2.292 -0.6505  0.5812 -0.5754
 3819TIP3    H132948   0.326   2.018   2.332  0.2894 -0.2759 -1.9128
 3819TIP3    H232949   0.250   1.899   2.277 -2.7839  0.0260  1.3158
 3820TIP3   OH232950   6.632   4.144  10.855  0.4755 -0.2223 -0.3634
 3820TIP3    H132951   6.692   4.200  10.904 -0.7592  0.0997  0.8218
 3820TIP3    H232952   6.685   4.109  10.783  2.4308 -0.9670  1.3627
 3821TIP3   OH232953   6.174   4.928  16.786 -0.2015 -0.3510 -0.0778
 3821TIP3    H132954   6.127   4.855  16.827 -1.8648  0.4672 -0.4512
 3821TIP3    H232955   6.105   4.983  16.749  1.1128 -0.5025 -3.0887
 3822TIP3   OH232956   2.318   5.820  15.508  0.6980 -0.2692  0.5053
 3822TIP3    H132957   2.393   5.873  15.482  1.5687 -2.0135 -0.8262
 3822TIP3    H232958   2.315   5.827  15.603  2.2639  0.2350  0.5493
 3823TIP3   OH232959   3.854   2.456   5.728 -0.6563 -0.2987  0.1588
 3823TIP3    H132960   3.912   2.467   5.803  1.5767 -1.4604 -1.2806
 3823TIP3    H232961   3.825   2.545   5.707  2.3981  0.7073 -0.3399
 3824TIP3   OH232962   2.381   4.824  16.963 -0.9608 -0.0985  0.1654
 3824TIP3    H132963   2.372   4.919  16.955  0.4379  0.0792  0.4210
 3824TIP3    H232964   2.399   4.794  16.873 -0.0013  0.0699  0.2876
 3825TIP3   OH232965   3.962   1.281   0.152  1.3370  0.1832 -0.0281
 3825TIP3    H132966   3.904   1.215   0.115  2.3697  0.0175 -1.3787
 3825TIP3    H232967   3.919   1.364   0.133  0.5276 -0.0174  0.8211
 3826TIP3   OH232968   4.181   4.510  11.578 -0.0545  0.0898  0.0505
 3826TIP3    H132969   4.233   4.530  11.501 -1.9092 -1.2875 -1.6550
 3826TIP3    H232970   4.091   4.530  11.552 -0.6675  0.2107  2.0974
 3827TIP3   OH232971   1.561   5.552  16.623  0.4402 -0.1533 -0.1476
 3827TIP3    H132972   1.466   5.557  16.625  0.4165 -0.2390 -0.8027
 3827TIP3    H232973   1.581   5.463  16.652  0.3883  0.2341  1.1623
 3828TIP3   OH232974   4.714   6.653  12.780 -0.5532 -0.3889  0.4514
 3828TIP3    H132975   4.712   6.745  12.807  1.7848  0.1794 -1.0236
 3828TIP3    H232976   4.789   6.616  12.825  0.8240 -0.5141 -1.7710
 3829TIP3   OH232977   4.354   1.136   6.248  0.1417  0.0862 -0.6938
 3829TIP3    H132978   4.433   1.177   6.283 -1.0085  1.3901  0.5075
 3829TIP3    H232979   4.284   1.169   6.304 -1.1407 -1.8032 -1.1076
 3830TIP3   OH232980   2.491   4.697   6.396 -1.0485 -0.2934 -0.8835
 3830TIP3    H132981   2.451   4.761   6.455  1.0863 -0.2959  0.7093
 3830TIP3    H232982   2.533   4.634   6.454  0.6117 -0.6842 -2.4194
 3831TIP3   OH232983   1.563   5.971  15.671 -0.3659 -0.8990 -0.4691
 3831TIP3    H132984   1.617   6.021  15.609  1.6058 -0.8802  1.1658
 3831TIP3    H232985   1.519   5.905  15.616  0.6703 -0.3780 -1.9968
 3832TIP3   OH232986   2.855   0.228  14.837  0.6796  0.7698  0.5229
 3832TIP3    H132987   2.849   0.186  14.751 -0.5044 -1.4493  1.6039
 3832TIP3    H232988   2.937   0.194  14.873  1.6809  2.4625 -0.0455
 3833TIP3   OH232989   4.215   2.492   0.338  0.0781  0.0141  0.2422
 3833TIP3    H132990   4.186   2.532   0.256  0.4412 -1.0813 -0.4314
 3833TIP3    H232991   4.306   2.519   0.348  0.3724 -0.7631 -0.2963
 3834TIP3   OH232992   2.328   2.159  14.367 -0.4793  0.1061 -0.2370
 3834TIP3    H132993   2.265   2.088  14.378 -0.3349  0.1119  0.6622
 3834TIP3    H232994   2.351   2.186  14.456  1.0656 -0.1405 -0.5377
 3835TIP3   OH232995   4.749   4.231   2.780  0.0957  0.3260 -0.1514
 3835TIP3    H132996   4.784   4.320   2.774 -1.1410  0.9990  1.7600
 3835TIP3    H232997   4.807   4.186   2.841 -0.9006  0.7327  1.1489
 3836TIP3   OH232998   5.876   1.655   1.388  0.1188 -0.5457  0.0267
 3836TIP3    H132999   5.784   1.633   1.407  0.3476 -1.2074  0.3810
 3836TIP3    H233000   5.891   1.621   1.300  0.0744 -0.6010  0.0402
 3837TIP3   OH233001   4.038   5.475   2.633 -0.1787  0.2999 -0.0058
 3837TIP3    H133002   4.093   5.406   2.670  0.0946 -0.0225 -0.9927
 3837TIP3    H233003   4.085   5.505   2.556 -0.6694  1.0635 -0.0196
 3838TIP3   OH233004   3.436   1.199  16.269 -0.1718 -0.1955 -0.4013
 3838TIP3    H133005   3.380   1.157  16.204  0.9321 -1.1659 -0.7747
 3838TIP3    H233006   3.428   1.144  16.347 -0.6673  0.3614 -0.0494
 3839TIP3   OH233007   2.343   3.600  12.393 -0.1933  0.1063 -0.6402
 3839TIP3    H133008   2.264   3.554  12.366 -1.0603  1.5569 -0.7087
 3839TIP3    H233009   2.355   3.669  12.327  1.1892 -0.1402 -0.6834
 3840TIP3   OH233010   5.866   4.247   2.452  0.5768  0.8440 -0.3576
 3840TIP3    H133011   5.804   4.261   2.381 -1.2249 -0.6343  0.8276
 3840TIP3    H233012   5.877   4.152   2.457 -0.9777  0.6922  2.5533
 3841TIP3   OH233013   5.220   1.066  14.418 -0.2503  0.2936  0.6606
 3841TIP3    H133014   5.295   1.102  14.370 -2.1695  5.1146  0.7319
 3841TIP3    H233015   5.257   1.041  14.503  1.9273 -1.7562 -0.7595
 3842TIP3   OH233016   4.553   3.405  16.534  0.2600  0.1625  0.6690
 3842TIP3    H133017   4.474   3.377  16.489 -1.3862  2.6345  1.7940
 3842TIP3    H233018   4.574   3.489  16.494  0.5555  0.9306  2.3604
 3843TIP3   OH233019   5.250   0.908   0.925 -0.0771 -0.6321 -0.0997
 3843TIP3    H133020   5.182   0.946   0.870 -1.0384 -0.6096  1.0769
 3843TIP3    H233021   5.266   0.821   0.887  0.3281 -0.0766 -1.2640
 3844TIP3   OH233022   0.494   1.667  11.086  0.0303  0.0455 -1.0790
 3844TIP3    H133023   0.581   1.700  11.110  0.3682 -1.6973  0.2767
 3844TIP3    H233024   0.437   1.696  11.157  0.0131 -0.8863 -0.7017
 3845TIP3   OH233025   2.682   0.394  13.979 -0.3665 -0.1036  0.4281
 3845TIP3    H133026   2.775   0.374  13.991  0.2028  1.0596 -1.4912
 3845TIP3    H233027   2.640   0.308  13.972  0.6337 -0.6519  0.8641
 3846TIP3   OH233028   0.939   0.312  10.610  0.1886  0.4124 -0.0830
 3846TIP3    H133029   1.032   0.329  10.623  0.0153  0.3673  1.3730
 3846TIP3    H233030   0.915   0.253  10.681 -0.8179 -0.1203 -0.8358
 3847TIP3   OH233031   0.775   4.820  12.488 -0.4365  1.1195 -0.1215
 3847TIP3    H133032   0.703   4.776  12.444 -1.5549  1.5353  1.2333
 3847TIP3    H233033   0.784   4.903  12.441  0.8562  0.0415 -1.8807
 3848TIP3   OH233034   2.459   0.109  12.717  0.5457 -0.4621 -0.1514
 3848TIP3    H133035   2.474   0.049  12.790  0.2283  1.6138  1.7296
 3848TIP3    H233036   2.367   0.133  12.724  0.5429 -0.1176 -1.1640
 3849TIP3   OH233037   0.474   1.473   1.292  0.0552 -0.4862 -0.0102
 3849TIP3    H133038   0.400   1.510   1.245 -0.4782 -0.9743  0.4413
 3849TIP3    H233039   0.550   1.520   1.256 -0.1703 -1.7098 -2.2653
 3850TIP3   OH233040   5.823   2.586  16.786  0.6152  0.5922 -0.5243
 3850TIP3    H133041   5.736   2.551  16.804  0.7543 -1.4901 -3.2191
 3850TIP3    H233042   5.874   2.566  16.865 -1.0039  0.7116  0.5952
 3851TIP3   OH233043   4.666   0.095   0.489  0.2797 -0.4259  0.5976
 3851TIP3    H133044   4.742   0.043   0.516  0.4479 -0.5460 -0.0992
 3851TIP3    H233045   4.623   0.042   0.422  0.4390  0.3139 -0.1007
 3852TIP3   OH233046   3.348   5.259  15.130 -0.6098  0.4162 -0.2281
 3852TIP3    H133047   3.394   5.310  15.197 -2.2048  1.8066 -0.1366
 3852TIP3    H233048   3.316   5.325  15.068 -0.5810 -0.7082 -1.4776
 3853TIP3   OH233049   1.247   6.458  15.763 -0.0260  0.7427 -0.3110
 3853TIP3    H133050   1.214   6.515  15.832  0.5496 -0.8627  1.3630
 3853TIP3    H233051   1.339   6.443  15.786  0.1487  0.0737 -1.3624
 3854TIP3   OH233052   3.298   4.417   5.120 -0.7278 -0.3375 -0.2033
 3854TIP3    H133053   3.360   4.450   5.055  0.2627 -0.5298  0.6069
 3854TIP3    H233054   3.326   4.459   5.202 -0.8399 -1.4606  0.4222
 3855TIP3   OH233055   1.123   5.496   3.259 -0.3205 -0.0747  0.0870
 3855TIP3    H133056   1.087   5.489   3.170  0.9120 -0.0328 -0.4362
 3855TIP3    H233057   1.217   5.484   3.247 -0.1959 -0.6169  1.4668
 3856TIP3   OH233058   4.362   4.438   3.457  0.0814  0.1246  0.6092
 3856TIP3    H133059   4.305   4.443   3.379  1.6675 -0.0605 -0.6176
 3856TIP3    H233060   4.386   4.529   3.474  2.0105 -0.0342 -0.9341
 3857TIP3   OH233061   4.586   3.130  14.422 -0.0300  0.4139  0.3733
 3857TIP3    H133062   4.554   3.159  14.337 -4.4933  0.0716  1.6983
 3857TIP3    H233063   4.596   3.035  14.413  2.1761  0.6478 -0.3847
 3858TIP3   OH233064   0.175   2.807   1.619 -0.4123 -0.0505  0.2867
 3858TIP3    H133065   0.188   2.782   1.711  0.5568 -0.4637  0.0511
 3858TIP3    H233066   0.236   2.880   1.606  0.3380 -0.7598 -0.3295
 3859TIP3   OH233067   2.822   0.610   4.510  0.5108 -0.2446  0.1411
 3859TIP3    H133068   2.853   0.648   4.593  0.6505 -1.8547  0.8673
 3859TIP3    H233069   2.880   0.647   4.444  1.1450  0.1904  0.9133
 3860TIP3   OH233070   0.384   2.806  16.325  0.2122  0.7214 -0.3659
 3860TIP3    H133071   0.350   2.875  16.381  0.0915  0.1018  0.3445
 3860TIP3    H233072   0.475   2.829  16.310  0.0902  1.1975 -0.3988
 3861TIP3   OH233073   1.270   6.434   2.520  0.2458 -0.2283  0.4982
 3861TIP3    H133074   1.363   6.455   2.526  0.1998  0.1793 -0.1076
 3861TIP3    H233075   1.260   6.352   2.568  1.2849 -1.3515 -1.0909
 3862TIP3   OH233076   1.583   3.368   0.051 -0.1465 -0.2823  1.2945
 3862TIP3    H133077   1.601   3.286   0.098  0.1817 -0.5766  0.6706
 3862TIP3    H233078   1.522   3.342  -0.018 -0.2047  0.0425  1.2255
 3863TIP3   OH233079   5.093   3.373   0.796 -0.4901 -0.2263 -0.0062
 3863TIP3    H133080   5.049   3.322   0.728  2.9903 -2.1890 -1.0729
 3863TIP3    H233081   5.143   3.439   0.748 -0.2744  0.2918  0.8995
 3864TIP3   OH233082   0.079   0.035   0.087 -0.7938 -0.0565 -0.1685
 3864TIP3    H133083   0.066   0.128   0.069  0.2699  0.5387  1.8758
 3864TIP3    H233084   0.012   0.014   0.153 -2.0337 -1.1744 -1.7036
 3865TIP3   OH233085   5.095   4.551   4.294 -0.9979 -0.0324 -0.1945
 3865TIP3    H133086   5.142   4.469   4.305 -1.8798 -0.5309 -0.0094
 3865TIP3    H233087   5.004   4.529   4.313 -0.9598  1.4761  2.1950
 3866TIP3   OH233088   1.878   5.287   2.910 -0.2012 -0.0532  0.5308
 3866TIP3    H133089   1.893   5.366   2.858 -1.0956  0.4362  0.9998
 3866TIP3    H233090   1.951   5.229   2.887  0.3909  0.8490  0.0797
 3867TIP3   OH233091   5.821   5.166  16.480  0.2174  0.8151  0.4650
 3867TIP3    H133092   5.907   5.174  16.438 -0.2883  1.7069 -0.4514
 3867TIP3    H233093   5.759   5.164  16.407 -0.4794 -1.2043  1.0527
 3868TIP3   OH233094   5.882   1.535  15.914  0.1298  0.4940 -0.0579
 3868TIP3    H133095   5.973   1.513  15.931 -0.0981 -1.3199 -0.9884
 3868TIP3    H233096   5.834   1.505  15.992  0.0707 -0.6122 -0.5029
 3869TIP3   OH233097   3.956   4.477  11.420  0.0283  0.0194  0.2246
 3869TIP3    H133098   3.944   4.437  11.333  2.0249 -0.4039  0.0854
 3869TIP3    H233099   3.942   4.571  11.405 -1.7556 -0.2707 -0.0804
 3870TIP3   OH233100   4.378   2.174  14.892  0.2566  0.1700 -0.0877
 3870TIP3    H133101   4.305   2.136  14.843 -0.2630  1.4105 -0.3073
 3870TIP3    H233102   4.401   2.106  14.955 -0.2791 -0.7265 -0.8174
 3871TIP3   OH233103   2.562   4.297  12.865  0.1753  0.3265 -0.4817
 3871TIP3    H133104   2.548   4.336  12.951  0.0712  0.2869 -0.4800
 3871TIP3    H233105   2.527   4.208  12.874  0.3582  0.2538 -0.5019
 3872TIP3   OH233106   0.669   0.645   3.314 -0.1680  0.4051 -0.1849
 3872TIP3    H133107   0.727   0.584   3.268 -0.2198 -0.7668  1.2503
 3872TIP3    H233108   0.728   0.697   3.369 -0.3144  0.4103 -0.0348
 3873TIP3   OH233109   0.664   2.381  15.323 -0.1064  0.0485 -0.3463
 3873TIP3    H133110   0.646   2.423  15.238  0.7761 -0.8206 -0.9892
 3873TIP3    H233111   0.746   2.420  15.352  2.2657 -2.9969 -2.2778
 3874TIP3   OH233112   6.550   2.731   0.996 -0.2563 -0.8404 -0.2466
 3874TIP3    H133113   6.521   2.676   1.068  1.1292 -2.2141 -0.6937
 3874TIP3    H233114   6.610   2.794   1.035 -0.4278 -0.8130 -0.0274
 3875TIP3   OH233115   3.383   1.104   4.953  0.1121 -0.2061 -0.0073
 3875TIP3    H133116   3.453   1.114   5.017 -1.3967 -0.7425  1.8286
 3875TIP3    H233117   3.303   1.098   5.006 -1.5139  1.7292 -2.0329
 3876TIP3   OH233118   3.420   4.136   5.000 -0.2917  0.1041 -0.1066
 3876TIP3    H133119   3.377   4.056   4.971 -0.1459  0.7313 -2.2290
 3876TIP3    H233120   3.363   4.207   4.968  0.7613  0.8759 -0.3347
 3877TIP3   OH233121   4.736   6.362   4.368 -0.3742 -0.5205  0.2030
 3877TIP3    H133122   4.643   6.378   4.351 -0.0247  1.6026  0.0830
 3877TIP3    H233123   4.782   6.402   4.294  0.6453 -2.0434 -0.0363
 3878TIP3   OH233124   2.712   5.081   2.709  0.1520  0.0483  0.1706
 3878TIP3    H133125   2.704   5.012   2.643 -1.9624  1.5418 -1.2818
 3878TIP3    H233126   2.740   5.158   2.659  2.0428  0.4218  1.6797
 3879TIP3   OH233127   1.512   1.972  16.693 -0.5993  0.0500 -0.4410
 3879TIP3    H133128   1.441   2.035  16.688  0.3700  1.3084  0.8751
 3879TIP3    H233129   1.545   1.965  16.603 -3.5057 -2.0191 -1.4820
 3880TIP3   OH233130   4.349   3.010   0.281  0.9208 -0.2072 -0.3478
 3880TIP3    H133131   4.308   2.940   0.331  1.4591  0.7222  1.4624
 3880TIP3    H233132   4.277   3.067   0.255  0.5002 -1.2827 -1.6922
 3881TIP3   OH233133   0.927   6.697   2.182 -0.2550 -1.0169  0.4491
 3881TIP3    H133134   1.004   6.662   2.136  0.2590  0.4155  0.1731
 3881TIP3    H233135   0.941   6.672   2.273  1.8466  1.2765  0.8661
 3882TIP3   OH233136   6.372   1.377   1.500 -0.5631 -0.4740 -0.6719
 3882TIP3    H133137   6.415   1.460   1.476 -1.3653  0.8310  1.9693
 3882TIP3    H233138   6.295   1.373   1.442 -0.4164  0.5526 -0.9737
 3883TIP3   OH233139   6.629   5.225  12.601  0.9940  0.5588 -0.6080
 3883TIP3    H133140   6.558   5.173  12.640  0.4246  1.3782 -0.5190
 3883TIP3    H233141   6.614   5.218  12.506  0.7065  0.8395 -0.5861
 3884TIP3   OH233142   5.571   5.173  11.275  0.5005 -0.6165 -0.7820
 3884TIP3    H133143   5.641   5.214  11.326  0.0198 -0.1792 -0.4607
 3884TIP3    H233144   5.597   5.081  11.267 -0.0832 -1.0347  1.4613
 3885TIP3   OH233145   5.200   1.940  14.858 -0.1584  0.5064 -0.6543
 3885TIP3    H133146   5.173   2.022  14.900  1.1542 -0.8307  3.2325
 3885TIP3    H233147   5.292   1.955  14.835  0.1486  0.1476  0.2602
 3886TIP3   OH233148   1.756   5.587   2.272  0.0559 -0.3180  0.8222
 3886TIP3    H133149   1.676   5.540   2.246 -0.3924  0.4009  0.8817
 3886TIP3    H233150   1.806   5.522   2.322 -1.0799 -0.4187  1.8798
 3887TIP3   OH233151   2.463   3.650  13.676  0.3981  0.5240  0.5226
 3887TIP3    H133152   2.438   3.567  13.716  0.3944  0.4242  0.3186
 3887TIP3    H233153   2.474   3.628  13.583 -1.8956  1.2115  0.0144
 3888TIP3   OH233154   1.610   0.523  15.958  0.2045 -0.5300  0.1292
 3888TIP3    H133155   1.646   0.576  16.029 -0.6859  0.3944 -0.0821
 3888TIP3    H233156   1.616   0.432  15.989 -0.2221 -0.1319  1.4119
 3889TIP3   OH233157   3.102   3.491   4.677  0.1241 -0.4401  0.1750
 3889TIP3    H133158   3.061   3.426   4.621 -3.2901  1.5337  0.1559
 3889TIP3    H233159   3.087   3.459   4.766 -1.7317  0.3003  0.1744
 3890TIP3   OH233160   2.004   5.352  14.428  0.1736  0.1156 -0.3081
 3890TIP3    H133161   1.978   5.291  14.358  1.4896 -0.9204  0.0748
 3890TIP3    H233162   2.050   5.422  14.383 -1.3852  0.8938 -0.7584
 3891TIP3   OH233163   6.270   5.653   2.961  0.0019 -0.0487 -0.6517
 3891TIP3    H133164   6.246   5.712   2.889  0.0487  0.6848 -0.0844
 3891TIP3    H233165   6.341   5.699   3.006  1.2662 -1.3695 -1.2393
 3892TIP3   OH233166   5.627   0.414   1.397 -0.1259  0.2184 -1.0367
 3892TIP3    H133167   5.721   0.396   1.388 -0.0785  0.3948 -0.9075
 3892TIP3    H233168   5.588   0.328   1.413  0.4332  0.4454  2.3698
 3893TIP3   OH233169   6.077   0.288  14.214 -0.0889  0.3101 -0.2840
 3893TIP3    H133170   5.988   0.258  14.195 -0.4078  2.0428 -1.8031
 3893TIP3    H233171   6.095   0.256  14.302 -2.0507 -0.4590 -0.1173
 3894TIP3   OH233172   3.502   3.851  11.766  0.0959  0.2926 -0.0651
 3894TIP3    H133173   3.496   3.766  11.809  2.6838  0.2028  0.2762
 3894TIP3    H233174   3.447   3.909  11.819 -1.3145 -1.0129 -0.0358
 3895TIP3   OH233175   2.671   0.641  10.820 -0.4193  0.1862  0.2718
 3895TIP3    H133176   2.653   0.572  10.757 -1.1886  0.2625  0.4032
 3895TIP3    H233177   2.599   0.637  10.882 -0.5845  1.2299  0.1679
 3896TIP3   OH233178   0.124   5.582   3.617 -0.4567  0.3243 -0.0180
 3896TIP3    H133179   0.217   5.606   3.611 -0.3942 -0.1675 -1.4236
 3896TIP3    H233180   0.078   5.665   3.604 -0.2177  0.5425  0.4960
 3897TIP3   OH233181   6.136   5.860   2.824  0.1161 -0.1560 -0.2092
 3897TIP3    H133182   6.048   5.842   2.859 -0.0978  1.2177  0.0333
 3897TIP3    H233183   6.120   5.915   2.747  0.7614  0.2465 -0.0641
 3898TIP3   OH233184   0.444   1.662   4.847  0.2780  0.1215  0.4284
 3898TIP3    H133185   0.398   1.708   4.777  0.4104  2.3657  1.7421
 3898TIP3    H233186   0.535   1.660   4.819  0.7565  3.0642  1.4361
 3899TIP3   OH233187   0.750   6.575  14.478 -0.2538 -0.1819  0.2070
 3899TIP3    H133188   0.718   6.660  14.508  1.7025  0.5333  0.4460
 3899TIP3    H233189   0.671   6.525  14.458 -1.4573  2.2818 -1.6985
 3900TIP3   OH233190   5.305   5.404  16.892  0.5029 -0.2079  0.3433
 3900TIP3    H133191   5.400   5.412  16.881  0.6650 -1.0897  1.0115
 3900TIP3    H233192   5.269   5.433  16.808  1.4201 -1.0261 -0.3636
 3901TIP3   OH233193   1.944   3.973  15.521 -0.3525 -0.4799  0.8559
 3901TIP3    H133194   1.909   3.903  15.577  0.1544  0.7620  2.8373
 3901TIP3    H233195   2.030   3.941  15.494 -1.5002 -2.0733 -1.2089
 3902TIP3   OH233196   2.971   5.379   3.615  0.0082  0.3216 -0.5900
 3902TIP3    H133197   2.970   5.287   3.586 -0.2134 -0.2782  1.2042
 3902TIP3    H233198   2.984   5.374   3.710 -0.4294  2.1463 -0.4036
 3903TIP3   OH233199   4.360   3.985  16.521  0.4400  0.0760  0.4308
 3903TIP3    H133200   4.288   3.990  16.584  0.3642  0.9907  0.2760
 3903TIP3    H233201   4.333   3.916  16.460 -1.4217  1.9069 -0.9832
 3904TIP3   OH233202   1.831   6.615   5.372 -0.0863  0.3598  0.2266
 3904TIP3    H133203   1.817   6.540   5.314  1.6947  0.6679 -0.6939
 3904TIP3    H233204   1.836   6.577   5.459 -0.7249 -0.3917 -0.0459
 3905TIP3   OH233205   6.411   2.428  13.865  0.3447  0.2552  1.2778
 3905TIP3    H133206   6.499   2.465  13.869  0.6859 -0.4537  0.5703
 3905TIP3    H233207   6.388   2.432  13.772 -1.4017  2.7643  1.6891
 3906TIP3   OH233208   5.792   5.460  11.861  0.3766 -0.3294  0.5200
 3906TIP3    H133209   5.790   5.535  11.920  1.6465 -2.2466  3.1776
 3906TIP3    H233210   5.701   5.429  11.860 -0.6010  2.1116 -2.0623
 3907TIP3   OH233211   1.321   2.061  14.608 -0.0219  0.0488 -0.0791
 3907TIP3    H133212   1.295   2.066  14.699  1.9164  0.6036  0.5028
 3907TIP3    H233213   1.406   2.106  14.605  0.5295 -0.9896 -1.9032
 3908TIP3   OH233214   6.223   4.415  14.944 -0.5172 -0.1521  0.5695
 3908TIP3    H133215   6.275   4.400  14.866  0.4444  0.7081  1.0236
 3908TIP3    H233216   6.273   4.374  15.015 -0.5786  0.4477  0.9709
 3909TIP3   OH233217   0.285   6.782  17.163 -0.1021  0.2005  0.1262
 3909TIP3    H133218   0.220   6.802  17.230  0.0905  2.7448 -0.3129
 3909TIP3    H233219   0.234   6.771  17.082 -0.2119 -1.2055  0.3743
 3910TIP3   OH233220   1.682   6.026   1.662 -0.2797  0.0156 -0.0851
 3910TIP3    H133221   1.704   6.006   1.754  1.6874  0.0620 -0.4909
 3910TIP3    H233222   1.618   6.097   1.668 -0.9210 -0.6227  1.2541
 3911TIP3   OH233223   4.633   2.302  13.884 -0.1209 -0.5174  0.2900
 3911TIP3    H133224   4.715   2.260  13.859  0.0952  0.0738 -0.0283
 3911TIP3    H233225   4.649   2.396  13.870 -2.0134 -0.5521 -3.4817
 3912TIP3   OH233226   2.655   4.637  12.849  0.0015 -0.6729  0.2353
 3912TIP3    H133227   2.633   4.570  12.785 -1.1660 -0.2650  0.1735
 3912TIP3    H233228   2.671   4.716  12.798  1.6213 -0.9388  0.2903
 3913TIP3   OH233229   1.465   6.551  16.761  0.0952 -0.5501  0.1906
 3913TIP3    H133230   1.458   6.569  16.668 -1.2841 -1.8433  0.0009
 3913TIP3    H233231   1.553   6.582  16.785  0.4898 -0.2330 -1.5308
 3914TIP3   OH233232   3.533   1.961   0.363  0.0164  0.3404 -0.2872
 3914TIP3    H133233   3.623   1.930   0.373 -0.3192 -0.3349  0.8988
 3914TIP3    H233234   3.541   2.049   0.327  1.1775  0.5478  0.4485
 3915TIP3   OH233235   4.974   2.532  17.170  0.3945 -0.5916  0.0122
 3915TIP3    H133236   5.062   2.518  17.133  0.5635 -2.0557  0.8788
 3915TIP3    H233237   4.945   2.614  17.131  3.1037  1.2452  1.4894
 3916TIP3   OH233238   1.379   6.380  13.254 -0.3151  0.8581 -0.1820
 3916TIP3    H133239   1.430   6.448  13.210  2.4331 -0.0589  1.3408
 3916TIP3    H233240   1.373   6.309  13.190  1.2530  0.5965 -0.0639
 3917TIP3   OH233241   4.786   6.346   3.034  0.1096 -0.0872 -0.5597
 3917TIP3    H133242   4.811   6.385   2.950 -0.2188  0.9258 -0.2010
 3917TIP3    H233243   4.756   6.258   3.012  2.1866 -0.6814 -1.2223
 3918TIP3   OH233244   4.068   1.948   2.675  0.6492 -0.5831 -0.1264
 3918TIP3    H133245   4.162   1.933   2.686  0.6526  0.5974  2.0449
 3918TIP3    H233246   4.060   2.041   2.656 -0.0774 -0.6733 -0.3039
 3919TIP3   OH233247   5.999   2.326  11.556  0.3659  0.1355 -0.2547
 3919TIP3    H133248   6.042   2.346  11.472  0.2551 -0.4976 -0.4683
 3919TIP3    H233249   5.918   2.282  11.531  1.3999 -2.1452  0.2091
 3920TIP3   OH233250   5.935   5.658  12.415  0.5900  0.2086 -0.6913
 3920TIP3    H133251   5.885   5.591  12.368  0.8810  0.3087 -1.1494
 3920TIP3    H233252   5.908   5.649  12.507  2.3546 -2.1782 -0.2902
 3921TIP3   OH233253   6.561   6.603   0.555 -0.6450  0.4501 -0.1714
 3921TIP3    H133254   6.606   6.544   0.494 -1.5411  0.1228 -0.5469
 3921TIP3    H233255   6.515   6.665   0.499  2.4265  3.3271  0.1957
 3922TIP3   OH233256   4.106   0.851   5.528 -0.1124  0.1187 -0.2754
 3922TIP3    H133257   4.112   0.779   5.592 -0.4393  0.9783  0.7636
 3922TIP3    H233258   4.074   0.809   5.448  2.6278 -1.4351 -0.6839
 3923TIP3   OH233259   4.928   4.491  16.500 -0.0324 -0.3414  0.4572
 3923TIP3    H133260   4.842   4.448  16.503  0.1246 -0.6923 -0.0895
 3923TIP3    H233261   4.918   4.567  16.557 -0.7747 -0.2652  0.2312
 3924TIP3   OH233262   3.921   2.057   5.204  0.1455  0.9823 -0.3280
 3924TIP3    H133263   3.919   2.060   5.300  0.8470 -4.3898  0.1884
 3924TIP3    H233264   4.009   2.086   5.180  1.2225 -0.8949  1.0988
 3925TIP3   OH233265   6.539   1.930  11.233 -0.0270 -0.0977 -0.2421
 3925TIP3    H133266   6.500   2.010  11.198  1.6532  1.2427  0.7807
 3925TIP3    H233267   6.596   1.898  11.163  0.9286  0.8347  0.0750
 3926TIP3   OH233268   1.767   1.384  11.444  0.2748 -0.1022 -0.1900
 3926TIP3    H133269   1.673   1.367  11.439  0.6046 -2.0962 -0.7888
 3926TIP3    H233270   1.778   1.437  11.523 -1.1248 -1.9513  1.3470
 3927TIP3   OH233271   0.671   6.613  13.865  0.0415 -0.1033 -0.0329
 3927TIP3    H133272   0.760   6.635  13.895  0.2965 -0.9480 -0.1265
 3927TIP3    H233273   0.621   6.601  13.946 -0.1539  0.9968  0.0139
 3928TIP3   OH233274   2.774   6.435   3.819 -0.0727  0.0622  0.1327
 3928TIP3    H133275   2.783   6.380   3.741  0.2817  0.4937 -0.1371
 3928TIP3    H233276   2.858   6.428   3.864 -0.2808 -0.1937  0.4843
 3929TIP3   OH233277   2.827   0.709  13.084 -0.0626  0.6710 -0.6019
 3929TIP3    H133278   2.879   0.678  13.159  0.0524  0.5259 -0.7411
 3929TIP3    H233279   2.816   0.802  13.100  1.7314  1.0835 -1.4369
 3930TIP3   OH233280   1.062   4.261   5.607  0.0077  0.5337 -0.5627
 3930TIP3    H133281   0.969   4.241   5.617  0.5003 -1.7795 -0.1432
 3930TIP3    H233282   1.077   4.335   5.665 -1.4687  0.6472 -0.2904
 3931TIP3   OH233283   2.990   6.457  12.366  0.1966  0.0209  0.2482
 3931TIP3    H133284   2.992   6.513  12.288 -1.2089 -0.4638 -0.1580
 3931TIP3    H233285   3.077   6.417  12.368  0.5208  0.6294 -0.6269
 3932TIP3   OH233286   5.958   3.579  14.128  0.6205 -0.1733 -0.2945
 3932TIP3    H133287   5.968   3.663  14.172  0.1201  0.3691 -1.1929
 3932TIP3    H233288   5.973   3.514  14.197 -0.1591  0.6404  0.6793
 3933TIP3   OH233289   0.410   0.340  16.249 -0.0744  0.2756 -0.4520
 3933TIP3    H133290   0.333   0.360  16.302  0.6526  2.0079  0.0194
 3933TIP3    H233291   0.394   0.384  16.165  0.5681  1.0152 -0.1985
 3934TIP3   OH233292   1.420   1.215  12.518  0.5463 -0.4978 -0.3189
 3934TIP3    H133293   1.361   1.149  12.483  1.0481 -0.5697 -1.0397
 3934TIP3    H233294   1.368   1.261  12.585  0.1913 -1.5978  0.1806
 3935TIP3   OH233295   0.357   5.827   6.564  0.3828 -0.1840 -0.1225
 3935TIP3    H133296   0.426   5.882   6.602 -0.5836  1.6404 -0.8361
 3935TIP3    H233297   0.353   5.854   6.472 -0.8533 -0.6915 -0.2437
 3936TIP3   OH233298   3.311   2.537  14.893  0.8402  0.3329  0.2726
 3936TIP3    H133299   3.261   2.456  14.910 -0.4947  1.1990  0.6720
 3936TIP3    H233300   3.326   2.574  14.980  0.4036  1.1067  0.0244
 3937TIP3   OH233301   3.763   1.711  12.485 -0.5641 -0.8580 -0.2065
 3937TIP3    H133302   3.762   1.804  12.460  1.7248 -0.6639  0.1800
 3937TIP3    H233303   3.709   1.707  12.564 -1.8941 -0.1619 -1.0322
 3938TIP3   OH233304   2.472   4.852  13.383  0.1982 -0.1355 -0.2892
 3938TIP3    H133305   2.392   4.810  13.415  0.5164  0.1655  0.9600
 3938TIP3    H233306   2.543   4.803  13.426  0.6641  0.0053 -0.8895
 3939TIP3   OH233307   3.744   3.079   5.715 -0.2553  0.1972 -0.1701
 3939TIP3    H133308   3.717   3.045   5.800 -1.1146  1.0055 -0.1029
 3939TIP3    H233309   3.759   3.172   5.730 -1.7439  0.6337 -1.1879
 3940TIP3   OH233310   1.513   0.128   1.312  0.0854 -0.2692 -0.1129
 3940TIP3    H133311   1.483   0.187   1.382  0.0747 -1.0248  0.5285
 3940TIP3    H233312   1.552   0.054   1.358 -1.2222 -1.4875 -0.8811
 3941TIP3   OH233313   0.853   3.423  16.513 -0.2178 -0.0679 -0.6577
 3941TIP3    H133314   0.889   3.346  16.557  2.2430  0.4351 -1.6576
 3941TIP3    H233315   0.872   3.410  16.420 -0.1993  1.4967 -0.9105
 3942TIP3   OH233316   1.397   4.738   1.957 -0.2374  0.3045 -0.2924
 3942TIP3    H133317   1.400   4.648   1.925  2.9576  0.1982  0.0028
 3942TIP3    H233318   1.408   4.792   1.879 -2.2352  0.4882 -0.4803
 3943TIP3   OH233319   6.216   0.676  15.342  0.3451 -0.0952  0.3430
 3943TIP3    H133320   6.220   0.632  15.258 -1.6825 -1.3657  0.8587
 3943TIP3    H233321   6.261   0.616  15.402 -0.5174 -0.4493  0.6425
 3944TIP3   OH233322   2.616   1.730   3.053  0.9256 -0.8252  0.5137
 3944TIP3    H133323   2.585   1.644   3.082 -0.2090 -1.3772 -2.0069
 3944TIP3    H233324   2.577   1.792   3.114  0.0107 -1.9805  1.1367
 3945TIP3   OH233325   3.160   5.372   4.436 -0.1598 -0.1786 -0.4085
 3945TIP3    H133326   3.134   5.390   4.526 -2.4034 -1.0261 -0.8355
 3945TIP3    H233327   3.244   5.417   4.426 -0.5710  1.1706  1.6449
 3946TIP3   OH233328   4.884   4.317   4.484 -0.2720 -0.7275 -0.0782
 3946TIP3    H133329   4.865   4.247   4.421 -1.2963 -1.2970  0.8414
 3946TIP3    H233330   4.816   4.383   4.467  0.3715 -0.1787 -0.5825
 3947TIP3   OH233331   4.590   5.577   5.860 -0.4396 -0.1141  0.0293
 3947TIP3    H133332   4.522   5.635   5.894 -0.6214  1.9062 -3.3087
 3947TIP3    H233333   4.671   5.610   5.898 -0.9192 -0.0853  1.0534
 3948TIP3   OH233334   3.766   2.717  13.747 -0.7335 -0.5668  0.1640
 3948TIP3    H133335   3.855   2.701  13.715 -0.8261 -1.0187  0.1178
 3948TIP3    H233336   3.778   2.750  13.836 -0.4483  1.2503 -0.5114
 3949TIP3   OH233337   5.795   4.541  10.527  0.0319 -0.1510 -0.3487
 3949TIP3    H133338   5.786   4.636  10.523 -1.4304 -0.2470  0.1660
 3949TIP3    H233339   5.714   4.507  10.489 -0.4450 -1.1479  1.4275
 3950TIP3   OH233340   5.086   0.580  16.854 -0.1089 -0.1016  0.1144
 3950TIP3    H133341   5.100   0.576  16.948 -2.7517 -0.1973  0.5802
 3950TIP3    H233342   5.059   0.491  16.830  3.5530 -0.9795 -1.4056
 3951TIP3   OH233343   3.020   1.567   1.237  0.3150  0.1432  0.1859
 3951TIP3    H133344   3.049   1.495   1.293  1.0675  0.6718  0.4812
 3951TIP3    H233345   3.096   1.589   1.184  0.0844  0.7108  0.0820
 3952TIP3   OH233346   5.419   6.777  15.405  0.1498 -0.0611 -0.1053
 3952TIP3    H133347   5.511   6.763  15.428 -0.1604 -1.5086  0.3349
 3952TIP3    H233348   5.422   6.808  15.315  1.0188 -1.0697 -0.4397
 3953TIP3   OH233349   2.288   0.345   4.399  0.9199  0.2147 -0.2473
 3953TIP3    H133350   2.357   0.361   4.463  0.7865  1.4374 -0.3874
 3953TIP3    H233351   2.300   0.413   4.332 -0.6775  0.7493 -0.0484
 3954TIP3   OH233352   2.046   2.824   2.877 -0.1313 -0.2041 -0.4039
 3954TIP3    H133353   2.011   2.910   2.903  1.1605  0.1918  0.0784
 3954TIP3    H233354   1.968   2.774   2.853 -1.2502  0.0263  2.3836
 3955TIP3   OH233355   2.931   6.279   6.368  0.6156 -0.9608 -0.1624
 3955TIP3    H133356   2.978   6.359   6.392 -0.9271  0.2020 -0.8951
 3955TIP3    H233357   2.867   6.266   6.437  1.2228 -1.9009  0.2432
 3956TIP3   OH233358   1.530   3.913   4.912  0.5126  0.1005  0.1572
 3956TIP3    H133359   1.570   3.885   4.830  3.8565 -0.3532  1.7672
 3956TIP3    H233360   1.556   3.845   4.975 -0.8299  1.0884  1.8605
 3957TIP3   OH233361   3.323   5.350  13.385  0.0760  0.8226 -0.3158
 3957TIP3    H133362   3.381   5.379  13.315 -1.8236  0.4142 -2.1818
 3957TIP3    H233363   3.311   5.257  13.369  0.3733  0.5041  1.1894
 3958TIP3   OH233364   2.655   4.272  14.981 -0.0157 -0.1471 -0.1275
 3958TIP3    H133365   2.628   4.349  14.931 -0.5628  0.0126  0.4055
 3958TIP3    H233366   2.675   4.206  14.915  1.4651  0.7569 -0.6412
 3959TIP3   OH233367   3.493   1.711  14.324 -0.2748  0.5903 -0.2878
 3959TIP3    H133368   3.479   1.752  14.238  0.3702  0.5526 -0.4160
 3959TIP3    H233369   3.519   1.621  14.304  2.4483  1.2567 -0.1953
 3960TIP3   OH233370   2.527   1.412  12.647  0.0249  0.5974  0.4818
 3960TIP3    H133371   2.531   1.323  12.683 -1.1581  0.7836  1.1460
 3960TIP3    H233372   2.548   1.401  12.554 -0.8966 -0.5117  0.3746
 3961TIP3   OH233373   1.947   4.473   5.552  0.0684  0.7232  0.4145
 3961TIP3    H133374   1.917   4.384   5.532  1.1600  0.2533  0.8012
 3961TIP3    H233375   1.924   4.524   5.475  0.4195 -0.1403 -0.2830
 3962TIP3   OH233376   2.871   4.053   3.717 -0.2856 -0.5959 -0.5073
 3962TIP3    H133377   2.965   4.045   3.732 -0.0043 -0.4839 -2.0355
 3962TIP3    H233378   2.841   4.110   3.787  0.9536  0.1103 -0.5095
 3963TIP3   OH233379   1.220   3.489  13.075  0.5878 -0.0588  0.0902
 3963TIP3    H133380   1.175   3.430  13.134 -0.0946 -0.5979 -0.9367
 3963TIP3    H233381   1.165   3.567  13.072  0.1727 -0.3673 -0.4785
 3964TIP3   OH233382   6.708   2.836  17.078  0.3900  0.0242  0.4894
 3964TIP3    H133383   6.699   2.916  17.026 -0.3965 -0.6908 -0.4848
 3964TIP3    H233384   6.623   2.793  17.072  0.4641 -0.3748  1.8911
 3965TIP3   OH233385   1.611   2.241   0.405  1.3647 -0.7977 -0.4932
 3965TIP3    H133386   1.650   2.321   0.442  1.2218  0.0484 -2.0769
 3965TIP3    H233387   1.527   2.233   0.450  0.5510  1.0100 -1.5421
 3966TIP3   OH233388   5.864   5.076   1.709 -0.3207 -0.7575 -0.6406
 3966TIP3    H133389   5.959   5.064   1.700 -0.3361 -0.1877 -1.7474
 3966TIP3    H233390   5.826   5.019   1.642 -0.8302 -1.7099  0.4176
 3967TIP3   OH233391   1.208   3.481   1.070  0.6023  0.7504 -0.2873
 3967TIP3    H133392   1.164   3.514   1.149  1.3618  0.2648  0.3575
 3967TIP3    H233393   1.299   3.512   1.078  0.9148 -0.0825 -0.5013
 3968TIP3   OH233394   1.815   3.508  17.154  0.1562  0.2175  0.1690
 3968TIP3    H133395   1.737   3.455  17.172 -1.5580  1.3918 -3.0311
 3968TIP3    H233396   1.798   3.591  17.198 -0.5214  0.5272 -0.6544
 3969TIP3   OH233397   0.904   2.526  16.439  0.4186  0.4137  0.4965
 3969TIP3    H133398   0.883   2.591  16.506  0.5297  0.0243  0.9157
 3969TIP3    H233399   0.827   2.469  16.438 -0.2077  1.2376 -0.7225
 3970TIP3   OH233400   4.166   3.445   1.155 -0.2779 -0.1667  0.1876
 3970TIP3    H133401   4.131   3.479   1.238 -1.8004  0.1521 -0.5420
 3970TIP3    H233402   4.259   3.433   1.171  0.5110  4.3964  0.5732
 3971TIP3   OH233403   0.885   0.876   2.427  0.1753  0.2344 -0.5066
 3971TIP3    H133404   0.814   0.842   2.372 -0.2763  1.5402 -0.7703
 3971TIP3    H233405   0.848   0.954   2.468  1.1797  0.4307  0.0496
 3972TIP3   OH233406   1.794   6.034  14.226 -0.1168  0.1820  0.1046
 3972TIP3    H133407   1.796   5.984  14.144 -3.2344  0.4331 -0.2448
 3972TIP3    H233408   1.841   5.979  14.288  1.0877 -0.6939 -1.4877
 3973TIP3   OH233409   6.144   0.452  12.127 -0.0896  0.6538  0.8140
 3973TIP3    H133410   6.119   0.404  12.049  0.2494  0.4395  0.8330
 3973TIP3    H233411   6.090   0.415  12.197  0.6905 -0.2266  0.9718
 3974TIP3   OH233412   0.694   0.672   5.089 -0.4629  0.0144 -0.3461
 3974TIP3    H133413   0.715   0.690   4.997 -0.4738  1.8540 -0.0286
 3974TIP3    H233414   0.777   0.684   5.135 -1.0269  2.1135  0.2329
 3975TIP3   OH233415   6.419   0.388  12.210  0.3009  0.4601 -0.4366
 3975TIP3    H133416   6.332   0.425  12.192 -0.7164 -1.2075  0.8039
 3975TIP3    H233417   6.424   0.310  12.155  1.2971  0.8806 -0.9665
 3976TIP3   OH233418   4.425   2.859  10.588  0.0666 -0.1371 -0.4122
 3976TIP3    H133419   4.419   2.936  10.644 -0.9121 -1.3943  1.3353
 3976TIP3    H233420   4.466   2.890  10.507 -0.3828  2.2013  0.1939
 3977TIP3   OH233421   1.235   5.039   6.883  0.4306  0.5707  0.2744
 3977TIP3    H133422   1.189   4.986   6.948 -0.1442 -1.5243 -1.6800
 3977TIP3    H233423   1.167   5.094   6.844  0.1811 -0.2099 -0.4252
 3978TIP3   OH233424   6.483   6.460  14.831  0.6124  0.0217 -0.3384
 3978TIP3    H133425   6.524   6.478  14.746 -0.5092  0.7718 -0.7337
 3978TIP3    H233426   6.485   6.364  14.838 -0.9139 -0.1962 -2.0573
 3979TIP3   OH233427   5.927   1.120  16.390 -0.1236 -0.3144 -0.1558
 3979TIP3    H133428   5.988   1.047  16.402  1.3360  0.7870 -0.4786
 3979TIP3    H233429   5.943   1.150  16.300  0.8675  1.7034  0.6336
 3980TIP3   OH233430   0.998   1.830  14.163  0.6152 -0.0775  0.2177
 3980TIP3    H133431   1.002   1.918  14.126 -0.7315 -0.2975 -0.5171
 3980TIP3    H233432   1.074   1.785  14.125  0.0403  0.1151 -1.2076
 3981TIP3   OH233433   0.026   1.080  13.787 -0.0732 -0.4338 -0.0370
 3981TIP3    H133434   0.008   1.041  13.872 -0.7783  1.1259  0.5680
 3981TIP3    H233435  -0.051   1.059  13.734 -0.5442  0.2751  0.3512
 3982TIP3   OH233436   1.103   2.305   5.516  0.1470  0.2140  0.3847
 3982TIP3    H133437   1.186   2.258   5.514  0.5887  1.0001 -0.3875
 3982TIP3    H233438   1.116   2.379   5.458  0.1565  2.4477  3.0336
 3983TIP3   OH233439   5.368   2.642   5.505 -0.3275 -0.0541 -0.4938
 3983TIP3    H133440   5.405   2.554   5.516 -0.7770 -0.0511  1.3289
 3983TIP3    H233441   5.364   2.654   5.410  5.5914  0.4697 -1.0667
 3984TIP3   OH233442   0.721   5.738  13.998  0.4809 -0.0552 -0.2042
 3984TIP3    H133443   0.701   5.719  13.907  0.4177  1.3131 -0.4967
 3984TIP3    H233444   0.718   5.653  14.042 -2.4251 -0.3913 -0.8863
 3985TIP3   OH233445   5.687   1.621  15.033 -0.4130  0.3577  0.4336
 3985TIP3    H133446   5.615   1.623  15.095 -1.7607 -0.1529 -1.0473
 3985TIP3    H233447   5.748   1.557  15.069  0.6271  2.5887  3.0133
 3986TIP3   OH233448   5.109   6.062  16.145 -0.0367 -0.3885  0.1965
 3986TIP3    H133449   5.141   6.113  16.070  0.7983  0.0818  0.8504
 3986TIP3    H233450   5.026   6.105  16.169 -0.1295 -0.3207 -0.2311
 3987TIP3   OH233451   6.481   3.037  14.117 -0.4771  0.8765 -0.3675
 3987TIP3    H133452   6.547   3.050  14.185 -0.7776  2.3171 -0.3144
 3987TIP3    H233453   6.495   2.948  14.086  0.2739  0.5170  0.9374
 3988TIP3   OH233454   0.832   4.550  17.097  0.0466 -0.0867 -0.0475
 3988TIP3    H133455   0.810   4.636  17.061  0.0178  0.7956  1.9261
 3988TIP3    H233456   0.751   4.521  17.140 -0.6439 -2.1585 -2.4776
 3989TIP3   OH233457   5.800   4.296  10.687  0.2138  0.0730  0.1125
 3989TIP3    H133458   5.803   4.387  10.658 -0.9789 -0.7180 -2.9331
 3989TIP3    H233459   5.845   4.295  10.771 -0.3983  3.5756  0.6026
 3990TIP3   OH233460   0.692   1.177   5.016  0.4462 -0.1543  0.3211
 3990TIP3    H133461   0.644   1.190   4.935  2.0638  2.6406 -0.3319
 3990TIP3    H233462   0.673   1.087   5.042 -0.6775 -0.9040 -2.7576
 3991TIP3   OH233463   2.320   3.738   2.472  0.0527 -0.3795  0.0849
 3991TIP3    H133464   2.253   3.714   2.537  1.2437 -0.6904  1.2456
 3991TIP3    H233465   2.286   3.705   2.389 -2.1889  1.2729  0.2598
 3992TIP3   OH233466   5.916   3.133  15.587  0.2128  0.0381 -0.6610
 3992TIP3    H133467   5.937   3.152  15.495  0.4890  1.3838 -0.3413
 3992TIP3    H233468   5.997   3.098  15.623 -0.4849 -2.6168 -1.4239
 3993TIP3   OH233469   3.592   6.702  11.922 -0.2015  0.4447  0.6279
 3993TIP3    H133470   3.508   6.699  11.969 -0.5246 -0.1887  0.0310
 3993TIP3    H233471   3.624   6.612  11.924  0.2754  0.6086  0.4979
 3994TIP3   OH233472   1.835   1.553   2.016 -0.0766  0.1269  0.0218
 3994TIP3    H133473   1.781   1.614   1.965  2.0100 -0.1263 -2.7723
 3994TIP3    H233474   1.790   1.469   2.009  0.0738  0.1293 -1.3940
 3995TIP3   OH233475   3.610   5.852   5.194  0.2655  0.4457  0.3038
 3995TIP3    H133476   3.524   5.870   5.230 -0.1287  0.3370 -0.5591
 3995TIP3    H233477   3.670   5.857   5.269 -0.4642  0.6869  0.8720
 3996TIP3   OH233478   3.245   2.688   1.039 -0.4488 -0.8452 -0.0537
 3996TIP3    H133479   3.292   2.764   1.007 -0.5774 -0.4790  0.5988
 3996TIP3    H233480   3.250   2.624   0.968 -0.4508 -0.1830 -0.6562
 3997TIP3   OH233481   2.442   1.783  12.061 -0.6337  0.2288 -0.1196
 3997TIP3    H133482   2.373   1.846  12.082  0.1217  1.4755 -1.2030
 3997TIP3    H233483   2.434   1.769  11.966 -0.7279 -1.2591  0.0855
 3998TIP3   OH233484   1.474   5.718  13.999 -0.3546  0.1064 -0.4252
 3998TIP3    H133485   1.445   5.633  14.032 -1.5192  0.8267  0.4888
 3998TIP3    H233486   1.472   5.708  13.904 -1.5838 -0.5499 -0.3549
 3999TIP3   OH233487   5.725   3.767  15.979  0.3066 -0.4071 -0.2030
 3999TIP3    H133488   5.687   3.836  15.924 -0.3733 -1.3912 -0.9839
 3999TIP3    H233489   5.654   3.704  15.992  0.9769 -1.0717  0.3388
 4000TIP3   OH233490   2.223   4.983   1.543 -0.3081  0.4371 -0.2142
 4000TIP3    H133491   2.258   4.897   1.567 -0.6950  0.6997  1.3903
 4000TIP3    H233492   2.128   4.974   1.552 -0.2830  1.4083  1.4387
 4001TIP3   OH233493   2.615   4.621   2.466  0.3547  0.5568  0.3559
 4001TIP3    H133494   2.563   4.560   2.414 -3.1282  0.5344  3.4254
 4001TIP3    H233495   2.679   4.565   2.511  0.4414 -0.0556 -0.5048
 4002TIP3   OH233496   1.262   1.158   1.056  0.1630  0.7379  0.0796
 4002TIP3    H133497   1.251   1.222   0.985 -0.0821  2.6490  1.7562
 4002TIP3    H233498   1.355   1.162   1.079 -0.2554  2.2975  1.7248
 4003TIP3   OH233499   6.779   0.720  13.026 -0.7007 -0.2440  0.5077
 4003TIP3    H133500   6.851   0.760  13.075  0.6953  0.1035 -1.6807
 4003TIP3    H233501   6.700   0.760  13.062  0.5141  3.5793 -0.5920
 4004TIP3   OH233502   1.887   4.358  12.913  0.3049 -0.6046 -0.4131
 4004TIP3    H133503   1.967   4.410  12.905 -0.4865  0.6460 -0.3138
 4004TIP3    H233504   1.908   4.276  12.868  1.1703  0.2416 -1.6169
 4005TIP3   OH233505   1.005   5.247  14.132  0.1151  0.1823  0.2850
 4005TIP3    H133506   1.000   5.325  14.076  0.9197  0.1511  0.1501
 4005TIP3    H233507   0.914   5.226  14.152 -0.1572  0.5990 -0.4536
 4006TIP3   OH233508   2.954   4.717   4.853  0.4046  0.4815 -0.5493
 4006TIP3    H133509   2.894   4.709   4.780  1.4368  1.5223 -1.5447
 4006TIP3    H233510   2.945   4.634   4.901  1.3069 -1.2048 -3.0901
 4007TIP3   OH233511   6.199   3.436  16.936  0.6153 -0.6806 -0.2745
 4007TIP3    H133512   6.140   3.360  16.936  1.4541 -1.3446  0.1276
 4007TIP3    H233513   6.259   3.420  16.863 -0.0019  0.2514 -1.0124
 4008TIP3   OH233514   0.541   6.373   0.233  0.7045 -0.5075 -0.1490
 4008TIP3    H133515   0.493   6.451   0.205  1.0260  0.2980  1.3951
 4008TIP3    H233516   0.473   6.306   0.245  0.3633 -0.3246 -1.0130
 4009TIP3   OH233517   2.149   4.240  11.629 -0.5102  0.1417  0.7726
 4009TIP3    H133518   2.217   4.306  11.647 -0.8335  0.0004  2.6716
 4009TIP3    H233519   2.186   4.158  11.660  0.6474 -1.0585 -3.2537
 4010TIP3   OH233520   3.553   4.441  12.036 -0.5081  0.4647  0.0436
 4010TIP3    H133521   3.621   4.396  12.086 -1.1481 -2.8236 -1.7578
 4010TIP3    H233522   3.591   4.527  12.016  2.5258 -0.6916  0.2932
 4011TIP3   OH233523   3.015   2.122  13.769 -0.2769 -0.0407 -0.7652
 4011TIP3    H133524   3.029   2.177  13.846  0.0239 -0.6273 -0.3975
 4011TIP3    H233525   2.998   2.185  13.698 -0.0261  0.5212 -0.3378
 4012TIP3   OH233526   2.114   6.829   3.946  0.1307 -0.2005 -0.7225
 4012TIP3    H133527   2.145   6.751   3.992 -2.0040 -0.4907  0.3231
 4012TIP3    H233528   2.056   6.872   4.008  1.4114  2.3942 -1.2020
 4013TIP3   OH233529   5.735   4.286  14.239  0.1444  0.5149  0.1752
 4013TIP3    H133530   5.686   4.214  14.278  1.4869 -1.1394 -1.0302
 4013TIP3    H233531   5.732   4.270  14.145 -0.8923  2.9961 -0.2971
 4014TIP3   OH233532   6.012   5.278  13.928  0.4108  0.4910 -0.1803
 4014TIP3    H133533   6.095   5.285  13.881  0.4926 -0.6022 -0.2384
 4014TIP3    H233534   6.029   5.214  13.997 -1.4508 -3.3401 -2.8991
 4015TIP3   OH233535   6.459   1.479  10.509  0.4162  0.5189 -0.4221
 4015TIP3    H133536   6.467   1.392  10.547  0.9130  0.7462  0.0285
 4015TIP3    H233537   6.375   1.479  10.464 -0.0143  0.1036  0.3521
 4016TIP3   OH233538   4.584   0.418   0.540 -0.6822 -0.2281  0.3757
 4016TIP3    H133539   4.573   0.410   0.445 -0.0818  1.6334  0.1030
 4016TIP3    H233540   4.627   0.337   0.566  0.2047 -0.2845 -1.1413
 4017TIP3   OH233541   3.537   0.151  14.936 -0.1806  0.2083 -0.6955
 4017TIP3    H133542   3.576   0.171  15.021 -1.2425 -1.1168  0.1640
 4017TIP3    H233543   3.471   0.220  14.924  1.1357  1.4124 -1.3128
 4018TIP3   OH233544   4.172   4.145   5.302 -0.1113 -0.0985 -0.0616
 4018TIP3    H133545   4.107   4.211   5.325  1.2063  0.4395  2.5213
 4018TIP3    H233546   4.210   4.118   5.385  2.3916 -0.9793 -1.3597
 4019TIP3   OH233547   6.828   1.859   2.407  0.3195 -0.2823 -0.3245
 4019TIP3    H133548   6.890   1.922   2.369  1.2628 -2.3124 -2.3537
 4019TIP3    H233549   6.742   1.887   2.375  0.8364 -0.5624 -2.0528
 4020TIP3   OH233550   5.333   2.006   3.874 -0.8564  0.4038 -0.0867
 4020TIP3    H133551   5.381   2.017   3.956  1.0609 -0.9941 -0.9442
 4020TIP3    H233552   5.356   2.083   3.822  0.1089 -0.0068 -0.2956
 4021TIP3   OH233553   0.193   1.974   6.331  0.4672 -0.3681 -0.3586
 4021TIP3    H133554   0.131   2.047   6.342  0.4076 -0.0312 -2.5086
 4021TIP3    H233555   0.213   1.947   6.420 -3.1992 -0.8791  0.4831
 4022TIP3   OH233556   6.535   3.914   1.373 -0.1844  0.5192  0.1952
 4022TIP3    H133557   6.630   3.921   1.377 -0.2519  1.6099 -0.0018
 4022TIP3    H233558   6.512   3.941   1.284 -0.7451  1.1287  0.5166
 4023TIP3   OH233559   3.249   6.457   0.061 -0.2044  0.0333 -0.0672
 4023TIP3    H133560   3.163   6.500   0.057  0.4130  1.2138 -3.3615
 4023TIP3    H233561   3.305   6.519   0.108 -0.7410 -0.0678  0.7422
 4024TIP3   OH233562   1.648   4.675  16.323  0.4027 -0.3725 -0.2048
 4024TIP3    H133563   1.621   4.598  16.274 -0.0726 -1.1487  1.2231
 4024TIP3    H233564   1.732   4.650  16.362 -0.0397 -0.4149  0.7539
 4025TIP3   OH233565   5.939   2.000   0.686  0.0934  0.2696  0.3822
 4025TIP3    H133566   5.965   2.058   0.614 -1.4456  1.1590  0.4895
 4025TIP3    H233567   5.876   2.051   0.737 -0.6723 -1.1898  0.9830
 4026TIP3   OH233568   6.101   3.974  11.075  0.4050  0.7740  0.1635
 4026TIP3    H133569   6.135   4.031  11.006 -0.0457  1.3761  0.4221
 4026TIP3    H233570   6.135   3.887  11.054 -1.3495  0.5004 -2.0059
 4027TIP3   OH233571   5.741   3.597   2.783  0.2856 -0.1787 -0.1086
 4027TIP3    H133572   5.729   3.594   2.878  0.4634 -0.2449 -0.0870
 4027TIP3    H233573   5.823   3.550   2.768 -0.3506 -1.2299 -0.4164
 4028TIP3   OH233574   5.430   1.149  14.287  0.1284  0.3253 -0.5902
 4028TIP3    H133575   5.505   1.148  14.228  0.5450  1.2832 -0.1014
 4028TIP3    H233576   5.390   1.235  14.273 -0.4100  0.1336 -0.2706
 4029TIP3   OH233577   1.639   4.438  16.151 -0.6406  0.2195 -1.0101
 4029TIP3    H133578   1.729   4.459  16.128  0.1112  0.1030  1.4996
 4029TIP3    H233579   1.599   4.410  16.069  2.1954 -1.8567 -1.8677
 4030TIP3   OH233580   2.145   4.263   3.285  0.0771  0.4930  0.1415
 4030TIP3    H133581   2.192   4.333   3.330 -1.0096  1.6418 -0.4553
 4030TIP3    H233582   2.075   4.238   3.346  0.0151  0.4238  0.0423
 4031TIP3   OH233583   2.218   0.126   1.270  0.3888 -0.2999  0.3581
 4031TIP3    H133584   2.158   0.195   1.241  1.0617  0.1475  0.0076
 4031TIP3    H233585   2.297   0.138   1.217  0.4657 -1.4436  0.1801
 4032TIP3   OH233586   2.701   2.907   1.758  0.2867 -0.4218 -0.9419
 4032TIP3    H133587   2.766   2.902   1.688  0.4151  0.9694 -0.9610
 4032TIP3    H233588   2.714   2.994   1.796 -0.3685 -0.8189  0.2380
 4033TIP3   OH233589   6.380   4.111  12.948 -0.1218  0.2101 -0.1354
 4033TIP3    H133590   6.287   4.090  12.935 -0.6937  1.3744  1.7546
 4033TIP3    H233591   6.389   4.201  12.917  0.2136  0.3333  0.3082
 4034TIP3   OH233592   6.457   1.107   2.516 -0.6245  0.3017  0.4285
 4034TIP3    H133593   6.455   1.056   2.435 -0.2021  0.2781  0.4298
 4034TIP3    H233594   6.384   1.074   2.568 -1.7781  1.2698 -0.5210
 4035TIP3   OH233595   2.032   2.865  15.571  0.4098  0.5333  0.2340
 4035TIP3    H133596   2.090   2.940  15.584 -0.8264  1.2496  1.8858
 4035TIP3    H233597   1.994   2.879  15.484  0.4270  1.6833  0.3924
 4036TIP3   OH233598   4.495   0.692  14.602 -0.2973  0.1230  0.3811
 4036TIP3    H133599   4.430   0.643  14.551 -0.1078 -1.6957  1.7780
 4036TIP3    H233600   4.577   0.646  14.587  0.0731  0.5631  1.0169
 4037TIP3   OH233601   1.273   3.871  13.038 -0.1073  0.2268 -0.2590
 4037TIP3    H133602   1.341   3.818  12.996  0.0679  1.5597 -1.7780
 4037TIP3    H233603   1.205   3.879  12.971 -0.1447  1.8580 -0.0755
 4038TIP3   OH233604   2.693   5.772  14.461  0.3507 -0.3995 -0.4335
 4038TIP3    H133605   2.779   5.782  14.420  0.5704  1.3000  0.3540
 4038TIP3    H233606   2.700   5.822  14.542 -1.5897  0.2978 -0.6616
 4039TIP3   OH233607   2.040   4.353   1.069 -0.2190 -0.3321 -0.7067
 4039TIP3    H133608   2.104   4.418   1.101 -1.2407  0.4948 -0.2609
 4039TIP3    H233609   2.060   4.274   1.118 -1.7554  0.9004  2.2080
 4040TIP3   OH233610   5.125   4.379  10.597  0.0600 -0.0021 -0.2788
 4040TIP3    H133611   5.035   4.400  10.574 -0.4395  0.0289  1.5571
 4040TIP3    H233612   5.127   4.284  10.609  1.0735 -0.4784 -3.3838
 4041TIP3   OH233613   6.676   6.645  16.673 -0.8003 -0.1163  0.0887
 4041TIP3    H133614   6.655   6.724  16.723 -0.7336 -0.5050  0.7409
 4041TIP3    H233615   6.690   6.677  16.584 -1.1345  0.5596  0.2663
 4042TIP3   OH233616   1.608   1.928  16.030 -0.3716 -0.8148 -0.4596
 4042TIP3    H133617   1.553   1.907  16.106 -0.7942  1.4508 -0.0726
 4042TIP3    H233618   1.689   1.879  16.045 -0.4553 -0.4565  1.4705
 4043TIP3   OH233619   1.394   3.424  14.502 -0.3565 -0.0629  0.2057
 4043TIP3    H133620   1.477   3.468  14.482 -0.1940  0.2430  1.4590
 4043TIP3    H233621   1.340   3.491  14.544 -0.5794 -0.7039  0.9774
 4044TIP3   OH233622   3.531   6.501   1.259 -0.2138 -0.1401  0.3137
 4044TIP3    H133623   3.450   6.530   1.301 -0.1059 -1.7892  1.7909
 4044TIP3    H233624   3.536   6.407   1.278  1.2228 -0.4237 -1.1765
 4045TIP3   OH233625   5.650   2.610   0.143  0.5060 -0.1826  0.6029
 4045TIP3    H133626   5.724   2.563   0.104 -0.6385 -0.5012 -1.2984
 4045TIP3    H233627   5.607   2.546   0.198  0.1060 -0.8208 -0.4222
 4046TIP3   OH233628   6.188   0.288  15.052  0.5108  0.3149  0.3298
 4046TIP3    H133629   6.226   0.207  15.019  0.5367  0.4927 -0.0944
 4046TIP3    H233630   6.130   0.261  15.123  0.6683 -0.0553  0.3181
 4047TIP3   OH233631   0.808   0.947   1.360 -0.6250  0.6805  0.2396
 4047TIP3    H133632   0.744   0.969   1.293 -0.4858 -0.6420 -0.3521
 4047TIP3    H233633   0.885   1.000   1.338 -0.3244 -0.2601 -1.0983
 4048TIP3   OH233634   4.612   6.063  13.118  0.1975  0.2318  0.1150
 4048TIP3    H133635   4.604   6.106  13.203 -2.0580 -1.5955  0.9484
 4048TIP3    H233636   4.532   6.010  13.110  1.7519 -2.0719 -1.7647
 4049TIP3   OH233637   1.535   1.700  11.261 -0.3394 -0.0130  0.1907
 4049TIP3    H133638   1.623   1.689  11.224  0.2093  0.9179  1.1409
 4049TIP3    H233639   1.544   1.775  11.321 -2.3046  1.5555 -1.3255
 4050TIP3   OH233640   3.987   3.022  13.514  0.5008  0.0893  0.2418
 4050TIP3    H133641   3.923   3.002  13.445  0.8072 -0.5675  0.1384
 4050TIP3    H233642   4.012   2.936  13.549 -0.5801  0.4507  2.0507
 4051TIP3   OH233643   1.419   4.387  11.653  0.0061 -0.0749 -0.2688
 4051TIP3    H133644   1.455   4.309  11.612 -0.5494 -0.9793  0.8993
 4051TIP3    H233645   1.328   4.390  11.624 -0.3626 -0.6655  0.7637
 4052TIP3   OH233646   2.266   3.232   5.999 -0.0925 -0.5045 -0.0092
 4052TIP3    H133647   2.246   3.326   6.000 -0.7812 -0.6335 -0.5067
 4052TIP3    H233648   2.262   3.208   5.906  0.5021 -0.9462  0.0746
 4053TIP3   OH233649   3.124   5.568   6.336  0.5595 -0.1727 -0.0741
 4053TIP3    H133650   3.216   5.567   6.309  1.1938  0.4693  1.8585
 4053TIP3    H233651   3.089   5.484   6.308  1.9313 -0.7003 -0.2584
 4054TIP3   OH233652   3.099   0.912   0.647  0.3712  0.0412  0.2253
 4054TIP3    H133653   3.026   0.965   0.678  2.1407  2.6260  0.2210
 4054TIP3    H233654   3.092   0.914   0.552  0.3648  0.1398  0.2284
 4055TIP3   OH233655   0.473   0.769   0.531 -0.0202  0.2728 -0.3206
 4055TIP3    H133656   0.489   0.694   0.473 -0.4717 -1.0394  1.1587
 4055TIP3    H233657   0.547   0.768   0.591  0.1227  1.2237 -0.4753
 4056TIP3   OH233658   2.261   5.673  12.803  0.1998 -0.0357  0.0276
 4056TIP3    H133659   2.296   5.588  12.828  0.9617  0.3344  0.2342
 4056TIP3    H233660   2.166   5.663  12.813  0.3906 -0.3128  1.7920
 4057TIP3   OH233661   3.732   0.237  12.735 -0.4803 -0.2672  0.2302
 4057TIP3    H133662   3.644   0.217  12.766 -1.7014  1.2341 -1.9935
 4057TIP3    H233663   3.724   0.241  12.640  1.5210  1.8306  0.0482
 4058TIP3   OH233664   0.918   3.160  13.049  0.3312 -0.4987  0.5660
 4058TIP3    H133665   0.827   3.141  13.072 -0.2025 -0.8436 -1.5847
 4058TIP3    H233666   0.938   3.098  12.979  1.0210  1.9136 -1.5077
 4059TIP3   OH233667   1.129   3.940  16.332  0.2472  0.0456 -0.0046
 4059TIP3    H133668   1.155   3.993  16.407  2.2497 -0.3492 -0.3703
 4059TIP3    H233669   1.100   4.004  16.267  2.1310  0.7042 -0.2530
 4060TIP3   OH233670   0.159   1.532  15.640  0.4690 -0.0509 -0.1138
 4060TIP3    H133671   0.240   1.578  15.663 -0.9792  2.9943 -0.6193
 4060TIP3    H233672   0.113   1.521  15.724  0.6905 -0.2805 -0.0234
 4061TIP3   OH233673   1.191   0.494  10.797 -0.3853 -0.2526 -0.8698
 4061TIP3    H133674   1.201   0.431  10.726 -2.0334 -0.1179 -1.2657
 4061TIP3    H233675   1.193   0.579  10.754  2.4474  0.0926 -0.2702
 4062TIP3   OH233676   4.844   2.892   3.060 -0.1834 -0.5737 -0.2177
 4062TIP3    H133677   4.865   2.800   3.078 -1.5439 -0.9416 -0.4419
 4062TIP3    H233678   4.926   2.929   3.027  0.1680 -1.9043 -0.8910
 4063TIP3   OH233679   0.726   2.394  16.976 -0.6330  0.3829 -0.2284
 4063TIP3    H133680   0.635   2.414  17.000  0.3452  3.8781  1.2770
 4063TIP3    H233681   0.752   2.324  17.034 -2.0234  0.1302  0.1226
 4064TIP3   OH233682   6.113   0.402  12.619  0.5761 -0.2508 -0.7093
 4064TIP3    H133683   6.151   0.490  12.608 -0.5994  0.4621  0.6428
 4064TIP3    H233684   6.130   0.380  12.710  0.2669 -1.1403 -0.8632
 4065TIP3   OH233685   1.023   3.460   5.288  0.8304 -0.1844  0.4964
 4065TIP3    H133686   1.041   3.371   5.256  0.8293 -0.7129  1.8897
 4065TIP3    H233687   0.932   3.476   5.262  0.8118 -0.6025  0.2795
 4066TIP3   OH233688   2.631   1.227  15.573 -0.1966  0.8280  0.6085
 4066TIP3    H133689   2.536   1.219  15.580 -0.2323 -2.0224 -1.4754
 4066TIP3    H233690   2.645   1.270  15.488  0.3988  0.9103  0.7444
 4067TIP3   OH233691   2.512   2.665  11.474 -0.2697 -0.5338  0.1878
 4067TIP3    H133692   2.494   2.751  11.437  0.5353 -0.7193 -0.6942
 4067TIP3    H233693   2.431   2.639  11.517 -1.1873 -0.1946 -1.2830
 4068TIP3   OH233694   0.873   4.256  13.078 -0.1036  0.0592  0.1948
 4068TIP3    H133695   0.921   4.324  13.032 -0.4267 -1.2397 -2.2275
 4068TIP3    H233696   0.794   4.243  13.026 -0.3271 -1.7449  0.9191
 4069TIP3   OH233697   0.283   3.104  14.685  1.0218 -0.5766 -0.1614
 4069TIP3    H133698   0.228   3.077  14.611 -0.7132  0.3017  0.7627
 4069TIP3    H233699   0.246   3.060  14.761  0.9286  0.8321  0.6494
 4070TIP3   OH233700   5.683   3.219   0.661  0.3453 -0.0873 -0.3797
 4070TIP3    H133701   5.610   3.216   0.598 -0.4679  0.2725  0.5225
 4070TIP3    H233702   5.667   3.146   0.720  0.1990  0.5521  0.3802
 4071TIP3   OH233703   2.879   4.250  16.032 -0.0814 -0.7379 -0.0289
 4071TIP3    H133704   2.888   4.345  16.021 -0.6323 -0.4968  1.4007
 4071TIP3    H233705   2.916   4.213  15.951 -1.7988  0.7527 -1.6081
 4072TIP3   OH233706   3.214   4.651  14.590  0.3776  0.3976  0.0643
 4072TIP3    H133707   3.298   4.646  14.636 -0.3127 -1.9951  1.2193
 4072TIP3    H233708   3.230   4.609  14.506  0.1413 -0.9737  0.6792
 4073TIP3   OH233709   5.326   6.021   5.164  0.1178  0.1570  0.0928
 4073TIP3    H133710   5.292   5.992   5.079 -1.3808  2.1676 -0.0766
 4073TIP3    H233711   5.264   6.088   5.192  1.5181  0.7174  2.0127
 4074TIP3   OH233712   5.295   4.509  12.483 -0.7327 -0.1473  0.1103
 4074TIP3    H133713   5.315   4.566  12.409 -2.2142 -0.2829 -0.4335
 4074TIP3    H233714   5.292   4.568  12.558  1.5103 -0.1123  0.2428
 4075TIP3   OH233715   0.374   5.766  13.257 -0.1044 -0.0414 -0.2987
 4075TIP3    H133716   0.338   5.677  13.256  0.2513 -0.1877 -0.6548
 4075TIP3    H233717   0.366   5.796  13.167 -1.2804  0.7348  0.0509
 4076TIP3   OH233718   1.822   5.341   2.040  0.1351 -0.2010  0.3963
 4076TIP3    H133719   1.891   5.371   1.981 -0.5123  1.8340  0.6083
 4076TIP3    H233720   1.861   5.343   2.127 -0.2137  1.1137  0.5362
 4077TIP3   OH233721   2.208   0.929   6.067  0.1090 -0.8292  0.3330
 4077TIP3    H133722   2.271   0.858   6.063  0.4982 -0.5287  1.1216
 4077TIP3    H233723   2.136   0.894   6.119 -0.9905 -1.6229 -1.5940
 4078TIP3   OH233724   1.466   2.039   6.118  0.1508  0.1204 -0.0116
 4078TIP3    H133725   1.461   2.074   6.207  2.0157  0.5832 -0.0497
 4078TIP3    H233726   1.532   1.970   6.123 -0.0837 -0.1806 -0.9436
 4079TIP3   OH233727   2.220   1.944   4.128 -0.2277  0.0744  0.2291
 4079TIP3    H133728   2.169   1.983   4.199 -0.5435 -0.2646  0.1970
 4079TIP3    H233729   2.311   1.956   4.154 -0.3431 -0.2711  0.8168
 4080TIP3   OH233730   1.486   3.855  15.840  0.4013 -0.0036  0.5057
 4080TIP3    H133731   1.566   3.887  15.798  0.5909  0.1959  1.0064
 4080TIP3    H233732   1.516   3.789  15.902  0.1296 -0.2541  0.3731
 4081TIP3   OH233733   4.803   3.763  12.622  0.5081 -0.1454 -0.4553
 4081TIP3    H133734   4.790   3.769  12.528  0.8126 -1.9381 -0.6480
 4081TIP3    H233735   4.800   3.853  12.653  0.3858  0.4660 -2.1723
 4082TIP3   OH233736   3.872   3.540  13.315 -0.4330  0.2904  0.3594
 4082TIP3    H133737   3.940   3.536  13.382  0.8281 -1.0479 -0.9321
 4082TIP3    H233738   3.840   3.450  13.307 -0.5758  0.4268 -0.7962
 4083TIP3   OH233739   6.726   0.128  15.386  0.0514  0.1731  0.1517
 4083TIP3    H133740   6.695   0.085  15.306 -1.5882  0.2695  0.7063
 4083TIP3    H233741   6.816   0.153  15.366 -0.2065 -0.1306 -1.5415
 4084TIP3   OH233742   5.798   2.159   1.896 -0.3655  0.5009  0.1675
 4084TIP3    H133743   5.752   2.242   1.911 -0.1153  0.8235 -0.7600
 4084TIP3    H233744   5.838   2.169   1.810 -0.0293 -0.4554  0.1969
 4085TIP3   OH233745   2.219   4.919   2.316  0.0042 -0.1175  0.1311
 4085TIP3    H133746   2.134   4.959   2.335  0.4670  0.2983  1.5017
 4085TIP3    H233747   2.265   4.920   2.400  1.4050 -0.2329 -0.5966
 4086TIP3   OH233748   3.827   0.250  11.713 -0.3378  0.0802  0.3918
 4086TIP3    H133749   3.804   0.183  11.777 -2.5397  0.2108 -0.1744
 4086TIP3    H233750   3.888   0.207  11.653  0.8646 -0.3727  1.8969
 4087TIP3   OH233751   5.614   2.514   5.731 -0.0723 -0.3390 -0.4153
 4087TIP3    H133752   5.571   2.509   5.817  0.1883  2.2190 -0.0714
 4087TIP3    H233753   5.648   2.426   5.716  0.2943 -0.7347  2.3315
 4088TIP3   OH233754   0.918   4.519   1.461  0.2254  0.2512  0.2518
 4088TIP3    H133755   0.921   4.449   1.526 -1.3477 -0.5195 -0.4491
 4088TIP3    H233756   0.845   4.574   1.489 -0.1158  0.2171 -0.5600
 4089TIP3   OH233757   2.898   4.144   4.835 -0.1210 -0.7500 -0.3938
 4089TIP3    H133758   2.903   4.124   4.928 -0.9729  0.5601 -0.0417
 4089TIP3    H233759   2.859   4.067   4.795 -0.1933 -1.1283  0.3990
 4090TIP3   OH233760   6.257   0.913   1.714 -0.1124  0.2289 -0.6377
 4090TIP3    H133761   6.189   0.886   1.652 -0.2619  0.4813 -0.5846
 4090TIP3    H233762   6.333   0.933   1.660 -0.4849  1.2077 -0.8065
 4091TIP3   OH233763   6.723   4.093  10.340  0.4314 -0.8027  0.4782
 4091TIP3    H133764   6.689   4.046  10.264 -0.2310 -0.2264  0.4025
 4091TIP3    H233765   6.807   4.128  10.312  0.1245 -0.4724 -0.0347
 4092TIP3   OH233766   5.521   1.522  14.624  0.1369  0.0492  0.1101
 4092TIP3    H133767   5.472   1.568  14.693 -0.2122  0.2559 -0.2660
 4092TIP3    H233768   5.458   1.514  14.553  1.3915  2.6660 -1.4230
 4093TIP3   OH233769   1.395   2.946  12.611  0.3069  0.0735 -0.0034
 4093TIP3    H133770   1.454   2.964  12.538 -0.8956  1.7061 -0.6323
 4093TIP3    H233771   1.428   3.001  12.682  1.7262 -1.8238  0.8876
 4094TIP3   OH233772   5.983   6.323  12.680 -0.0324  0.3159 -0.6335
 4094TIP3    H133773   6.017   6.234  12.679 -1.4216 -0.3833  2.5472
 4094TIP3    H233774   6.057   6.376  12.710  0.5536  0.1344 -1.7186
 4095TIP3   OH233775   0.994   1.832   0.918 -0.4044  0.2281  0.2082
 4095TIP3    H133776   1.014   1.763   0.855 -0.0738  0.2819  0.2542
 4095TIP3    H233777   0.924   1.883   0.876 -0.5974 -0.0873  0.1418
 4096TIP3   OH233778   0.473   4.005  10.678 -0.0475 -0.6013 -0.2462
 4096TIP3    H133779   0.504   4.084  10.722 -2.6437  0.3355  0.0745
 4096TIP3    H233780   0.536   3.991  10.607  1.2232  0.9539  0.5196
 4097TIP3   OH233781   4.952   1.970  14.608  0.0786  0.0363 -0.2474
 4097TIP3    H133782   4.901   1.927  14.676 -0.6360 -0.5153 -1.1085
 4097TIP3    H233783   4.900   2.046  14.583 -0.5384 -0.7292 -1.3864
 4098TIP3   OH233784   5.332   1.606  16.880  0.9652  0.2848  0.6670
 4098TIP3    H133785   5.302   1.535  16.937  0.5966  0.8257  1.1554
 4098TIP3    H233786   5.305   1.580  16.792 -1.8557  1.2038  1.1747
 4099TIP3   OH233787   6.430   0.274   1.261  0.1400  0.7374 -0.3797
 4099TIP3    H133788   6.509   0.285   1.210  0.6153  0.0739  0.1892
 4099TIP3    H233789   6.449   0.200   1.319 -0.8523  0.6376 -0.1635
 4100TIP3   OH233790   1.486   1.148   4.791  0.1869 -0.1673  0.5576
 4100TIP3    H133791   1.548   1.184   4.854  0.4480 -0.2277  0.3361
 4100TIP3    H233792   1.402   1.185   4.816  0.1930 -0.6283  1.2808
 4101TIP3   OH233793   1.099   2.449  14.264 -0.7409  0.1136  0.5134
 4101TIP3    H133794   1.058   2.396  14.196 -1.0929  1.0341 -0.0179
 4101TIP3    H233795   1.191   2.422  14.264 -0.9536 -0.6246  0.3968
 4102TIP3   OH233796   5.184   5.401   0.638 -0.2259  0.1760 -0.2120
 4102TIP3    H133797   5.104   5.452   0.625  0.7132  2.0369  0.9074
 4102TIP3    H233798   5.163   5.314   0.604 -2.5841  0.7236 -0.3078
 4103TIP3   OH233799   1.346   6.697  13.700 -0.3508 -0.1941 -0.2644
 4103TIP3    H133800   1.400   6.620  13.683 -0.8403 -1.0009  1.6339
 4103TIP3    H233801   1.258   6.662  13.715 -0.4523  0.6484  1.2768
 4104TIP3   OH233802   3.309   4.471   2.319  0.7337  0.4594 -0.1211
 4104TIP3    H133803   3.216   4.473   2.341  0.2974 -0.4533 -1.6906
 4104TIP3    H233804   3.312   4.434   2.230  2.6413 -0.3933  0.2347
 4105TIP3   OH233805   6.747   3.102   3.493 -0.5787  0.2130 -0.7233
 4105TIP3    H133806   6.668   3.053   3.468 -0.5406  1.5387 -3.9225
 4105TIP3    H233807   6.809   3.085   3.423  2.4042 -1.3018  2.0047
 4106TIP3   OH233808   2.225   0.059   5.842 -0.1022  0.1186  0.2871
 4106TIP3    H133809   2.231   0.083   5.749 -1.4351 -0.5268  0.0072
 4106TIP3    H233810   2.267  -0.027   5.847 -2.1154 -0.9724 -0.2338
 4107TIP3   OH233811   2.710   5.190   4.964 -0.2365 -0.2311  0.3318
 4107TIP3    H133812   2.622   5.224   4.947  0.8655  3.6278  1.5037
 4107TIP3    H233813   2.725   5.206   5.057  2.0977  0.3296 -0.0723
 4108TIP3   OH233814   1.984   5.806  15.476 -0.0494  0.0953 -0.0998
 4108TIP3    H133815   1.954   5.749  15.405 -0.6771  0.0782  0.1742
 4108TIP3    H233816   2.074   5.778  15.492 -0.4746 -1.1432  0.3245
 4109TIP3   OH233817   2.852   0.295  16.198  0.1354  0.3362 -0.8311
 4109TIP3    H133818   2.835   0.212  16.153  0.9874 -0.5372  0.3841
 4109TIP3    H233819   2.945   0.291  16.221  0.1968  1.6550 -0.7876
 4110TIP3   OH233820   0.206   0.148  12.241  0.2931 -0.4782 -0.6841
 4110TIP3    H133821   0.223   0.055  12.251  1.8064  0.0772  3.8856
 4110TIP3    H233822   0.293   0.188  12.234 -0.2518  0.7610 -0.6928
 4111TIP3   OH233823   0.278   4.763  11.846 -0.3654  0.4412 -0.4393
 4111TIP3    H133824   0.305   4.671  11.849 -0.0918  0.5397  0.4250
 4111TIP3    H233825   0.183   4.759  11.854 -0.3000  0.2577  0.3212
 4112TIP3   OH233826   6.411   3.354  15.730 -0.1917  0.0700 -0.1962
 4112TIP3    H133827   6.430   3.402  15.810 -0.8367 -0.4197  0.2565
 4112TIP3    H233828   6.482   3.378  15.670  1.4660 -1.1623  1.1864
 4113TIP3   OH233829   4.024   1.636   0.923 -0.0540  0.1550  0.5627
 4113TIP3    H133830   4.083   1.699   0.964 -1.2574  2.3246 -0.7699
 4113TIP3    H233831   3.947   1.633   0.980 -0.9378  1.7374 -0.4368
 4114TIP3   OH233832   6.134   5.190   1.055  0.0373  0.3520  0.0834
 4114TIP3    H133833   6.090   5.270   1.086 -1.2841 -0.3594  0.1061
 4114TIP3    H233834   6.103   5.180   0.964  1.5078  0.7618 -0.4895
 4115TIP3   OH233835   3.935   5.618   0.115  0.8951 -0.2408  0.1598
 4115TIP3    H133836   3.854   5.661   0.087  2.0718  1.8011 -0.2994
 4115TIP3    H233837   3.933   5.622   0.210 -0.2884 -1.7375  0.2377
 4116TIP3   OH233838   0.369   2.136   4.258  0.3702 -0.2488 -0.1219
 4116TIP3    H133839   0.342   2.132   4.350 -0.2101  0.5740 -0.2492
 4116TIP3    H233840   0.460   2.105   4.259  0.2067 -0.7285  0.6572
 4117TIP3   OH233841   4.762   2.595  11.368 -0.4258  0.3386 -0.3526
 4117TIP3    H133842   4.743   2.546  11.288 -1.3439  0.8398 -0.4520
 4117TIP3    H233843   4.856   2.612  11.363 -0.4674  0.3796 -1.3407
 4118TIP3   OH233844   2.992   6.663  15.827  0.0880 -0.2648  0.0866
 4118TIP3    H133845   3.044   6.699  15.898 -0.7155  2.4400 -0.5849
 4118TIP3    H233846   2.914   6.628  15.870 -0.1441  0.8587  0.6074
 4119TIP3   OH233847   6.766   2.521  10.634 -0.4242  0.3319  0.7135
 4119TIP3    H133848   6.699   2.578  10.669  0.4360  1.3573  0.7225
 4119TIP3    H233849   6.849   2.563  10.656  0.3499 -1.8756  2.4329
 4120TIP3   OH233850   1.750   3.997  11.062 -0.5600 -0.3374 -0.1584
 4120TIP3    H133851   1.788   3.911  11.043  0.1979 -0.1150  0.2953
 4120TIP3    H233852   1.772   4.050  10.986 -0.1901 -0.2897 -0.0231
 4121TIP3   OH233853   2.601   6.141   5.499  0.2769 -0.4702  0.3573
 4121TIP3    H133854   2.508   6.162   5.489  0.5047 -0.0394 -1.1122
 4121TIP3    H233855   2.630   6.119   5.410  1.5981 -0.5281  0.7824
 4122TIP3   OH233856   0.264   5.971  15.844 -0.1813  0.2046 -0.2960
 4122TIP3    H133857   0.171   5.954  15.853 -0.0527 -0.0487  0.7279
 4122TIP3    H233858   0.273   6.065  15.859 -0.3250  0.3093 -0.8698
 4123TIP3   OH233859   0.025   6.067  11.012  0.3837  0.5751 -0.0394
 4123TIP3    H133860   0.010   6.147  10.963  0.4194  0.8165  0.3362
 4123TIP3    H233861   0.083   6.015  10.957  1.2454  1.2743  0.1844
 4124TIP3   OH233862   5.250   0.307  13.808 -0.4165  0.6938 -0.6000
 4124TIP3    H133863   5.281   0.236  13.864  0.5398  1.6995  0.1604
 4124TIP3    H233864   5.180   0.266  13.756  0.5093 -0.9608 -0.6142
 4125TIP3   OH233865   2.496   1.491   3.906  0.0260 -0.1136  0.4195
 4125TIP3    H133866   2.561   1.421   3.897  1.2427  0.6271  2.7541
 4125TIP3    H233867   2.507   1.543   3.826  0.5807 -1.3659 -0.3557
 4126TIP3   OH233868   4.610   5.893  11.482 -0.0923 -0.6913 -0.3657
 4126TIP3    H133869   4.700   5.884  11.513 -0.7362  0.7507  2.1763
 4126TIP3    H233870   4.619   5.931  11.394  1.7524 -0.6922 -0.2170
 4127TIP3   OH233871   1.777   5.385   1.633 -0.1748 -0.2397  0.0424
 4127TIP3    H133872   1.724   5.327   1.688 -0.6612 -1.4185 -1.5717
 4127TIP3    H233873   1.867   5.368   1.661 -0.4030 -0.9082  0.4123
 4128TIP3   OH233874   0.243   2.219   2.152 -0.3018 -0.4810 -0.0537
 4128TIP3    H133875   0.267   2.178   2.068 -0.1571 -0.6664  0.0790
 4128TIP3    H233876   0.219   2.145   2.208 -2.3543 -0.2632 -0.5410
 4129TIP3   OH233877   5.212   2.792   1.841  0.5763  0.1345 -0.0715
 4129TIP3    H133878   5.235   2.711   1.888 -0.6105  1.2015  2.5731
 4129TIP3    H233879   5.131   2.771   1.795  0.5614 -0.3382  0.1607
 4130TIP3   OH233880   4.517   3.639  13.069  0.2437 -0.7448  0.1698
 4130TIP3    H133881   4.508   3.713  13.128  1.3831 -0.9727  0.6623
 4130TIP3    H233882   4.487   3.671  12.984 -1.1857 -0.3364  0.7913
 4131TIP3   OH233883   0.623   2.980   0.030  0.0090  0.7706 -0.1399
 4131TIP3    H133884   0.611   2.938  -0.055  3.0396  0.2907 -0.4221
 4131TIP3    H233885   0.535   2.980   0.069 -1.6602  1.8430 -3.5750
 4132TIP3   OH233886   3.032   4.879  11.839  0.0231 -0.2481  0.5720
 4132TIP3    H133887   3.022   4.784  11.844  1.1299 -0.5143 -1.3155
 4132TIP3    H233888   2.949   4.909  11.802  0.1416 -0.6298 -0.0163
 4133TIP3   OH233889   5.734   6.609  14.054  0.1300  0.0238  0.5994
 4133TIP3    H133890   5.689   6.599  13.970 -1.8245 -0.2558  1.6281
 4133TIP3    H233891   5.817   6.563  14.042 -0.3554 -0.5166 -0.9965
 4134TIP3   OH233892   2.417   0.352  15.871 -0.1176  0.0071 -0.3606
 4134TIP3    H133893   2.445   0.346  15.962 -0.7732 -0.7038 -0.1919
 4134TIP3    H233894   2.483   0.407  15.829  0.6332 -0.3267  0.3583
 4135TIP3   OH233895   2.720   3.243   1.210  0.5914  0.2718 -0.1195
 4135TIP3    H133896   2.775   3.289   1.146 -0.4477 -0.2721 -1.4352
 4135TIP3    H233897   2.630   3.267   1.187  0.1271 -0.9545  0.3236
 4136TIP3   OH233898   4.656   3.028  15.925  0.3484 -0.1379  0.2520
 4136TIP3    H133899   4.647   3.055  16.016 -0.4491 -0.5308  0.2966
 4136TIP3    H233900   4.721   3.089  15.888  0.2930  0.3483  0.9391
 4137TIP3   OH233901   3.943   0.602  14.158  0.3451 -0.2002 -0.1456
 4137TIP3    H133902   4.038   0.605  14.169  0.3878  0.3510 -0.6285
 4137TIP3    H233903   3.922   0.677  14.103 -0.3525 -0.4237 -0.2050
 4138TIP3   OH233904   3.572   6.367   0.592  0.4044 -0.0978 -0.1544
 4138TIP3    H133905   3.512   6.322   0.533  0.3141 -0.3146  0.0979
 4138TIP3    H233906   3.614   6.434   0.538  1.7861 -1.5601 -0.9706
 4139TIP3   OH233907   3.669   6.285   3.051 -0.2859 -0.1695 -0.8436
 4139TIP3    H133908   3.627   6.200   3.068 -1.1009  0.3203 -0.3091
 4139TIP3    H233909   3.616   6.347   3.101  0.2230  0.6708 -1.3390
 4140TIP3   OH233910   6.359   3.524  13.616  0.6853 -0.7402 -0.3370
 4140TIP3    H133911   6.272   3.483  13.619  0.8332 -1.1143 -0.8800
 4140TIP3    H233912   6.379   3.528  13.522  0.7689  0.3870 -0.2801
 4141TIP3   OH233913   5.958   3.448   2.251  0.0740 -0.2846  0.1846
 4141TIP3    H133914   5.957   3.520   2.188 -1.0672  0.7259  1.2842
 4141TIP3    H233915   6.041   3.404   2.238  0.1581  0.3411 -1.5199
 4142TIP3   OH233916   4.722   3.125   5.391  0.7347  0.0451  0.0482
 4142TIP3    H133917   4.631   3.131   5.421 -0.2200 -2.5500 -1.9612
 4142TIP3    H233918   4.772   3.173   5.457 -2.0422  1.4079  1.3239
 4143TIP3   OH233919   5.520   2.778  13.861  0.2135 -0.3789 -0.3068
 4143TIP3    H133920   5.464   2.854  13.847 -0.7999 -1.3496 -1.8541
 4143TIP3    H233921   5.605   2.815  13.887 -0.4300  1.2322 -0.4033
 4144TIP3   OH233922   4.088   2.113   2.193  0.6345  0.5013  0.0358
 4144TIP3    H133923   4.128   2.031   2.165 -0.8388 -0.4326  0.5587
 4144TIP3    H233924   4.035   2.089   2.269  0.7793  2.0949  0.6927
 4145TIP3   OH233925   4.335   1.817   1.369 -0.1548  0.0745  0.2640
 4145TIP3    H133926   4.425   1.822   1.403  0.0385 -2.5477  0.3192
 4145TIP3    H233927   4.334   1.879   1.296  2.2035 -0.9220 -0.7246
 4146TIP3   OH233928   5.767   0.225   5.882  0.4632 -0.0153 -0.0973
 4146TIP3    H133929   5.808   0.271   5.955  3.2167 -0.1048 -1.4287
 4146TIP3    H233930   5.837   0.169   5.846 -1.3695 -1.5748 -1.5186
 4147TIP3   OH233931   5.991   1.665  13.474 -0.0776 -0.3671  0.0975
 4147TIP3    H133932   6.053   1.617  13.420  0.1381 -0.1462  0.1475
 4147TIP3    H233933   6.043   1.735  13.514 -0.3773 -0.1199  0.0585
 4148TIP3   OH233934   4.823   4.461  13.615 -0.4959 -0.3616  0.3691
 4148TIP3    H133935   4.761   4.393  13.643 -0.9476  0.5811  1.7658
 4148TIP3    H233936   4.895   4.456  13.678 -0.9926  1.0567  1.1078
 4149TIP3   OH233937   5.424   3.979  12.954  0.6091  0.0158  0.5536
 4149TIP3    H133938   5.435   4.074  12.943 -2.3137  0.3871  0.0702
 4149TIP3    H233939   5.474   3.941  12.882  1.1582  1.2178  0.2659
 4150TIP3   OH233940   2.159   0.045  14.900 -0.0378 -0.4301 -0.2847
 4150TIP3    H133941   2.088   0.043  14.836 -0.0345  0.7377 -0.3394
 4150TIP3    H233942   2.134  -0.019  14.966 -0.1773 -1.4520 -1.2951
 4151TIP3   OH233943   1.129   5.540  11.045  0.0566 -0.4665 -0.1175
 4151TIP3    H133944   1.122   5.600  10.971 -1.6304 -2.6299 -1.8619
 4151TIP3    H233945   1.158   5.458  11.007 -0.4702 -1.5607  1.6780
 4152TIP3   OH233946   3.664   3.718  13.349 -0.1657 -0.5922 -0.3409
 4152TIP3    H133947   3.699   3.779  13.414 -2.5642 -0.7402  1.2171
 4152TIP3    H233948   3.720   3.641  13.355 -0.8715 -0.9959  2.3385
 4153TIP3   OH233949   5.100   1.754  16.999 -0.5582  0.7669  0.2142
 4153TIP3    H133950   5.108   1.659  17.010  0.4503  0.6729 -1.0607
 4153TIP3    H233951   5.167   1.776  16.934 -1.6567  2.1664 -0.4963
 4154TIP3   OH233952   6.407   0.008  13.569  0.7097 -0.1709  0.5696
 4154TIP3    H133953   6.386   0.054  13.650  1.4376  1.4454 -0.1286
 4154TIP3    H233954   6.485   0.052  13.535 -0.1374 -0.1704 -1.5051
 4155TIP3   OH233955   3.058   2.234  15.436  0.0927 -0.6447  0.2220
 4155TIP3    H133956   3.051   2.246  15.341  2.7508  0.3973  0.0894
 4155TIP3    H233957   2.971   2.259  15.469 -0.3635  0.7203 -1.7832
 4156TIP3   OH233958   2.060   1.248   0.212  0.2377 -0.0672  0.3367
 4156TIP3    H133959   2.003   1.287   0.146  1.3688  1.9747  0.4970
 4156TIP3    H233960   2.000   1.198   0.268 -1.0609  0.1463 -0.8032
 4157TIP3   OH233961   2.222   1.922  13.478  0.3974  0.0637  0.1926
 4157TIP3    H133962   2.291   1.983  13.503  2.1725 -1.1612 -1.4500
 4157TIP3    H233963   2.167   1.971  13.417  1.1781  0.3718 -0.2773
 4158TIP3   OH233964   1.935   5.814   2.491 -0.4743 -0.5587 -0.0797
 4158TIP3    H133965   1.987   5.887   2.457 -0.3702  0.0679  1.3440
 4158TIP3    H233966   2.000   5.750   2.518 -0.3953  0.1849  1.6115
 4159TIP3   OH233967   4.417   5.513  16.603 -0.2188 -0.0846  0.2460
 4159TIP3    H133968   4.497   5.462  16.594 -0.7774 -0.8124 -0.7594
 4159TIP3    H233969   4.397   5.543  16.515 -1.5346 -0.6712  0.3282
 4160TIP3   OH233970   0.641   1.417  14.838 -0.0033  0.8649 -0.0718
 4160TIP3    H133971   0.705   1.357  14.876  2.1720  3.3906  0.5321
 4160TIP3    H233972   0.610   1.469  14.912 -2.9747 -0.3066 -0.3205
 4161TIP3   OH233973   2.023   4.859  16.078  0.1621 -0.0293 -0.2789
 4161TIP3    H133974   2.049   4.875  15.987 -0.4463 -3.2941 -1.1583
 4161TIP3    H233975   2.098   4.816  16.117  0.5157  1.5906  0.9124
 4162TIP3   OH233976   0.303   5.231   3.713 -0.3781 -0.7345 -0.1282
 4162TIP3    H133977   0.222   5.231   3.763  0.8583 -0.6780  1.9694
 4162TIP3    H233978   0.333   5.322   3.713 -1.2858 -0.3477 -2.6795
 4163TIP3   OH233979   2.063   4.668  15.170 -0.1983  0.3772  0.5929
 4163TIP3    H133980   2.088   4.580  15.198 -3.5380 -0.6716  0.7474
 4163TIP3    H233981   2.071   4.666  15.075  0.7122  0.2598  0.6658
 4164TIP3   OH233982   2.872   1.556   3.206 -0.3195  0.2946  0.7448
 4164TIP3    H133983   2.778   1.544   3.199 -0.3782  0.3618  1.3717
 4164TIP3    H233984   2.883   1.646   3.237  0.0124  0.8385 -0.8620
 4165TIP3   OH233985   1.958   6.299  15.192 -0.1972  0.1344  0.0397
 4165TIP3    H133986   1.973   6.337  15.279  0.7402 -2.0254  0.8837
 4165TIP3    H233987   2.012   6.352  15.133 -0.1895  1.0976  0.8759
 4166TIP3   OH233988   3.277   1.314  11.897 -0.5624 -0.3536  0.2349
 4166TIP3    H133989   3.281   1.225  11.864  0.5364 -0.3732  0.3863
 4166TIP3    H233990   3.331   1.313  11.977  0.5290  0.7175 -0.4503
 4167TIP3   OH233991   3.714   1.532  12.967 -0.7461 -0.2761  0.0624
 4167TIP3    H133992   3.622   1.558  12.974 -0.2464  1.4373  0.6289
 4167TIP3    H233993   3.748   1.581  12.892  0.3420  1.2393  1.4662
 4168TIP3   OH233994   1.992   6.441  14.449 -0.1302  0.4773 -0.4756
 4168TIP3    H133995   1.942   6.361  14.461  0.3747  0.4480  1.8835
 4168TIP3    H233996   2.034   6.431  14.364  0.5070 -2.1236  0.0768
 4169TIP3   OH233997   1.023   4.166  16.574  0.1946 -0.2916  0.6393
 4169TIP3    H133998   0.985   4.238  16.524  0.3070  0.0690  1.0670
 4169TIP3    H233999   0.965   4.092  16.558 -1.0640  0.4109  1.7795
 4170TIP3   OH234000   2.168   3.278  10.602 -0.4162 -0.2193  0.2481
 4170TIP3    H134001   2.210   3.351  10.647 -0.5995  0.0056  0.0617
 4170TIP3    H234002   2.222   3.202  10.622  0.5855  0.2117 -0.6964
 4171TIP3   OH234003   3.792   6.383  12.432  0.0970  0.3950 -0.5001
 4171TIP3    H134004   3.746   6.347  12.508 -1.5093  0.1501 -1.5290
 4171TIP3    H234005   3.874   6.418  12.468 -0.1888 -0.5297  1.1800
 4172TIP3   OH234006   5.991   2.134   1.294 -0.3546  0.2390 -0.2964
 4172TIP3    H134007   5.939   2.144   1.374 -0.5150 -3.6487  0.3012
 4172TIP3    H234008   5.926   2.131   1.224 -1.0413 -3.1904  0.3036
 4173TIP3   OH234009   0.978   2.890  11.440 -0.0441 -0.1574  0.1095
 4173TIP3    H134010   0.993   2.901  11.534  0.7943 -1.5978  0.1633
 4173TIP3    H234011   1.021   2.966  11.400  0.3321  0.0223  0.8330
 4174TIP3   OH234012   0.011   3.900  14.870  0.0858 -0.5055  0.0647
 4174TIP3    H134013   0.095   3.890  14.915 -0.5064 -1.6293  0.9829
 4174TIP3    H234014   0.034   3.912  14.778  1.2168 -2.1108  0.1088
 4175TIP3   OH234015   4.096   2.655   1.575  0.3644 -0.1616  0.6670
 4175TIP3    H134016   4.184   2.632   1.605  0.1623 -2.7813 -0.4631
 4175TIP3    H234017   4.092   2.621   1.485 -1.4785  0.8292  0.3209
 4176TIP3   OH234018   5.493   6.351   2.956  0.5025 -0.3346  0.1732
 4176TIP3    H134019   5.573   6.337   2.906  0.2764  0.8991 -0.5786
 4176TIP3    H234020   5.423   6.354   2.890 -0.1026 -0.9400  0.7728
 4177TIP3   OH234021   2.593   4.299   5.399  0.4609  0.1248  0.9748
 4177TIP3    H134022   2.645   4.224   5.370  0.9170  0.4797  0.8802
 4177TIP3    H234023   2.594   4.359   5.324 -0.2146  0.0670  0.9103
 4178TIP3   OH234024   2.655   0.385   5.484 -0.9780  0.4503 -0.0844
 4178TIP3    H134025   2.568   0.346   5.488 -0.4345 -0.6655  1.7976
 4178TIP3    H234026   2.704   0.329   5.425 -1.7424  1.6107 -1.8951
 4179TIP3   OH234027   3.068   0.742   2.870  0.0620 -0.2170  0.7618
 4179TIP3    H134028   3.146   0.768   2.821  0.7696 -1.3557  1.2111
 4179TIP3    H234029   3.008   0.708   2.804 -0.3234  1.2309  0.3402
 4180TIP3   OH234030   1.804   4.588  12.174 -0.0759 -0.5566  0.0511
 4180TIP3    H134031   1.840   4.566  12.260 -0.2759 -0.1938  0.2291
 4180TIP3    H234032   1.878   4.577  12.114  1.1641  2.7020  0.7348
 4181TIP3   OH234033   1.733   5.320  11.828 -0.2312 -0.6563 -0.4486
 4181TIP3    H134034   1.679   5.296  11.753 -3.4042  0.1110  1.4396
 4181TIP3    H234035   1.720   5.414  11.839  0.0883 -0.7565  1.0993
 4182TIP3   OH234036   4.865   3.861   3.860  0.5155 -0.5620 -0.4788
 4182TIP3    H134037   4.828   3.898   3.780  2.2147 -0.4692 -1.2652
 4182TIP3    H234038   4.916   3.786   3.831  0.4581 -1.0479  0.6294
 4183TIP3   OH234039   6.297   4.028   4.496 -0.2517  0.1734 -0.3006
 4183TIP3    H134040   6.256   4.078   4.425  1.7812 -0.5131 -2.0589
 4183TIP3    H234041   6.237   3.956   4.513 -1.5770  1.2859 -0.0864
 4184TIP3   OH234042   6.539   4.504   4.659  0.0089  0.0413  0.1501
 4184TIP3    H134043   6.545   4.531   4.750  3.3963  0.0724  0.0171
 4184TIP3    H234044   6.471   4.437   4.658 -0.3981  0.3473  2.5919
 4185TIP3   OH234045   2.738   1.958  16.727  0.5774  0.2278 -0.0938
 4185TIP3    H134046   2.767   2.030  16.671  1.5826  0.0688  0.2132
 4185TIP3    H234047   2.771   1.980  16.814  0.6776 -0.4751  0.0515
 4186TIP3   OH234048   3.339   3.830   5.445  0.3652  0.2107  0.1748
 4186TIP3    H134049   3.282   3.792   5.512  1.4301 -2.5636 -0.3522
 4186TIP3    H234050   3.428   3.811   5.476  0.9493  1.6144 -0.5645
 4187TIP3   OH234051   1.114   1.831   1.533  0.5306  0.4548  0.3990
 4187TIP3    H134052   1.031   1.785   1.518  1.1820 -1.2816  1.7286
 4187TIP3    H234053   1.167   1.808   1.456  0.4452 -0.0867  0.4938
 4188TIP3   OH234054   4.762   0.750   2.406 -0.0034  0.2841 -0.3480
 4188TIP3    H134055   4.725   0.721   2.489 -1.9894  2.1519 -0.4878
 4188TIP3    H234056   4.721   0.693   2.341 -2.6908  2.1837 -0.4769
 4189TIP3   OH234057   2.157   6.728   4.897  0.6639 -0.0540 -0.1462
 4189TIP3    H134058   2.130   6.692   4.813  0.2222  1.0105 -0.4865
 4189TIP3    H234059   2.098   6.689   4.961 -0.0276  0.3020 -0.5504
 4190TIP3   OH234060   0.314   6.849  15.269 -0.3287  0.7058  0.0150
 4190TIP3    H134061   0.371   6.818  15.198 -0.4100 -0.8265  0.5910
 4190TIP3    H234062   0.278   6.770  15.307 -0.4098  1.5049  1.6889
 4191TIP3   OH234063   2.705   2.635  14.764  0.5341 -0.0620 -0.8945
 4191TIP3    H134064   2.798   2.649  14.783  0.4562 -0.2302 -0.3904
 4191TIP3    H234065   2.666   2.611  14.848 -0.0532  0.4411 -1.0142
 4192TIP3   OH234066   0.788   0.140  16.645 -0.3783 -0.1332 -0.3545
 4192TIP3    H134067   0.739   0.215  16.677  1.5210  0.6568  0.8400
 4192TIP3    H234068   0.792   0.152  16.550  0.6136  1.7846 -0.1226
 4193TIP3   OH234069   4.172   0.005  16.524 -0.1523 -0.0532 -0.1029
 4193TIP3    H134070   4.228  -0.054  16.475 -0.6700  0.9412 -1.9965
 4193TIP3    H234071   4.218   0.089  16.522  0.4334 -0.2590  2.2902
 4194TIP3   OH234072   6.305   2.962  11.034 -0.3180  0.4359 -0.6305
 4194TIP3    H134073   6.217   2.994  11.016 -0.2409  0.0033 -1.8372
 4194TIP3    H234074   6.324   2.901  10.963  0.3375 -0.7167  0.4886
 4195TIP3   OH234075   1.499   4.221   4.796  0.4225  0.2167  0.6225
 4195TIP3    H134076   1.480   4.248   4.706  0.1046 -0.3246  0.5211
 4195TIP3    H234077   1.511   4.303   4.844 -0.6906  0.5478  0.3590
 4196TIP3   OH234078   2.951   4.172  14.040  0.2845  0.4289  0.0353
 4196TIP3    H134079   2.904   4.100  13.997  0.7391  1.1252 -1.7208
 4196TIP3    H234080   2.913   4.251  14.003  1.5565  1.0438 -0.0107
 4197TIP3   OH234081   1.600   5.859   3.250  0.3477  0.2587  0.5422
 4197TIP3    H134082   1.687   5.819   3.257  0.0265 -0.0935  4.1062
 4197TIP3    H234083   1.540   5.792   3.282 -1.0204  1.2384  0.1351
 4198TIP3   OH234084   2.337   1.174  16.394 -0.0372  0.8453  0.3507
 4198TIP3    H134085   2.410   1.218  16.438  0.5463  0.7137 -0.4662
 4198TIP3    H234086   2.305   1.239  16.331  1.5517 -0.2303 -1.6579
 4199TIP3   OH234087   0.988   4.970  16.886  0.1097 -0.3361 -0.1674
 4199TIP3    H134088   1.053   5.035  16.858 -0.7712  0.2532 -0.8872
 4199TIP3    H234089   1.008   4.893  16.833  1.0067 -0.5926  0.5177
 4200TIP3   OH234090   0.899   5.248  15.138  0.6277 -0.0537  0.1784
 4200TIP3    H134091   0.834   5.178  15.133  1.8205 -1.2439  1.0042
 4200TIP3    H234092   0.851   5.326  15.110 -0.9875 -1.0036  0.1748
 4201TIP3   OH234093   2.601   5.687   0.940  0.0634  0.4766 -0.5019
 4201TIP3    H134094   2.634   5.598   0.945  0.8330  0.8028  1.1910
 4201TIP3    H234095   2.679   5.742   0.929 -0.1790  1.0565  0.5000
 4202TIP3   OH234096   5.781   2.637  12.438 -0.5402 -0.0994  0.9114
 4202TIP3    H134097   5.757   2.703  12.373  1.1367  0.4779  0.8129
 4202TIP3    H234098   5.782   2.684  12.521 -1.5603 -0.5665  1.2061
 4203TIP3   OH234099   3.284   3.070  15.074 -0.2124  0.3968 -0.3708
 4203TIP3    H134100   3.359   3.055  15.016  0.6813  4.0723 -0.3609
 4203TIP3    H234101   3.210   3.033  15.025  1.3004 -2.0803 -1.0089
 4204TIP3   OH234102   0.537   4.027  12.677 -0.0824 -0.1369 -0.4774
 4204TIP3    H134103   0.468   3.962  12.695  0.9790 -1.0976  0.2306
 4204TIP3    H234104   0.490   4.110  12.669 -1.5516 -1.0511 -1.9930
 4205TIP3   OH234105   1.108   2.092  12.171 -0.6767 -0.4543 -0.0839
 4205TIP3    H134106   1.102   2.168  12.229 -0.6261 -0.8020  0.3785
 4205TIP3    H234107   1.030   2.099  12.115 -1.0887 -0.4918  0.4780
 4206TIP3   OH234108   6.397   0.449   4.308 -0.3904  0.3851  0.4333
 4206TIP3    H134109   6.487   0.422   4.325 -0.1799  0.6439 -0.2314
 4206TIP3    H234110   6.347   0.413   4.381  0.1130 -0.5202  0.3476
 4207TIP3   OH234111   3.422   6.641  11.099  0.4849 -0.0133  0.5671
 4207TIP3    H134112   3.444   6.675  11.186  0.4044 -1.0143  0.9950
 4207TIP3    H234113   3.375   6.713  11.056 -0.1121  0.2495  1.6181
 4208TIP3   OH234114   3.435   6.047  12.212  0.5292 -0.5685 -0.0297
 4208TIP3    H134115   3.481   5.976  12.257 -0.0585 -1.6071 -1.0203
 4208TIP3    H234116   3.472   6.127  12.249  1.9131 -1.3800  0.4111
 4209TIP3   OH234117   6.178   2.313  12.355 -0.0311 -0.3233  0.4105
 4209TIP3    H134118   6.195   2.277  12.268 -0.7036  0.5901 -0.1230
 4209TIP3    H234119   6.083   2.321  12.359  0.0860  1.4984  0.4294
 4210TIP3   OH234120   0.828   4.214   0.244 -0.1302  0.0006  0.0972
 4210TIP3    H134121   0.739   4.239   0.269 -0.2522  0.6910 -0.9459
 4210TIP3    H234122   0.884   4.257   0.308 -0.3977  2.0953 -0.9708
 4211TIP3   OH234123   5.033   0.396   6.100  0.1394 -0.3505 -0.1910
 4211TIP3    H134124   5.051   0.306   6.128  0.8765 -0.8376 -2.0777
 4211TIP3    H234125   5.010   0.442   6.181  0.7420 -1.9827  0.9657
 4212TIP3   OH234126   4.918   1.148  17.174  0.0595 -0.0728 -0.3881
 4212TIP3    H134127   4.856   1.129  17.104  0.2758  1.2497 -0.9682
 4212TIP3    H234128   4.990   1.087  17.161  0.0316  0.0693 -1.2298
 4213TIP3   OH234129   2.609   3.104  12.721  0.4496  0.1006 -0.1915
 4213TIP3    H134130   2.691   3.081  12.677 -0.1846 -0.6150 -1.0169
 4213TIP3    H234131   2.591   3.194  12.693 -0.8978 -0.9208 -2.9793
 4214TIP3   OH234132   0.327   2.982   3.737  0.6278  0.4940 -0.5567
 4214TIP3    H134133   0.415   2.956   3.765 -0.2871 -1.2302  0.8294
 4214TIP3    H234134   0.270   2.960   3.810 -0.7513  3.4689 -0.5769
 4215TIP3   OH234135   2.208   2.247   5.283  0.0717 -0.4095 -0.3859
 4215TIP3    H134136   2.201   2.256   5.378  0.0488  1.2657 -0.5141
 4215TIP3    H234137   2.132   2.293   5.249  1.0312  0.6234 -1.2323
 4216TIP3   OH234138   6.281   0.084  12.960  0.4450 -0.4474 -0.3972
 4216TIP3    H134139   6.342   0.056  12.891  2.1765 -0.6548  1.1424
 4216TIP3    H234140   6.273   0.007  13.016 -0.2987 -0.0317  0.0694
 4217TIP3   OH234141   5.346   4.889   3.939 -0.0340  0.3013  0.3430
 4217TIP3    H134142   5.300   4.815   3.898 -1.7593  1.2575  0.4821
 4217TIP3    H234143   5.406   4.848   4.001 -2.1772 -0.9830  1.6875
 4218TIP3   OH234144   6.746   4.557   2.585 -0.8440 -0.0568 -0.4576
 4218TIP3    H134145   6.679   4.625   2.572 -0.0973  0.4573 -1.7072
 4218TIP3    H234146   6.825   4.592   2.544 -0.5426 -1.8494 -1.5146
 4219TIP3   OH234147   3.230   6.774   0.817  0.3582 -0.9312  0.2675
 4219TIP3    H134148   3.241   6.782   0.912 -0.7724  1.1154  0.2765
 4219TIP3    H234149   3.231   6.865   0.785 -3.4938 -1.2008 -1.1451
 4220TIP3   OH234150   3.533   6.119   1.480 -0.2071  0.3713 -0.3532
 4220TIP3    H134151   3.513   6.140   1.572  1.8894 -0.5843  0.3927
 4220TIP3    H234152   3.515   6.026   1.472 -0.6453  0.5078 -1.0028
 4221TIP3   OH234153   6.260   4.670   3.095  0.7145  0.1163  0.5747
 4221TIP3    H134154   6.202   4.593   3.094 -0.0918  0.7141  0.4506
 4221TIP3    H234155   6.243   4.710   3.180 -0.2550  1.1736 -0.0869
 4222TIP3   OH234156   4.774   0.851   0.009  0.0965 -0.4200  0.3011
 4222TIP3    H134157   4.781   0.921   0.073 -0.3397  0.5862 -0.7066
 4222TIP3    H234158   4.861   0.812   0.004  0.4758  0.3892  0.5180
 4223TIP3   OH234159   1.318   6.077   1.268 -0.7338  0.2280 -0.0657
 4223TIP3    H134160   1.295   6.168   1.287 -1.5049 -0.1271  0.7799
 4223TIP3    H234161   1.411   6.080   1.246 -0.5271  1.1030  0.8433
 4224TIP3   OH234162   0.619   2.751   1.771  0.0646 -0.0039  0.0165
 4224TIP3    H134163   0.523   2.750   1.778 -0.0055  0.9057 -0.6586
 4224TIP3    H234164   0.644   2.659   1.772 -0.6695 -0.2281  1.8714
 4225TIP3   OH234165   4.807   2.936   0.805  0.1147  0.1924  0.5052
 4225TIP3    H134166   4.713   2.927   0.794 -0.0937 -3.5340  3.3428
 4225TIP3    H234167   4.817   3.007   0.869 -0.5469  1.5894 -0.8666
 4226TIP3   OH234168   0.935   3.750  16.582 -0.3608 -0.5331  0.8491
 4226TIP3    H134169   1.021   3.736  16.621  0.1209 -0.7753 -0.2696
 4226TIP3    H234170   0.914   3.668  16.537 -1.1614 -0.4626  1.0746
 4227TIP3   OH234171   2.742   5.678  15.247 -0.2731  0.2504  0.1986
 4227TIP3    H134172   2.799   5.601  15.256  0.7746  0.5146 -2.9309
 4227TIP3    H234173   2.655   5.647  15.270  0.4634 -1.2679  1.0963
 4228TIP3   OH234174   5.714   6.651  16.898 -0.4245 -0.6234 -0.3377
 4228TIP3    H134175   5.737   6.711  16.827 -0.7030 -3.0983 -2.7012
 4228TIP3    H234176   5.626   6.619  16.875 -1.5344  0.1258  2.4053
 4229TIP3   OH234177   4.184   6.618  12.979 -0.0383  0.3963 -0.1995
 4229TIP3    H134178   4.230   6.680  13.035  0.0959 -0.3077  0.4884
 4229TIP3    H234179   4.096   6.615  13.015 -0.0739  0.2603 -0.2983
 4230TIP3   OH234180   5.954   1.912  15.704 -0.3187 -0.1936 -0.4344
 4230TIP3    H134181   5.869   1.917  15.661 -0.4288 -0.7466 -0.2857
 4230TIP3    H234182   6.008   1.859  15.645 -0.1317 -0.0089 -0.4332
 4231TIP3   OH234183   3.378   6.773   2.090  0.4062  0.0905 -0.4550
 4231TIP3    H134184   3.314   6.829   2.134  2.0250  0.5117  1.5415
 4231TIP3    H234185   3.336   6.687   2.086  0.5082 -0.3045  3.1697
 4232TIP3   OH234186   0.088   6.269   1.067  0.6413  0.3293 -0.2952
 4232TIP3    H134187   0.183   6.279   1.068  0.5778  1.0868 -1.1706
 4232TIP3    H234188   0.066   6.256   0.975 -0.0964  0.0961 -0.0886
 4233TIP3   OH234189   2.629   6.630  14.031  0.2918  0.0213 -0.0404
 4233TIP3    H134190   2.636   6.683  14.111  0.8374 -1.7141  1.1048
 4233TIP3    H234191   2.719   6.624  13.998  0.8755 -3.0719  1.8273
 4234TIP3   OH234192   5.951   6.332   5.203 -0.5013 -0.5255 -0.2750
 4234TIP3    H134193   5.892   6.372   5.139 -3.8605 -2.1173  1.5479
 4234TIP3    H234194   5.962   6.399   5.271 -0.1425 -0.1759 -0.6800
 4235TIP3   OH234195   6.803   4.358   2.330  0.1459 -0.0201  0.1437
 4235TIP3    H134196   6.878   4.409   2.300 -0.0050  0.4079  0.4888
 4235TIP3    H234197   6.778   4.397   2.413 -0.0506 -0.5779  0.3538
 4236TIP3   OH234198   4.968   3.889   0.315  0.3040  0.3028 -0.1175
 4236TIP3    H134199   4.896   3.826   0.301  0.7543 -0.6523  1.5804
 4236TIP3    H234200   4.997   3.912   0.227 -0.7226 -0.8969 -0.8034
 4237TIP3   OH234201   6.567   4.314  15.676  0.4354 -0.0921  0.3808
 4237TIP3    H134202   6.502   4.353  15.734  0.8797 -0.0599  0.8659
 4237TIP3    H234203   6.620   4.388  15.646 -1.9969  0.5215 -3.0555
 4238TIP3   OH234204   2.201   4.928  11.936  0.0503 -0.0999  0.1196
 4238TIP3    H134205   2.106   4.922  11.924  0.2125  0.0716 -1.4861
 4238TIP3    H234206   2.222   4.854  11.993 -1.0812  0.0201  0.7149
 4239TIP3   OH234207   4.958   3.154  13.356 -0.2563 -0.0947 -0.1994
 4239TIP3    H134208   4.927   3.173  13.445  0.0246  0.0585 -0.1353
 4239TIP3    H234209   4.920   3.224  13.302  1.7936  1.4438  0.2262
 4240TIP3   OH234210   6.344   5.655  12.812 -0.0804  0.3632  0.3953
 4240TIP3    H134211   6.306   5.708  12.741  0.3818  0.6984  0.3985
 4240TIP3    H234212   6.350   5.715  12.886 -0.5707  0.0108  0.7296
 4241TIP3   OH234213   5.016   4.201  13.599  0.2608 -0.0104 -0.3246
 4241TIP3    H134214   5.010   4.151  13.680 -1.3687  0.7625  0.0655
 4241TIP3    H234215   4.966   4.150  13.535 -1.0911  0.8701 -0.0196
 4242TIP3   OH234216   1.136   1.890  13.152  0.0088 -0.4134 -0.0898
 4242TIP3    H134217   1.094   1.899  13.067  1.7792  0.9052 -0.8875
 4242TIP3    H234218   1.211   1.831  13.136 -0.4054 -1.2381  0.8771
 4243TIP3   OH234219   4.127   6.695   2.718  0.3699  0.2580  0.0425
 4243TIP3    H134220   4.183   6.722   2.791 -0.5001  0.4553  0.6524
 4243TIP3    H234221   4.178   6.629   2.672  0.7420 -0.2558  1.1362
 4244TIP3   OH234222   2.479   1.774   1.651  0.0185 -0.2180 -0.0071
 4244TIP3    H134223   2.499   1.683   1.632  1.3312  0.2379 -1.0131
 4244TIP3    H234224   2.564   1.819   1.643 -0.6797  1.1550  0.0115
 4245TIP3   OH234225   0.424   2.271  16.231  0.2049 -0.0330  0.5526
 4245TIP3    H134226   0.367   2.199  16.255 -0.4447 -0.5622 -2.2315
 4245TIP3    H234227   0.454   2.250  16.143  1.0117  2.4999  0.1301
 4246TIP3   OH234228   6.815   0.593  16.403  0.2245 -0.3370  0.7206
 4246TIP3    H134229   6.774   0.591  16.489 -0.0648  1.0953  0.6305
 4246TIP3    H234230   6.855   0.680  16.396 -2.1904  0.7285 -1.6665
 4247TIP3   OH234231   3.369   2.673  12.152 -0.5807  0.4273  0.4216
 4247TIP3    H134232   3.363   2.595  12.207  1.1186  0.4156  0.6366
 4247TIP3    H234233   3.420   2.646  12.076 -0.3210  1.2212  0.3010
 4248TIP3   OH234234   4.614   3.978  13.543  0.0129  0.0852  0.2029
 4248TIP3    H134235   4.591   3.934  13.461  0.4701  0.4050 -0.1031
 4248TIP3    H234236   4.709   3.988  13.539  0.0013  0.4014  0.6234
 4249TIP3   OH234237   4.169   2.260   0.490 -0.7545  0.1425  0.2516
 4249TIP3    H134238   4.199   2.344   0.454  1.3090 -0.2835  0.8804
 4249TIP3    H234239   4.185   2.197   0.420 -0.3795 -0.0671  0.5311
 4250TIP3   OH234240   4.186   4.930  14.921 -0.0241 -0.5920  0.0676
 4250TIP3    H134241   4.157   4.868  14.854 -1.5284  1.0851 -0.9023
 4250TIP3    H234242   4.139   4.903  15.000 -0.6580 -0.6851 -0.3402
 4251TIP3   OH234243   5.782   4.552  11.464  0.0469  0.2889 -0.2336
 4251TIP3    H134244   5.735   4.542  11.381 -0.5257 -0.7766  0.1968
 4251TIP3    H234245   5.874   4.550  11.440 -0.1095  1.0139 -0.9445
 4252TIP3   OH234246   5.915   6.546   4.077  0.2318  0.6074 -0.2275
 4252TIP3    H134247   6.006   6.576   4.070  0.1273  0.6081 -1.7703
 4252TIP3    H234248   5.884   6.541   3.987 -0.5748 -1.6530  0.1229
 4253TIP3   OH234249   5.342   3.868   5.319 -0.5690  0.1075  0.1666
 4253TIP3    H134250   5.280   3.900   5.254 -1.2788  0.6277  1.0893
 4253TIP3    H234251   5.293   3.806   5.372 -0.2219  0.2883  0.7106
 4254TIP3   OH234252   3.532   3.561   5.677  0.2107 -0.0150  0.1146
 4254TIP3    H134253   3.463   3.586   5.615 -0.2413 -2.2057 -0.3483
 4254TIP3    H234254   3.569   3.644   5.707 -2.3098  1.2256  0.0247
 4255TIP3   OH234255   1.807   3.585  13.379  0.1423  0.3820 -0.0018
 4255TIP3    H134256   1.778   3.500  13.345  1.0400  0.5180 -1.1750
 4255TIP3    H234257   1.897   3.594  13.347  0.7398  0.9348  1.7153
 4256TIP3   OH234258   1.995   5.647  12.201 -0.1145 -0.2392  0.6181
 4256TIP3    H134259   1.924   5.684  12.149  1.3095  1.2743 -0.3372
 4256TIP3    H234260   2.042   5.590  12.141 -0.8102 -1.7037  1.4075
 4257TIP3   OH234261   2.425   3.413  13.813  0.6361 -0.0064  0.0896
 4257TIP3    H134262   2.342   3.394  13.858 -0.2877  0.6329 -1.2864
 4257TIP3    H234263   2.459   3.327  13.790 -0.0974 -0.2540 -0.1142
 4258TIP3   OH234264   3.561   2.832  15.887  0.6031  0.3890 -0.2480
 4258TIP3    H134265   3.550   2.893  15.959  0.9490  0.6640 -0.4240
 4258TIP3    H234266   3.479   2.782  15.884  0.4904  0.5519  0.1677
 4259TIP3   OH234267   3.630   0.555  16.032 -0.1393  0.3879 -0.0642
 4259TIP3    H134268   3.680   0.519  16.105  0.0684 -0.5096 -0.6418
 4259TIP3    H234269   3.692   0.612  15.986  0.0086  0.1939 -0.1042
 4260TIP3   OH234270   1.435   4.889   0.076 -0.0717  0.1547 -0.7164
 4260TIP3    H134271   1.378   4.928   0.142 -0.2965  0.0636 -0.8551
 4260TIP3    H234272   1.460   4.804   0.112 -1.5826 -0.6537 -1.4823
 4261TIP3   OH234273   2.184   6.297   1.110 -0.1213 -0.0270  0.5035
 4261TIP3    H134274   2.104   6.261   1.149 -1.0713 -1.2534 -2.3259
 4261TIP3    H234275   2.252   6.234   1.133 -1.0778 -1.8723 -1.4072
 4262TIP3   OH234276   4.857   1.144  10.360 -0.0019  0.0778 -0.4241
 4262TIP3    H134277   4.928   1.137  10.425 -0.1458  0.7736 -0.1776
 4262TIP3    H234278   4.884   1.217  10.304 -0.8135  0.7777  0.0621
 4263TIP3   OH234279   3.070   1.680   5.106 -0.0293  0.1692  0.2879
 4263TIP3    H134280   3.070   1.586   5.088 -3.4976  0.3395 -1.4286
 4263TIP3    H234281   3.129   1.717   5.040  0.2937 -0.6721  0.0909
 4264TIP3   OH234282   3.250   5.412  14.508 -0.5043 -0.3751 -0.3314
 4264TIP3    H134283   3.243   5.499  14.547  1.0984 -0.3361 -0.0722
 4264TIP3    H234284   3.330   5.416  14.456 -0.8968 -1.4292 -1.0387
 4265TIP3   OH234285   2.649   2.842   4.957 -0.3048 -0.3422  0.3432
 4265TIP3    H134286   2.646   2.915   5.019  0.8684 -0.0156  0.0417
 4265TIP3    H234287   2.574   2.857   4.899 -1.4309 -0.6607  1.6654
 4266TIP3   OH234288   1.377   0.517   1.158 -0.0295 -0.1139 -0.3325
 4266TIP3    H134289   1.369   0.589   1.095  2.6324 -0.2996 -0.9789
 4266TIP3    H234290   1.300   0.526   1.214 -0.1616  2.7894 -0.8432
 4267TIP3   OH234291   2.471   2.052   4.590  0.4066  0.5948 -0.0903
 4267TIP3    H134292   2.394   2.018   4.635  1.0332 -0.9679 -0.1403
 4267TIP3    H234293   2.516   1.974   4.557  1.5522  1.5275 -0.8148
 4268TIP3   OH234294   3.511   0.560   0.760  0.8641  0.0835 -0.2960
 4268TIP3    H134295   3.428   0.605   0.743  0.9829  0.8419  1.0207
 4268TIP3    H234296   3.487   0.468   0.770 -0.0280  0.4712  1.3749
 4269TIP3   OH234297   4.533   3.368   5.896  0.2123  0.1719 -0.8699
 4269TIP3    H134298   4.532   3.463   5.908 -2.1566 -0.0472  1.5769
 4269TIP3    H234299   4.619   3.341   5.930 -0.4030  1.2097  1.7802
 4270TIP3   OH234300   0.834   2.247   5.113  0.7209  0.1675  0.9453
 4270TIP3    H134301   0.756   2.196   5.091  0.7744  0.9829 -1.4781
 4270TIP3    H234302   0.835   2.252   5.209 -1.8505 -0.3858  1.0483
 4271TIP3   OH234303   6.149   3.985  15.955  0.2121  0.0408  0.2321
 4271TIP3    H134304   6.152   3.901  15.999  0.4008  0.9695  2.0614
 4271TIP3    H234305   6.238   4.020  15.965  0.4594  0.0003 -1.4969
 4272TIP3   OH234306   5.920   4.245   0.355  0.0276  0.1005  0.7425
 4272TIP3    H134307   5.976   4.268   0.281 -0.1388 -1.6220  0.0401
 4272TIP3    H234308   5.937   4.314   0.420  2.4451  0.0138  0.2953
 4273TIP3   OH234309   5.730   2.765   3.627 -0.1728  0.8419 -0.1138
 4273TIP3    H134310   5.765   2.845   3.666 -1.2523  1.3630 -0.1751
 4273TIP3    H234311   5.663   2.735   3.688  0.1659  0.0249 -0.1316
 4274TIP3   OH234312   4.226   3.247   4.651  0.5984  0.0524 -0.2755
 4274TIP3    H134313   4.321   3.240   4.660  0.8299 -0.0182 -2.3257
 4274TIP3    H234314   4.210   3.249   4.557 -1.3386  1.6214  0.0001
 4275TIP3   OH234315   4.949   5.479  11.738 -0.1161  0.1438  0.3891
 4275TIP3    H134316   4.941   5.465  11.644 -0.1923  0.5981  0.3283
 4275TIP3    H234317   4.924   5.570  11.752  2.7806  1.0106  0.4739
 4276TIP3   OH234318   5.799   3.325  14.959  0.1578 -0.1423  0.2224
 4276TIP3    H134319   5.875   3.329  15.018 -0.3054  0.3078  0.7963
 4276TIP3    H234320   5.755   3.244  14.982 -0.2609  0.2409  0.8068
 4277TIP3   OH234321   1.273   5.680  10.493  0.0776  0.8911 -0.8132
 4277TIP3    H134322   1.264   5.772  10.516  0.0538  1.1271 -1.7087
 4277TIP3    H234323   1.291   5.635  10.576 -1.2280  1.5131 -0.1803
 4278TIP3   OH234324   2.098   4.659  13.907  0.7578 -0.4262  0.1896
 4278TIP3    H134325   2.083   4.606  13.828 -0.9326  0.5352 -0.1907
 4278TIP3    H234326   2.082   4.599  13.979  1.2018 -1.0373 -0.2119
 4279TIP3   OH234327   5.675   4.933  12.798 -0.0629 -0.3583  0.3258
 4279TIP3    H134328   5.627   4.990  12.857 -0.3622  0.2802 -0.5170
 4279TIP3    H234329   5.711   4.865  12.854 -2.6773 -1.3869  0.8886
 4280TIP3   OH234330   2.201   6.665  14.077 -0.2660  0.5128 -0.6465
 4280TIP3    H134331   2.165   6.585  14.116  0.5426  0.2277 -0.4628
 4280TIP3    H234332   2.152   6.736  14.118  0.8174  0.2524  1.2408
 4281TIP3   OH234333   0.802   0.832  15.895  0.3478 -0.4291 -0.6928
 4281TIP3    H134334   0.808   0.887  15.973  1.6137 -0.1843 -0.9469
 4281TIP3    H234335   0.874   0.861  15.840  1.2355 -2.5303 -0.7177
 4282TIP3   OH234336   0.517   4.242   5.000  0.1566  0.4411 -0.1099
 4282TIP3    H134337   0.567   4.302   4.945  0.7907  1.6388  1.6604
 4282TIP3    H234338   0.553   4.155   4.981 -0.2377  0.6883 -2.1518
 4283TIP3   OH234339   0.808   3.827   4.991 -0.3257  0.2441 -0.2240
 4283TIP3    H134340   0.765   3.759   4.939  1.4109 -0.1744 -1.1810
 4283TIP3    H234341   0.889   3.786   5.022  0.3365  1.5855 -0.1035
 4284TIP3   OH234342   6.779   4.722  12.127  0.1033  0.8265  0.2842
 4284TIP3    H134343   6.866   4.756  12.147 -0.0868  2.1623 -0.9783
 4284TIP3    H234344   6.741   4.786  12.067 -1.3170 -0.3205 -0.1144
 4285TIP3   OH234345   5.714   5.935  14.683  0.1876  0.0043  0.5215
 4285TIP3    H134346   5.707   5.879  14.760 -0.1516 -0.7387 -0.0429
 4285TIP3    H234347   5.740   6.021  14.718 -0.2425 -0.2479  1.4845
 4286TIP3   OH234348   2.817   2.963  13.968 -0.1014 -0.0428 -0.2202
 4286TIP3    H134349   2.877   3.014  13.914  2.2164 -0.7115  1.6172
 4286TIP3    H234350   2.757   3.028  14.006  0.2304  0.7832 -1.0808
 4287TIP3   OH234351   2.816   0.778   2.357 -0.4418 -0.8836  0.1394
 4287TIP3    H134352   2.801   0.828   2.437 -0.1047 -0.5680  0.0118
 4287TIP3    H234353   2.756   0.817   2.293  0.3936 -0.0725 -0.1858
 4288TIP3   OH234354   4.742   4.169  10.713  0.5563 -0.6007  0.0174
 4288TIP3    H134355   4.777   4.258  10.711  0.3392 -0.4298  1.9286
 4288TIP3    H234356   4.813   4.115  10.676  1.9388  0.0333  1.6037
 4289TIP3   OH234357   4.966   0.359   2.356  0.1840 -0.2781  0.0211
 4289TIP3    H134358   4.994   0.329   2.270  0.9649 -0.8279  0.4475
 4289TIP3    H234359   4.872   0.340   2.359  0.6184 -2.8176  0.2738
 4290TIP3   OH234360   2.510   4.078   5.111  0.1342 -0.0065  0.5372
 4290TIP3    H134361   2.441   4.144   5.107 -0.6572 -0.8733 -0.6177
 4290TIP3    H234362   2.482   4.018   5.180 -1.1382 -1.2432 -0.9769
 4291TIP3   OH234363   6.788   3.743   2.338  0.4801  0.7433  0.4674
 4291TIP3    H134364   6.695   3.736   2.317 -0.3031 -1.0704  3.8751
 4291TIP3    H234365   6.830   3.677   2.283 -0.4838  0.4243  0.0864
 4292TIP3   OH234366   1.106   6.157  13.464  0.0487  0.2285 -0.5585
 4292TIP3    H134367   1.135   6.247  13.480 -1.1701  0.3774  1.1040
 4292TIP3    H234368   1.071   6.128  13.549 -1.5637 -1.0504 -1.5967
 4293TIP3   OH234369   0.209   6.124  16.129 -0.1474 -0.2147  0.2646
 4293TIP3    H134370   0.280   6.110  16.191  0.7306  0.3788 -0.5674
 4293TIP3    H234371   0.136   6.074  16.164  0.1030  0.6403  2.1343
 4294TIP3   OH234372   2.887   6.712   3.723 -0.5781  0.4924  0.4309
 4294TIP3    H134373   2.825   6.643   3.698 -1.1188  1.2983 -0.5137
 4294TIP3    H234374   2.908   6.757   3.641  0.8150  0.6163  0.8292
 4295TIP3   OH234375   5.667   3.431   6.168 -0.1374 -0.1037  1.1399
 4295TIP3    H134376   5.587   3.465   6.209 -0.4021 -0.5717  1.0259
 4295TIP3    H234377   5.647   3.431   6.074 -0.0942 -0.4542  1.1320
 4296TIP3   OH234378   5.360   1.832   2.825 -0.6578 -0.2644  0.3534
 4296TIP3    H134379   5.360   1.812   2.731  0.0649  0.9921  0.0676
 4296TIP3    H234380   5.365   1.927   2.830  1.4277 -0.3736  1.6456
 4297TIP3   OH234381   4.804   4.776   5.695  0.0960  0.1533 -0.2289
 4297TIP3    H134382   4.890   4.738   5.677 -0.5039 -1.0589 -0.6495
 4297TIP3    H234383   4.743   4.724   5.643 -0.9363  0.8206  0.2659
 4298TIP3   OH234384   0.588   4.486   0.002 -0.1063  0.1106  0.3204
 4298TIP3    H134385   0.541   4.540  -0.061 -1.0003  0.3091  1.1257
 4298TIP3    H234386   0.562   4.522   0.087  1.1249 -0.1021  0.8033
 4299TIP3   OH234387   5.139   1.759   0.475 -0.0459  0.2884  0.7144
 4299TIP3    H134388   5.161   1.852   0.461  0.4754 -0.0900 -1.3833
 4299TIP3    H234389   5.148   1.720   0.388  0.6596 -1.9371  1.7321
 4300TIP3   OH234390   1.934   4.281  16.890  0.0856 -0.4578  0.0908
 4300TIP3    H134391   1.843   4.292  16.918 -0.5921 -3.4085 -0.5809
 4300TIP3    H234392   1.927   4.241  16.804  2.0413 -0.5699 -0.0504
 4301TIP3   OH234393   5.663   0.668   4.856 -0.0641  0.0051 -0.4125
 4301TIP3    H134394   5.741   0.707   4.896  0.3530  2.2466 -3.1154
 4301TIP3    H234395   5.666   0.576   4.881  1.1702  0.7854  2.9376
 4302TIP3   OH234396   2.036   0.161  16.354 -1.0342  0.1643  0.1316
 4302TIP3    H134397   2.080   0.167  16.438  1.8921 -0.1193 -1.2760
 4302TIP3    H234398   1.944   0.178  16.374 -0.5156 -0.2939  3.4035
 4303TIP3   OH234399   2.199   0.356   3.349  0.6164 -0.0915  0.1940
 4303TIP3    H134400   2.174   0.265   3.328 -1.3803  0.0754  1.5389
 4303TIP3    H234401   2.130   0.409   3.308  2.1435  0.9095 -1.1754
 4304TIP3   OH234402   0.735   2.473  10.511 -0.4342 -0.8141  0.1132
 4304TIP3    H134403   0.723   2.554  10.559 -1.6164  0.1656 -1.7398
 4304TIP3    H234404   0.830   2.468  10.496 -0.2464 -0.3053  1.0927
 4305TIP3   OH234405   3.116   3.047  16.125 -0.0195  0.2916  0.3222
 4305TIP3    H134406   3.057   3.018  16.057 -1.7297 -0.1590  1.9191
 4305TIP3    H234407   3.069   3.117  16.170  1.7011  1.6563  0.1176
 4306TIP3   OH234408   6.566   0.558   0.218 -0.0831 -0.0207  0.3145
 4306TIP3    H134409   6.648   0.589   0.257  0.0480 -0.8472  0.7335
 4306TIP3    H234410   6.521   0.513   0.290 -0.7072  0.0584 -0.0221
 4307TIP3   OH234411   2.532   2.559   3.997  0.0258  0.3573 -0.2533
 4307TIP3    H134412   2.511   2.466   4.008  0.9697  0.0370 -0.9700
 4307TIP3    H234413   2.609   2.572   4.053 -0.9095  1.0573  0.9153
 4308TIP3   OH234414   5.427   3.106  15.743  0.1574  0.2349 -0.0421
 4308TIP3    H134415   5.379   3.024  15.729 -1.3537  1.0887  0.0259
 4308TIP3    H234416   5.519   3.080  15.736 -0.1988 -1.8028  1.7360
 4309TIP3   OH234417   4.979   6.496   3.784  0.2199 -0.1069  0.6106
 4309TIP3    H134418   4.932   6.519   3.704 -0.8768 -3.1753  0.2205
 4309TIP3    H234419   4.919   6.438   3.831  2.3181 -1.5052  1.7535
 4310TIP3   OH234420   5.069   5.095   1.504 -0.3908  0.2338 -0.0722
 4310TIP3    H134421   5.099   5.143   1.427 -0.1157 -0.7257 -0.5717
 4310TIP3    H234422   4.975   5.114   1.509 -0.3459  0.5596 -0.4539
 4311TIP3   OH234423   3.259   2.479   2.274 -0.0801  0.2326 -0.2141
 4311TIP3    H134424   3.247   2.561   2.226 -1.7760 -0.0401 -0.2990
 4311TIP3    H234425   3.352   2.458   2.262  0.1163  1.5293 -1.1693
 4312TIP3   OH234426   5.980   5.301  13.032  0.2932 -0.6362 -0.6520
 4312TIP3    H134427   5.978   5.394  13.008 -0.5190 -0.8485 -1.4932
 4312TIP3    H234428   6.022   5.258  12.958  0.3732 -0.9741 -0.4119
 4313TIP3   OH234429   2.552   0.997  14.214  0.2820  0.0409 -0.1745
 4313TIP3    H134430   2.461   0.987  14.243 -0.3112  0.0053 -1.8864
 4313TIP3    H234431   2.565   0.925  14.152  2.4099 -1.6233  2.0088
 4314TIP3   OH234432   5.790   4.791  13.027 -0.0204 -0.1272 -0.1515
 4314TIP3    H134433   5.734   4.722  13.061  0.9175 -0.5771  0.5133
 4314TIP3    H234434   5.782   4.862  13.091  1.5540 -0.8821  0.9638
 4315TIP3   OH234435   5.515   6.444   1.823  0.1853  0.3443  0.1735
 4315TIP3    H134436   5.451   6.480   1.761  0.7810  0.1904 -0.5468
 4315TIP3    H234437   5.476   6.458   1.909 -1.3078 -0.6767 -0.2947
 4316TIP3   OH234438   4.914   1.357  13.210 -0.1526  0.3666  0.0103
 4316TIP3    H134439   4.888   1.370  13.301 -1.4539 -0.4983 -0.2064
 4316TIP3    H234440   4.905   1.443  13.170 -0.5374  0.5485  0.4801
 4317TIP3   OH234441   5.272   5.718  15.668  0.2023  0.1069 -0.4386
 4317TIP3    H134442   5.192   5.724  15.616  1.4573  0.4098 -2.4333
 4317TIP3    H234443   5.294   5.625  15.668 -1.4454 -0.3975  2.3126
 4318TIP3   OH234444   3.871   6.690  12.831  0.0890 -0.0668 -0.2440
 4318TIP3    H134445   3.940   6.633  12.797  0.8337 -0.0950  1.2096
 4318TIP3    H234446   3.808   6.630  12.871  0.1464  0.0552  0.0295
 4319TIP3   OH234447   4.449   1.616   3.572 -0.0640  0.0648  0.1203
 4319TIP3    H134448   4.526   1.668   3.552 -0.3902  0.1792 -0.9159
 4319TIP3    H234449   4.405   1.605   3.487 -0.2740 -1.4509  0.3892
 4320TIP3   OH234450   4.560   6.505  16.102  0.4052  0.1669 -0.0943
 4320TIP3    H134451   4.638   6.467  16.142 -0.0873 -1.4120 -0.5454
 4320TIP3    H234452   4.495   6.506  16.173 -0.1862 -1.7655 -0.5586
 4321TIP3   OH234453   2.870   6.298   0.685  0.9387 -0.1251  0.0360
 4321TIP3    H134454   2.834   6.299   0.773  1.4181 -2.0520  0.2948
 4321TIP3    H234455   2.962   6.276   0.697  1.2380  0.5423 -0.8988
 4322TIP3   OH234456   3.904   3.484  10.510 -0.0369 -0.2134  0.1863
 4322TIP3    H134457   3.923   3.440  10.427 -0.7765 -0.2704  0.0439
 4322TIP3    H234458   3.899   3.577  10.487  1.1041 -0.0787  0.4138
 4323TIP3   OH234459   5.188   3.663   5.485  0.0131 -0.3905 -0.8689
 4323TIP3    H134460   5.244   3.586   5.488  0.6821  0.0191  2.8415
 4323TIP3    H234461   5.102   3.631   5.514 -0.1370 -0.0280 -0.9113
 4324TIP3   OH234462   5.147   6.070  10.917  0.4573  0.1655 -0.1879
 4324TIP3    H134463   5.060   6.076  10.877 -0.5710 -0.3727  1.8047
 4324TIP3    H234464   5.147   6.140  10.983  0.6414 -1.2150  1.3361
 4325TIP3   OH234465   1.364   4.007   2.528  0.2912  0.6527  0.0480
 4325TIP3    H134466   1.289   3.977   2.580  0.1358 -2.5112 -1.7234
 4325TIP3    H234467   1.410   3.926   2.504  3.0179  2.3358 -0.8054
 4326TIP3   OH234468   3.853   3.692  15.583  0.3637 -0.2521 -0.0757
 4326TIP3    H134469   3.849   3.777  15.538 -0.5943 -0.2216  0.0465
 4326TIP3    H234470   3.800   3.703  15.661  2.1941 -0.2440  1.2266
 4327TIP3   OH234471   0.757   2.303  11.982 -0.5377 -0.0435 -0.4684
 4327TIP3    H134472   0.843   2.279  12.016 -0.6636  0.7363  0.4429
 4327TIP3    H234473   0.696   2.243  12.024 -0.4770 -0.4367 -0.9282
 4328TIP3   OH234474   3.416   5.290   6.510 -0.1622  0.2756 -0.6232
 4328TIP3    H134475   3.401   5.319   6.600  0.7329  1.5209 -0.8549
 4328TIP3    H234476   3.330   5.292   6.469 -0.3298  1.3154 -0.2432
 4329TIP3   OH234477   2.443   1.008   3.592 -0.6929 -0.0097 -0.0485
 4329TIP3    H134478   2.441   0.991   3.498 -1.5217 -1.1184  0.1443
 4329TIP3    H234479   2.524   0.968   3.623 -0.2931  0.5842 -0.3296
 4330TIP3   OH234480   4.025   4.791  16.127 -0.3858 -0.0051  0.4416
 4330TIP3    H134481   3.934   4.804  16.155  0.3857  1.0580  2.7527
 4330TIP3    H234482   4.050   4.707  16.165  0.2288  0.7729  1.8766
 4331TIP3   OH234483   5.260   2.920   0.115 -0.1024  0.7088  0.6846
 4331TIP3    H134484   5.170   2.930   0.146 -0.6902 -0.0005 -0.6680
 4331TIP3    H234485   5.277   2.826   0.119 -0.4704  0.4668 -1.6513
 4332TIP3   OH234486   2.372   0.700   5.340  0.5997  0.2138  0.4586
 4332TIP3    H134487   2.410   0.719   5.254 -0.3031  0.0118 -0.0004
 4332TIP3    H234488   2.296   0.758   5.346  0.2027 -0.3304  0.7886
 4333TIP3   OH234489   6.392   1.724   4.117  0.3767 -0.3199  0.3684
 4333TIP3    H134490   6.392   1.643   4.167 -0.8896  1.4288  3.4918
 4333TIP3    H234491   6.464   1.775   4.155 -1.2554  1.4594  1.2351
 4334TIP3   OH234492   3.900   3.138   0.802 -0.1351 -0.5320  0.7307
 4334TIP3    H134493   3.886   3.170   0.712 -0.3957 -0.4812  0.7877
 4334TIP3    H234494   3.994   3.123   0.807 -0.0097  0.1578  0.6749
 4335TIP3   OH234495   5.543   3.912  12.139 -0.8309 -0.1945  0.1531
 4335TIP3    H134496   5.466   3.967  12.123 -0.9542 -0.7722 -1.4241
 4335TIP3    H234497   5.616   3.963  12.105 -0.6298 -0.0556  0.7778
 4336TIP3   OH234498   3.927   5.213  16.426 -0.5003  0.0119  0.2289
 4336TIP3    H134499   3.888   5.280  16.370 -0.6616 -0.2131  0.0742
 4336TIP3    H234500   3.854   5.178  16.477 -0.4289 -0.1093  0.2477
 4337TIP3   OH234501   2.081   5.161   0.417 -0.2893 -0.0760  0.3977
 4337TIP3    H134502   2.049   5.155   0.326  0.1635  0.6076  0.1900
 4337TIP3    H234503   2.005   5.135   0.470 -0.4187 -0.9621 -0.1838
 4338TIP3   OH234504   4.065   4.016   0.777  0.1493  0.1102  0.1227
 4338TIP3    H134505   4.009   3.962   0.721 -0.3970  1.8062 -1.0275
 4338TIP3    H234506   4.013   4.094   0.796  0.2168 -0.4850  3.2520
 4339TIP3   OH234507   3.967   4.259   6.298 -0.2735  0.2060 -0.3280
 4339TIP3    H134508   3.898   4.272   6.232 -0.0269  0.1607 -0.5984
 4339TIP3    H234509   3.921   4.226   6.375 -0.5832  0.3821 -0.4355
 4340TIP3   OH234510   5.011   1.856  15.821  0.7410  0.4051 -0.6120
 4340TIP3    H134511   4.993   1.896  15.906 -0.1466  1.3421 -1.2076
 4340TIP3    H234512   5.096   1.814  15.831  1.1634  1.4529  0.4135
 4341TIP3   OH234513   4.739   1.561   2.866  0.9221 -0.2083  0.6902
 4341TIP3    H134514   4.772   1.649   2.884 -1.4542  0.9234 -0.0291
 4341TIP3    H234515   4.728   1.559   2.771 -0.4799 -0.7006  0.8446
 4342TIP3   OH234516   4.981   4.548  14.069 -0.6002  0.1044 -0.4284
 4342TIP3    H134517   4.997   4.634  14.109 -0.1972 -1.0208  2.0231
 4342TIP3    H234518   5.068   4.511  14.057 -0.8192 -0.5161 -0.1161
 4343TIP3   OH234519   4.715   0.582   0.161 -0.3585 -1.0556 -0.5637
 4343TIP3    H134520   4.631   0.558   0.202  0.0570 -1.2958  0.1711
 4343TIP3    H234521   4.722   0.677   0.175 -1.6272 -0.5734 -2.7679
 4344TIP3   OH234522   5.249   0.227   4.276  0.3836  0.8140 -0.4954
 4344TIP3    H134523   5.261   0.321   4.286 -0.3549  0.7718  1.0796
 4344TIP3    H234524   5.163   0.209   4.313  1.1431 -0.6705  0.7052
 4345TIP3   OH234525   3.399   4.065  16.547 -0.2360 -0.4601  0.4269
 4345TIP3    H134526   3.337   4.002  16.583 -0.1850 -1.3740 -1.0007
 4345TIP3    H234527   3.426   4.027  16.463 -0.4359  1.5988 -0.6493
 4346TIP3   OH234528   6.536   6.701   2.511 -0.2437  0.1314  0.0248
 4346TIP3    H134529   6.520   6.756   2.434 -1.0827 -0.4562 -0.2399
 4346TIP3    H234530   6.496   6.748   2.584  0.8355  0.8450  0.1679
 4347TIP3   OH234531   0.528   6.644  16.392 -0.8691  0.7099 -0.5451
 4347TIP3    H134532   0.474   6.579  16.436  0.4114  1.0581  1.6958
 4347TIP3    H234533   0.490   6.651  16.304 -1.7987 -2.1237 -0.4743
 4348TIP3   OH234534   0.416   2.166   1.232 -0.5243 -0.0195 -0.2627
 4348TIP3    H134535   0.398   2.076   1.257 -1.1965  0.6729  1.9316
 4348TIP3    H234536   0.400   2.217   1.311  3.2846  1.6723 -0.3654
 4349TIP3   OH234537   0.446   0.028   2.173 -0.2965 -0.2208  0.2125
 4349TIP3    H134538   0.489  -0.040   2.224 -1.7060 -0.4972  1.0706
 4349TIP3    H234539   0.354   0.024   2.200 -0.8770  0.3573 -1.5453
 4350TIP3   OH234540   6.460   6.024   1.394 -0.2971  0.5872 -0.0235
 4350TIP3    H134541   6.368   6.025   1.367  0.1335 -1.8005 -1.8859
 4350TIP3    H234542   6.507   6.059   1.318  0.3783  1.7633  0.9056
 4351TIP3   OH234543   5.443   0.258  16.433  0.2295 -0.1857  0.3022
 4351TIP3    H134544   5.386   0.243  16.358  1.1648  1.5901 -0.8137
 4351TIP3    H234545   5.507   0.186  16.430 -1.2690 -1.6261  0.9982
 4352TIP3   OH234546   2.717   4.396   0.748 -0.0040 -0.3228 -0.3317
 4352TIP3    H134547   2.716   4.305   0.778  1.8529 -0.2187  0.1215
 4352TIP3    H234548   2.694   4.391   0.655  0.8294 -1.3338 -0.4917
 4353TIP3   OH234549   5.021   5.864   5.694 -0.1364 -0.1331 -0.1428
 4353TIP3    H134550   4.999   5.784   5.742 -1.3448  1.0118  1.3198
 4353TIP3    H234551   5.094   5.902   5.743  0.3030 -0.2205 -0.7174
 4354TIP3   OH234552   0.698   1.600  12.539  0.1888  0.4841  0.0743
 4354TIP3    H134553   0.676   1.678  12.488 -0.9449 -0.6592 -1.2877
 4354TIP3    H234554   0.793   1.597  12.539  0.2445  0.3810 -2.3013
 4355TIP3   OH234555   1.423   1.094   2.202  0.4274 -0.3211 -0.2686
 4355TIP3    H134556   1.512   1.102   2.235  0.2776 -0.6031  0.2222
 4355TIP3    H234557   1.418   1.156   2.129  1.3387 -1.0539 -0.9728
 4356TIP3   OH234558   4.837   3.058  15.595 -0.2762 -0.2238 -0.6530
 4356TIP3    H134559   4.776   3.020  15.659 -1.3615  1.0002 -0.9085
 4356TIP3    H234560   4.782   3.077  15.519  0.2823  1.4493 -0.6774
 4357TIP3   OH234561   2.724   0.031  16.833 -0.3081  0.0354  0.1877
 4357TIP3    H134562   2.758   0.099  16.891  1.6871 -0.1936 -0.6318
 4357TIP3    H234563   2.701  -0.041  16.891 -1.7884  1.1162  1.0011
 4358TIP3   OH234564   0.605   5.144  17.065 -0.0821 -0.4756  0.2975
 4358TIP3    H134565   0.592   5.234  17.093 -0.9941 -0.7194  0.6808
 4358TIP3    H234566   0.519   5.115  17.034  0.1533 -1.2780  0.3578
 4359TIP3   OH234567   6.481   0.650   1.983 -0.4705  0.0985  0.1378
 4359TIP3    H134568   6.485   0.596   1.904  0.4115  0.8342 -0.3301
 4359TIP3    H234569   6.397   0.626   2.023 -1.1964  0.1223 -1.3089
 4360TIP3   OH234570   4.033   6.177  11.469  0.2633  0.0760  0.3036
 4360TIP3    H134571   4.096   6.135  11.528 -0.0723 -0.2085  0.4595
 4360TIP3    H234572   3.984   6.105  11.430 -1.3594  0.3552  1.7229
 4361TIP3   OH234573   0.185   2.727  13.471  0.0859  0.8735  0.5667
 4361TIP3    H134574   0.274   2.717  13.438 -0.5532  0.5620 -1.1638
 4361TIP3    H234575   0.185   2.680  13.554  1.2275 -0.1517  0.0199
 4362TIP3   OH234576   2.342   0.960   0.429  0.5814  0.0564  0.5732
 4362TIP3    H134577   2.436   0.976   0.422  0.5842  0.8391  2.0017
 4362TIP3    H234578   2.320   0.982   0.520 -1.1364  0.7771  0.0341
 4363TIP3   OH234579   5.816   3.881  15.587  0.2969 -0.0115  0.5060
 4363TIP3    H134580   5.785   3.950  15.528  1.1275 -0.9958 -1.1584
 4363TIP3    H234581   5.752   3.810  15.575 -1.7636  1.0844  3.7532
 4364TIP3   OH234582   6.589   4.973  12.343  0.2059  0.4898 -0.6684
 4364TIP3    H134583   6.494   4.972  12.337  0.2292 -1.0755 -1.0301
 4364TIP3    H234584   6.612   4.893  12.391  1.3942  0.1220 -1.7907
 4365TIP3   OH234585   2.752   1.784   3.646  0.0073  0.1935 -0.1604
 4365TIP3    H134586   2.768   1.868   3.602 -1.0651  0.6286  0.2377
 4365TIP3    H234587   2.838   1.745   3.655  0.4382  0.8771 -1.1025
 4366TIP3   OH234588   1.805   4.426   1.481  0.7439  0.2911 -0.3224
 4366TIP3    H134589   1.860   4.447   1.557 -0.7950 -0.6299  1.1047
 4366TIP3    H234590   1.842   4.478   1.410  2.5391  0.8203  0.9233
 4367TIP3   OH234591   3.031   3.707  13.962  0.6587  0.0319 -0.4628
 4367TIP3    H134592   3.037   3.729  13.869  0.4160  2.5963  0.0620
 4367TIP3    H234593   2.943   3.734  13.988  1.1146  0.4206  0.7593
 4368TIP3   OH234594   5.399   0.117  15.207  0.8473  0.0514 -0.5258
 4368TIP3    H134595   5.410   0.194  15.263  0.2137 -1.1123  1.2879
 4368TIP3    H234596   5.325   0.139  15.150 -0.5286  0.1246  1.2239
 4369TIP3   OH234597   0.309   3.111  11.417 -0.2650  0.1549 -0.3392
 4369TIP3    H134598   0.324   3.099  11.510  1.1070  1.4615 -0.3497
 4369TIP3    H234599   0.229   3.164  11.411  0.1661  0.8829  0.1600
 4370TIP3   OH234600   3.209   5.859  11.982 -0.2518 -0.5637  0.0399
 4370TIP3    H134601   3.203   5.941  12.032  1.0755  0.6174 -1.6217
 4370TIP3    H234602   3.138   5.864  11.918 -0.9663 -1.3384  0.7498
 4371TIP3   OH234603   3.320   0.335  15.355  0.2056 -0.6185  0.0107
 4371TIP3    H134604   3.267   0.410  15.383  1.2402 -0.4755  1.7444
 4371TIP3    H234605   3.341   0.352  15.264  0.4848  1.2488  0.3950
 4372TIP3   OH234606   2.518   5.608   3.991  0.3216 -0.0705 -0.6009
 4372TIP3    H134607   2.449   5.634   3.929  1.2526  1.8390 -0.9051
 4372TIP3    H234608   2.473   5.551   4.053 -1.3915  0.5348 -1.1998
 4373TIP3   OH234609   6.326   2.566  12.299 -0.1244  0.2371  0.7547
 4373TIP3    H134610   6.349   2.571  12.392 -1.3898  0.7164  1.0611
 4373TIP3    H234611   6.246   2.513  12.297 -0.6315  1.0109  0.0543
 4374TIP3   OH234612   3.538   5.584  11.872  0.0444  0.0352 -0.8867
 4374TIP3    H134613   3.512   5.676  11.880  1.2208  0.4499 -1.5409
 4374TIP3    H234614   3.456   5.536  11.879 -0.4275  0.9844  1.3698
 4375TIP3   OH234615   3.889   0.931  14.813 -0.3745 -0.1662  0.0038
 4375TIP3    H134616   3.830   0.881  14.757  0.2943  0.7905 -1.6356
 4375TIP3    H234617   3.957   0.868  14.839 -1.6092 -1.0474  1.1958
 4376TIP3   OH234618   3.495   5.548   5.293  0.2100 -0.0331 -0.0514
 4376TIP3    H134619   3.419   5.569   5.347  0.2745  1.9936 -0.6947
 4376TIP3    H234620   3.570   5.577   5.345  0.6156 -2.1159  0.6255
 4377TIP3   OH234621   0.614   6.402  17.152  0.4932  0.2475 -0.3155
 4377TIP3    H134622   0.595   6.389  17.245  1.0765  1.9724  0.0753
 4377TIP3    H234623   0.529   6.421  17.112  0.3143  0.0196 -0.0434
 4378TIP3   OH234624   2.642   4.915   5.519 -0.1463  0.2423 -0.1725
 4378TIP3    H134625   2.568   4.860   5.493 -0.7930  0.9298  0.1579
 4378TIP3    H234626   2.613   5.004   5.500 -0.3476  0.7326  2.1263
 4379TIP3   OH234627   6.084   6.383  13.012 -0.0555  0.0395 -0.2605
 4379TIP3    H134628   6.078   6.469  12.970  0.9116  1.0603  1.5469
 4379TIP3    H234629   6.008   6.379  13.070 -0.4057 -0.5821 -0.7530
 4380TIP3   OH234630   4.129   1.536  14.833  0.3461 -0.3828  0.3773
 4380TIP3    H134631   4.058   1.600  14.820  1.0633  0.4280  0.3695
 4380TIP3    H234632   4.182   1.573  14.903  0.9771 -0.7893  0.1237
 4381TIP3   OH234633   1.169   0.684  13.531 -0.3069 -0.2048 -0.0876
 4381TIP3    H134634   1.237   0.743  13.563  0.6263 -0.8519 -0.8094
 4381TIP3    H234635   1.136   0.640  13.609  0.8300 -0.6247  0.1825
 4382TIP3   OH234636   6.103   4.871  15.975 -0.5350  0.5022 -0.4863
 4382TIP3    H134637   6.023   4.865  16.028  0.7570  0.8671  1.6532
 4382TIP3    H234638   6.105   4.962  15.946 -0.1744  0.8973  0.7249
 4383TIP3   OH234639   3.827   2.080   6.188  0.3416 -0.0858  0.2005
 4383TIP3    H134640   3.898   2.066   6.250  2.7743 -2.6067 -2.8087
 4383TIP3    H234641   3.862   2.142   6.124 -0.6531 -0.3670 -0.6460
 4384TIP3   OH234642   3.445   6.025   3.794 -0.1696  0.2713  0.7812
 4384TIP3    H134643   3.406   5.939   3.778  2.4398 -0.6873 -1.0503
 4384TIP3    H234644   3.504   6.012   3.868  1.7231 -0.1069 -0.7251
 4385TIP3   OH234645   0.093   6.377  10.867 -0.3623 -0.0506  0.0003
 4385TIP3    H134646   0.165   6.355  10.808  0.3125 -0.5691  0.9872
 4385TIP3    H234647   0.100   6.471  10.879 -0.9551  0.1825 -1.2930
 4386TIP3   OH234648   3.455   1.419   2.893  0.1873  0.0453 -0.0820
 4386TIP3    H134649   3.493   1.336   2.923  0.5841  0.0204 -0.6372
 4386TIP3    H234650   3.524   1.458   2.839 -0.1219  0.5847 -0.0854
 4387TIP3   OH234651   6.571   2.315   0.742  0.1499 -0.2082  0.4006
 4387TIP3    H134652   6.592   2.361   0.823 -2.3541  0.0482  0.9749
 4387TIP3    H234653   6.538   2.230   0.770  1.1632 -0.9331 -0.4877
 4388TIP3   OH234654   2.698   2.072  10.632  0.6097 -0.3889  0.7221
 4388TIP3    H134655   2.699   2.159  10.592  1.3221 -0.6243  0.2248
 4388TIP3    H234656   2.625   2.076  10.694 -1.2683 -0.3563 -1.3618
 4389TIP3   OH234657   3.778   4.912   1.548  0.1891 -0.2612  0.0436
 4389TIP3    H134658   3.732   4.916   1.632 -0.0977  1.0612 -0.1609
 4389TIP3    H234659   3.858   4.963   1.562 -0.6057  1.3154 -0.9163
 4390TIP3   OH234660   6.741   1.197   2.552 -0.4560 -0.7623 -0.0815
 4390TIP3    H134661   6.764   1.211   2.460 -0.2407 -1.2896 -0.1106
 4390TIP3    H234662   6.688   1.117   2.552 -3.5623  1.1192 -0.2083
 4391TIP3   OH234663   0.278   3.026   5.848 -0.1557 -0.5776 -0.6701
 4391TIP3    H134664   0.263   2.970   5.925 -1.6626 -2.1372 -2.0283
 4391TIP3    H234665   0.349   3.085   5.875  1.1862 -2.8047  1.0309
 4392TIP3   OH234666   4.028   0.055   2.031 -0.2578 -0.2569  0.2437
 4392TIP3    H134667   4.054   0.142   2.062 -0.4340 -0.1431  0.0771
 4392TIP3    H234668   4.033  -0.001   2.108  0.0764 -0.1453  0.3018
 4393TIP3   OH234669   1.446   5.664   3.065 -0.4822  0.7410  0.0365
 4393TIP3    H134670   1.494   5.661   3.148 -0.1631  0.0627 -0.1639
 4393TIP3    H234671   1.390   5.586   3.067  2.3978 -1.6427 -2.0438
 4394TIP3   OH234672   3.672   2.559  16.578  0.2843 -0.1358 -0.0308
 4394TIP3    H134673   3.602   2.498  16.599  0.9032 -1.0911 -0.6446
 4394TIP3    H234674   3.722   2.568  16.659  0.5176 -0.8911 -0.0881
 4395TIP3   OH234675   2.888   6.429   4.419 -0.0038  0.4424 -0.2470
 4395TIP3    H134676   2.909   6.522   4.410  0.3486  0.5650  1.4238
 4395TIP3    H234677   2.969   6.384   4.395  0.9166  0.7450  2.0257
 4396TIP3   OH234678   2.992   3.880  15.228  0.2207 -0.5744  0.0972
 4396TIP3    H134679   2.945   3.857  15.148 -1.9660 -1.9199  1.6551
 4396TIP3    H234680   2.962   3.969  15.249  1.8145  0.3186 -1.2078
 4397TIP3   OH234681   1.103   1.338  14.432 -0.0639 -0.3386 -0.3587
 4397TIP3    H134682   1.027   1.389  14.403 -1.0570 -1.3227  0.4069
 4397TIP3    H234683   1.140   1.303  14.351 -0.9606 -0.5585 -0.6881
 4398TIP3   OH234684   4.839   3.509   3.504 -0.2693 -0.4103  0.3141
 4398TIP3    H134685   4.861   3.429   3.456 -1.0771 -0.3254 -0.2266
 4398TIP3    H234686   4.755   3.536   3.466 -0.9640 -0.3705  1.8127
 4399TIP3   OH234687   2.170   5.249  16.364  0.5214  0.0942 -0.2386
 4399TIP3    H134688   2.188   5.199  16.285  1.8992 -0.3599  0.3219
 4399TIP3    H234689   2.181   5.341  16.338  1.1122 -0.0599 -0.5428
 4400TIP3   OH234690   1.790   6.064   2.392  0.3681  0.4021 -0.3855
 4400TIP3    H134691   1.843   6.071   2.312 -0.5368 -0.6078 -1.0984
 4400TIP3    H234692   1.724   6.132   2.383  1.2392  1.3713  0.2983
 4401TIP3   OH234693   0.855   6.321  14.099 -0.3411  0.0200  0.0001
 4401TIP3    H134694   0.761   6.305  14.089 -0.5056  1.2286 -0.5004
 4401TIP3    H234695   0.864   6.416  14.101  0.7418 -0.0757  1.5007
 4402TIP3   OH234696   5.080   1.203   0.515 -0.2188  0.4207 -0.2757
 4402TIP3    H134697   5.169   1.192   0.549 -0.1008 -0.9295 -0.9203
 4402TIP3    H234698   5.033   1.251   0.583  1.3792  2.5512 -0.5658
 4403TIP3   OH234699   1.617   5.399   4.243  0.2593 -0.3360 -0.1267
 4403TIP3    H134700   1.695   5.385   4.189  0.5452 -0.6588  0.3655
 4403TIP3    H234701   1.562   5.458   4.191  1.4025  0.9483  0.0851
 4404TIP3   OH234702   6.453   1.662   3.869 -0.2478 -0.3653  0.4188
 4404TIP3    H134703   6.438   1.696   3.957 -0.0058  0.6406  0.0925
 4404TIP3    H234704   6.366   1.647   3.834 -0.5173  2.3164 -0.2969
 4405TIP3   OH234705   5.997   1.069   3.596  0.0165  0.1354 -0.0409
 4405TIP3    H134706   5.957   1.021   3.668 -0.6760  0.2606 -0.3303
 4405TIP3    H234707   6.025   1.001   3.534 -2.1766  0.1080 -1.0804
 4406TIP3   OH234708   0.214   0.110   1.605 -0.1083 -0.0418  0.2149
 4406TIP3    H134709   0.175   0.193   1.631  1.2619  0.4072  0.9586
 4406TIP3    H234710   0.139   0.051   1.591 -1.0827  1.2326 -0.0687
 4407TIP3   OH234711   6.694   2.264  10.545 -0.0504 -0.1742  0.1427
 4407TIP3    H134712   6.703   2.352  10.582  0.3148  0.6019 -1.6762
 4407TIP3    H234713   6.600   2.246  10.550 -0.3250  0.9139 -0.6840
 4408TIP3   OH234714   0.820   4.667  10.973 -0.1014 -0.1311  0.0363
 4408TIP3    H134715   0.811   4.585  11.020 -2.7930  0.1171  0.1034
 4408TIP3    H234716   0.890   4.651  10.910 -0.7675 -2.5962 -0.1731
 4409TIP3   OH234717   2.815   0.727   5.739 -0.0545  0.2064 -0.2398
 4409TIP3    H134718   2.839   0.818   5.751  3.5809 -0.5785 -0.6215
 4409TIP3    H234719   2.816   0.690   5.827 -0.2502  0.2421 -0.2216
 4410TIP3   OH234720   1.868   3.645  14.631 -0.4930 -0.2957 -0.4775
 4410TIP3    H134721   1.904   3.715  14.687 -1.7724 -0.1153  0.1442
 4410TIP3    H234722   1.850   3.573  14.691  2.0018 -1.7312 -1.2746
 4411TIP3   OH234723   1.720   4.550  15.857  0.2406  0.2261  0.2654
 4411TIP3    H134724   1.738   4.616  15.925  0.7920  0.6235 -0.2585
 4411TIP3    H234725   1.800   4.497  15.854 -0.4594 -0.9547  1.1914
 4412TIP3   OH234726   5.207   1.174   2.059  0.1859 -0.8084 -0.0935
 4412TIP3    H134727   5.235   1.172   1.968  1.0277 -1.4707  0.1695
 4412TIP3    H234728   5.111   1.165   2.055 -0.3657  3.2725 -1.0870
 4413TIP3   OH234729   3.647   1.830  15.853 -0.5473  0.0836  0.0738
 4413TIP3    H134730   3.578   1.769  15.880  0.4038 -1.5690 -1.0710
 4413TIP3    H234731   3.656   1.891  15.927 -0.4559 -2.0948  1.9558
 4414TIP3   OH234732   1.542   5.425  12.462 -0.3502  0.1664  0.0907
 4414TIP3    H134733   1.546   5.333  12.437  2.5183  0.4302 -0.7955
 4414TIP3    H234734   1.547   5.424  12.558 -1.3686 -0.5941  0.1485
 4415TIP3   OH234735   2.331   6.279   0.094  0.0512 -0.6167 -0.3007
 4415TIP3    H134736   2.241   6.306   0.111  0.1817 -1.1496  1.3746
 4415TIP3    H234737   2.333   6.261   0.000 -1.7176 -1.1196 -0.2748
 4416TIP3   OH234738   5.104   5.444   3.479 -0.1977  0.5221  1.0277
 4416TIP3    H134739   5.109   5.361   3.526  2.0827  0.9530  1.6927
 4416TIP3    H234740   5.128   5.510   3.545  3.4683  1.1113 -0.6385
 4417TIP3   OH234741   4.515   2.561   2.496 -0.0214 -0.0660 -0.0783
 4417TIP3    H134742   4.457   2.633   2.472  0.6934  0.5145 -0.1043
 4417TIP3    H234743   4.591   2.572   2.439  1.1226  0.5319  1.4942
 4418TIP3   OH234744   4.198   4.842  13.295 -0.1070  0.6302 -0.4886
 4418TIP3    H134745   4.182   4.933  13.269 -0.7322  0.8318  0.5428
 4418TIP3    H234746   4.112   4.801  13.293 -0.0854  0.4976  0.6244
 4419TIP3   OH234747   6.072   1.888   0.173  0.1191 -0.2908  0.1425
 4419TIP3    H134748   6.152   1.881   0.225  1.3690 -1.1832 -1.7868
 4419TIP3    H234749   6.032   1.802   0.178  0.6423 -0.6107 -0.9382
 4420TIP3   OH234750   3.582   1.018   3.941 -0.1075  0.3981  0.4248
 4420TIP3    H134751   3.669   1.001   3.977 -0.0954 -0.7877 -0.1220
 4420TIP3    H234752   3.543   0.932   3.929 -0.4272  0.7766 -1.5850
 4421TIP3   OH234753   4.619   3.015  12.826  0.5113 -0.2148 -0.2006
 4421TIP3    H134754   4.607   2.922  12.806  1.2181 -0.3295 -0.1052
 4421TIP3    H234755   4.647   3.017  12.917  0.1707  0.1210 -0.0965
 4422TIP3   OH234756   5.991   2.736  14.521  0.3951 -0.4735 -0.0717
 4422TIP3    H134757   5.923   2.800  14.502 -1.1866 -2.3481 -1.0856
 4422TIP3    H234758   6.031   2.767  14.603 -2.0700  0.4123  0.8949
 4423TIP3   OH234759   1.545   4.103   1.780  0.3355  0.1647  0.0695
 4423TIP3    H134760   1.510   4.014   1.785  3.0538 -1.0972 -1.4038
 4423TIP3    H234761   1.469   4.160   1.795 -2.1773 -2.3087 -2.2531
 4424TIP3   OH234762   6.702   3.668   2.755 -0.1944  0.3167  0.4959
 4424TIP3    H134763   6.676   3.589   2.707 -1.7580  0.7790  0.5160
 4424TIP3    H234764   6.672   3.740   2.700  1.1011  0.9174  0.5409
 4425TIP3   OH234765   3.946   4.308   1.861  0.7403  0.3779  0.0210
 4425TIP3    H134766   3.991   4.388   1.888  1.8131  0.2338 -1.2483
 4425TIP3    H234767   4.012   4.239   1.868 -0.2150 -0.4590  1.2429
 4426TIP3   OH234768   4.883   5.198  16.420  0.3233  0.2896 -0.5779
 4426TIP3    H134769   4.963   5.182  16.471 -0.5860  0.3329  0.9388
 4426TIP3    H234770   4.851   5.111  16.397  0.3869  0.2433 -0.4919
 4427TIP3   OH234771   5.129   2.718   4.799  0.5608 -0.0458 -0.6938
 4427TIP3    H134772   5.165   2.760   4.877  0.8515 -1.0032 -0.3026
 4427TIP3    H234773   5.139   2.624   4.815 -0.1027 -0.2743 -1.5393
 4428TIP3   OH234774   4.522   5.910  15.307 -0.0141  0.1602 -0.2415
 4428TIP3    H134775   4.515   5.901  15.402  1.4989  2.6318  0.1897
 4428TIP3    H234776   4.605   5.868  15.285 -0.0275  0.1945 -0.3586
 4429TIP3   OH234777   5.395   0.958  11.934  0.2239 -0.1220 -0.8751
 4429TIP3    H134778   5.322   0.905  11.903 -0.8220 -0.1149  1.3669
 4429TIP3    H234779   5.369   0.986  12.022  2.8897 -0.0579 -0.0049
 4430TIP3   OH234780   4.470   4.706  12.193 -0.0830  1.3313  0.6317
 4430TIP3    H134781   4.489   4.615  12.169 -3.1088 -0.6294  4.4527
 4430TIP3    H234782   4.380   4.719  12.163  0.4380  3.3110 -0.2020
 4431TIP3   OH234783   3.307   1.535  12.573  0.2366  0.2726 -0.1466
 4431TIP3    H134784   3.271   1.555  12.659  0.6711  0.5799 -0.0350
 4431TIP3    H234785   3.302   1.617  12.524 -1.4122 -0.2597 -0.9300
 4432TIP3   OH234786   0.328   4.775  13.171  0.4517  0.0446  0.4505
 4432TIP3    H134787   0.269   4.849  13.182  1.2575  0.5295  1.7815
 4432TIP3    H234788   0.377   4.795  13.091  0.8216  1.0909  0.9197
 4433TIP3   OH234789   3.124   4.723  13.161  0.0838  0.3537 -0.3310
 4433TIP3    H134790   3.104   4.736  13.254  0.7416 -0.2180 -0.0980
 4433TIP3    H234791   3.041   4.698  13.122 -0.0998  0.1243  0.1990
 4434TIP3   OH234792   1.617   3.003   2.214  0.0008  0.4172  0.5357
 4434TIP3    H134793   1.675   3.079   2.223 -0.8074  1.0005  0.9328
 4434TIP3    H234794   1.669   2.939   2.164 -0.4728  2.4759 -2.8661
 4435TIP3   OH234795   3.736   0.754  14.348  0.0175  0.1226 -0.3877
 4435TIP3    H134796   3.816   0.716  14.312  0.3924  0.5852 -0.0605
 4435TIP3    H234797   3.695   0.799  14.274 -0.2425 -0.5945 -0.6899
 4436TIP3   OH234798   5.612   2.711  13.030  0.5385  0.1069  0.4729
 4436TIP3    H134799   5.594   2.638  12.971  0.3371 -1.9598  2.9146
 4436TIP3    H234800   5.707   2.708  13.043  0.8158  1.6033 -0.9417
 4437TIP3   OH234801   4.301   3.132  13.232  0.4759 -0.2992 -0.1737
 4437TIP3    H134802   4.260   3.051  13.202  2.1200  0.2223 -4.5942
 4437TIP3    H234803   4.229   3.195  13.237 -0.3239 -1.2004 -0.0970
 4438TIP3   OH234804   5.031   5.753   4.658  0.2670  0.0038  0.1307
 4438TIP3    H134805   5.050   5.845   4.677  0.3619 -0.0219  0.1604
 4438TIP3    H234806   5.077   5.735   4.576  0.7501 -0.1852  0.4424
 4439TIP3   OH234807   3.881   0.060  16.837 -0.1384 -0.5766 -0.4019
 4439TIP3    H134808   3.975   0.057  16.822 -0.0772 -0.1880 -0.1336
 4439TIP3    H234809   3.843   0.075  16.751  0.0917 -0.0596 -0.4168
 4440TIP3   OH234810   3.361   6.351  16.670  0.0717 -0.3037 -0.0695
 4440TIP3    H134811   3.401   6.364  16.584 -0.9582  1.7972 -0.2909
 4440TIP3    H234812   3.347   6.439  16.704 -0.6132 -1.0665  1.7753
 4441TIP3   OH234813   2.639   3.843  13.422  0.0545  0.0452  0.3545
 4441TIP3    H134814   2.606   3.882  13.504  0.8123  1.0528  0.2047
 4441TIP3    H234815   2.565   3.792  13.389 -0.6804  0.6237  1.0407
 4442TIP3   OH234816   5.671   6.805  17.150 -0.3735 -1.1081  0.3275
 4442TIP3    H134817   5.657   6.741  17.079 -0.0865  0.6790 -1.4181
 4442TIP3    H234818   5.763   6.796  17.172  0.5338  0.8335 -2.2082
 4443TIP3   OH234819   0.933   1.385   3.083 -0.1032  0.3155  0.1062
 4443TIP3    H134820   0.891   1.467   3.056 -4.5364 -1.5530  0.5842
 4443TIP3    H234821   0.937   1.332   3.003  0.6642  0.1677  0.2369
 4444TIP3   OH234822   3.721   0.462  16.976  0.3804 -0.1197  0.7170
 4444TIP3    H134823   3.701   0.473  16.883 -0.3862  1.6498  1.0502
 4444TIP3    H234824   3.735   0.551  17.009 -0.3255 -0.6173  2.5067
 4445TIP3   OH234825   0.569   1.198   6.484 -0.2678 -0.5006  0.4581
 4445TIP3    H134826   0.655   1.173   6.517  0.9384 -0.6795 -2.5310
 4445TIP3    H234827   0.581   1.286   6.449 -1.1927 -0.6654 -0.3269
 4446TIP3   OH234828   2.649   0.190  14.312 -0.4990  0.2546  0.0661
 4446TIP3    H134829   2.687   0.244  14.382 -0.9557  0.9618 -0.2279
 4446TIP3    H234830   2.568   0.234  14.289 -0.8803 -0.5646 -0.1835
 4447TIP3   OH234831   6.243   0.638   3.380 -0.0769  0.1449 -0.3021
 4447TIP3    H134832   6.233   0.581   3.457  0.4694 -0.5382 -0.7223
 4447TIP3    H234833   6.303   0.591   3.323  1.0880  1.5428 -0.2913
 4448TIP3   OH234834   1.840   1.320  12.209 -0.4152 -0.0238 -0.3249
 4448TIP3    H134835   1.816   1.228  12.195 -0.9589  0.0442  0.1705
 4448TIP3    H234836   1.858   1.353  12.121 -1.0634 -0.3702 -0.5957
 4449TIP3   OH234837   4.369   1.584  14.663  0.2491  0.0614  0.0981
 4449TIP3    H134838   4.414   1.507  14.628  1.4163  0.4871  0.6221
 4449TIP3    H234839   4.292   1.548  14.708  0.9117 -0.8293  0.5600
 4450TIP3   OH234840   4.645   5.431  17.138 -0.3556 -0.5662 -0.6206
 4450TIP3    H134841   4.551   5.425  17.159 -0.0842 -0.5638  0.6976
 4450TIP3    H234842   4.679   5.344  17.157 -0.0639 -0.5279 -0.9678
 4451TIP3   OH234843   0.667   6.371  12.791  1.1490 -0.1160 -0.5703
 4451TIP3    H134844   0.658   6.356  12.885  1.8037  1.8067 -0.1796
 4451TIP3    H234845   0.751   6.330  12.768  1.7591  0.7894  0.0039
 4452TIP3   OH234846   1.753   4.987   0.930  0.8159  0.1134 -0.1020
 4452TIP3    H134847   1.783   4.901   0.959 -0.5280 -0.3053  0.1078
 4452TIP3    H234848   1.699   4.969   0.853  0.2774  0.7518  0.1237
 4453TIP3   OH234849   0.675   4.874   1.787  0.7051  0.4645 -0.2430
 4453TIP3    H134850   0.724   4.807   1.740  1.1293  0.5220  0.1118
 4453TIP3    H234851   0.584   4.845   1.783  0.8449  0.0435 -0.3841
 4454TIP3   OH234852   1.378   1.745   3.538 -0.1508 -0.2098  0.1572
 4454TIP3    H134853   1.461   1.698   3.528  0.4922  0.8916  0.0747
 4454TIP3    H234854   1.392   1.803   3.613 -0.0614  1.5108 -1.1013
 4455TIP3   OH234855   2.099   2.290  12.816 -0.7453  0.3213  0.1911
 4455TIP3    H134856   2.115   2.220  12.753  0.5819  1.3603 -0.7058
 4455TIP3    H234857   2.003   2.297  12.821 -0.8798 -0.5679 -0.8076
 4456TIP3   OH234858   0.185   0.644  11.141  0.2460  0.6289 -0.0214
 4456TIP3    H134859   0.253   0.577  11.132 -0.1304  0.3694 -1.1511
 4456TIP3    H234860   0.231   0.721  11.174  0.9872  0.2786 -0.2206
 4457TIP3   OH234861   6.310   5.954   0.204  0.0895  0.5343  0.4671
 4457TIP3    H134862   6.303   5.860   0.188 -0.0938  0.6039  0.1329
 4457TIP3    H234863   6.359   5.961   0.286  0.5379  0.1620  0.2326
 4458TIP3   OH234864   0.393   1.266  15.605 -0.6222  0.5068  0.0085
 4458TIP3    H134865   0.323   1.323  15.637 -1.2646 -1.0481  1.5500
 4458TIP3    H234866   0.392   1.191  15.665  1.9240  0.1024 -0.3228
 4459TIP3   OH234867   3.128   0.999   5.781 -0.5838  0.1422  0.3237
 4459TIP3    H134868   3.176   1.058   5.839 -1.0500  1.2657 -0.3788
 4459TIP3    H234869   3.036   1.025   5.792 -0.7465 -0.1148 -0.3709
 4460TIP3   OH234870   4.226   4.246   0.797 -0.0687 -0.1505 -0.2316
 4460TIP3    H134871   4.236   4.156   0.829  0.8993 -0.4058 -1.1646
 4460TIP3    H234872   4.301   4.292   0.833  0.1862 -0.0662 -0.8576
 4461TIP3   OH234873   1.187   0.160  11.764  0.2579  0.4200  0.1108
 4461TIP3    H134874   1.197   0.255  11.761 -1.8206  0.6677 -0.8416
 4461TIP3    H234875   1.206   0.131  11.675  0.7416 -0.0531  0.3616
 4462TIP3   OH234876   4.514   3.488   5.283 -0.0771 -0.3296 -0.3744
 4462TIP3    H134877   4.474   3.525   5.204 -1.6036 -0.4942  0.2909
 4462TIP3    H234878   4.507   3.558   5.348  0.0131 -0.6423 -0.0261
 4463TIP3   OH234879   5.662   3.408  13.812  0.2836  0.1187 -0.5282
 4463TIP3    H134880   5.575   3.380  13.784  0.2115 -0.7887  0.5425
 4463TIP3    H234881   5.645   3.479  13.875  0.2807 -0.4264  0.0969
 4464TIP3   OH234882   5.616   2.954  14.110 -0.1881  0.0115  0.7100
 4464TIP3    H134883   5.704   2.951  14.145  0.4098  0.5193 -0.6755
 4464TIP3    H234884   5.566   2.892  14.163  1.0380 -0.4035  1.3929
 4465TIP3   OH234885   5.826   3.887  14.253 -0.2142 -0.0396  0.3119
 4465TIP3    H134886   5.837   3.907  14.160 -0.0066 -2.6067 -0.2915
 4465TIP3    H234887   5.734   3.907  14.271 -0.0046  1.4511 -0.1436
 4466TIP3   OH234888   1.166   6.147   0.864  0.2248 -0.5596 -0.1950
 4466TIP3    H134889   1.242   6.098   0.831 -0.4394 -1.2508 -0.7142
 4466TIP3    H234890   1.100   6.080   0.883 -1.1544  0.1998 -2.0928
 4467TIP3   OH234891   0.650   5.563  11.285  0.4981 -0.5006 -0.1250
 4467TIP3    H134892   0.585   5.498  11.312  0.9838 -0.6226  0.7680
 4467TIP3    H234893   0.657   5.552  11.190 -1.8895  0.5426 -0.4929
 4468TIP3   OH234894   0.923   1.643  12.224  0.1642 -0.3130 -0.6336
 4468TIP3    H134895   0.860   1.577  12.196  0.8591 -0.8613 -0.9560
 4468TIP3    H234896   0.873   1.704  12.277 -1.0246  0.2829 -2.3707
 4469TIP3   OH234897   0.597   3.211   3.928 -0.0040 -0.0022  0.0862
 4469TIP3    H134898   0.618   3.242   3.840 -0.1339  0.6770  0.2895
 4469TIP3    H234899   0.682   3.196   3.969  0.1057 -2.4891 -0.8698
 4470TIP3   OH234900   6.386   1.103  11.331  0.0373 -0.1037 -0.3900
 4470TIP3    H134901   6.344   1.021  11.355 -1.6368  0.5482 -0.9586
 4470TIP3    H234902   6.347   1.126  11.247  1.1655  0.8114 -0.6893
 4471TIP3   OH234903   5.421   0.688   0.024  0.1971 -0.0728  0.4239
 4471TIP3    H134904   5.443   0.607   0.070  2.1739  0.0951 -0.0941
 4471TIP3    H234905   5.428   0.665  -0.069  0.9669  0.7104  0.2695
 4472TIP3   OH234906   4.603   5.599   4.942 -0.1078  0.2492  0.5803
 4472TIP3    H134907   4.511   5.602   4.966 -0.4732 -0.9500 -0.5604
 4472TIP3    H234908   4.649   5.579   5.023 -1.2364 -3.1493  0.5487
 4473TIP3   OH234909   1.519   4.239  15.987 -0.0664  0.0293 -0.3632
 4473TIP3    H134910   1.578   4.165  16.005 -0.7075 -0.8091 -1.5879
 4473TIP3    H234911   1.441   4.219  16.039 -0.1641 -0.0504 -0.5415
 4474TIP3   OH234912   2.475   1.687  14.355  0.2728  0.1021  1.0523
 4474TIP3    H134913   2.544   1.622  14.345  0.4932  0.5196 -0.3290
 4474TIP3    H234914   2.438   1.697  14.267 -0.8437  0.6565  1.5621
 4475TIP3   OH234915   2.161   4.918   6.262  0.0730  0.2109  0.2418
 4475TIP3    H134916   2.081   4.952   6.302  0.0102 -0.1500  0.4212
 4475TIP3    H234917   2.204   4.870   6.332 -0.9479 -2.0073 -0.5732
 4476TIP3   OH234918   1.446   4.834   2.754  0.2163 -0.1366  0.3451
 4476TIP3    H134919   1.433   4.901   2.821  0.6575 -2.0637  2.4881
 4476TIP3    H234920   1.514   4.869   2.697 -0.0012  1.4744  1.0401
 4477TIP3   OH234921   6.809   3.978   5.289 -0.0062  0.2639 -0.1771
 4477TIP3    H134922   6.769   3.968   5.375 -0.2208 -0.1694 -0.3244
 4477TIP3    H234923   6.878   3.911   5.287  1.3556  1.6090  0.4302
 4478TIP3   OH234924   6.224   0.981   4.460  0.4587  0.1304  0.8995
 4478TIP3    H134925   6.258   1.014   4.377  0.0583  1.0088  1.0778
 4478TIP3    H234926   6.144   0.934   4.435  0.0094  0.9015  0.8354
 4479TIP3   OH234927   0.833   1.489  15.542  0.1286  0.3381 -0.1323
 4479TIP3    H134928   0.778   1.476  15.464 -1.6964  0.5312  1.0518
 4479TIP3    H234929   0.891   1.562  15.519  0.9717 -0.8245 -1.9584
 4480TIP3   OH234930   1.789   5.585  11.554  0.1904 -0.0422  0.2025
 4480TIP3    H134931   1.883   5.596  11.544  0.4163 -1.6164  0.3900
 4480TIP3    H234932   1.753   5.611  11.468  1.0496 -1.9175 -0.7775
 4481TIP3   OH234933   3.595   6.012   3.122  0.2519  0.0207 -0.1802
 4481TIP3    H134934   3.631   5.986   3.038  2.0124  0.5031  0.3811
 4481TIP3    H234935   3.606   5.935   3.178  1.7707  0.6280  0.3844
 4482TIP3   OH234936   2.674   2.211   4.710  0.7212  0.3585 -0.2493
 4482TIP3    H134937   2.649   2.178   4.797  0.7510 -0.1822 -0.4423
 4482TIP3    H234938   2.615   2.165   4.649  1.4583 -0.1222 -0.6105
 4483TIP3   OH234939   4.403   1.173   1.002  0.1727 -0.0883 -0.2059
 4483TIP3    H134940   4.340   1.124   0.951 -0.3530 -0.4235  0.7509
 4483TIP3    H234941   4.382   1.153   1.093  0.8704  0.7637  0.1612
 4484TIP3   OH234942   0.477   2.445  15.521  0.2006 -0.2639 -0.1707
 4484TIP3    H134943   0.452   2.536  15.505 -1.7675 -0.7432 -0.1211
 4484TIP3    H234944   0.551   2.429  15.462 -0.6611  0.8128 -1.5898
 4485TIP3   OH234945   5.099   0.654   4.262  0.0355  0.4837  0.3772
 4485TIP3    H134946   5.083   0.723   4.326  0.5573 -0.4988  1.6164
 4485TIP3    H234947   5.020   0.600   4.265 -0.0847  0.6302 -0.0746
 4486TIP3   OH234948   3.878   4.146   4.044 -0.1597 -0.4814 -0.3885
 4486TIP3    H134949   3.912   4.118   4.128  0.5164  0.0737 -0.4672
 4486TIP3    H234950   3.796   4.190   4.065  1.8849  3.3289  0.5295
 4487TIP3   OH234951   1.711   6.709   4.299 -0.1554 -0.3906 -0.3387
 4487TIP3    H134952   1.633   6.656   4.282 -0.2546 -1.0131  1.8091
 4487TIP3    H234953   1.681   6.779   4.357  0.4138  0.8643 -1.4838
 4488TIP3   OH234954   2.301   6.283   5.785  0.1328 -0.0217  0.5746
 4488TIP3    H134955   2.333   6.291   5.875 -1.0431  1.0790  0.9348
 4488TIP3    H234956   2.373   6.315   5.731  0.0952  1.3487  1.2874
 4489TIP3   OH234957   2.415   1.339  11.477 -0.4650  0.6936  0.1855
 4489TIP3    H134958   2.494   1.379  11.513  0.9470 -0.8218 -1.0754
 4489TIP3    H234959   2.389   1.396  11.405 -1.2780  1.8577  1.3610
 4490TIP3   OH234960   1.689   6.542   0.263  1.1223  0.5849 -0.1861
 4490TIP3    H134961   1.683   6.470   0.200  0.9541  0.8637 -0.4874
 4490TIP3    H234962   1.609   6.592   0.251 -0.0577 -0.6699  1.8842
 4491TIP3   OH234963   4.948   6.773  11.889  0.2973  0.0694 -0.1037
 4491TIP3    H134964   4.953   6.867  11.871 -2.0137  0.2204 -0.2349
 4491TIP3    H234965   4.895   6.737  11.817  1.3259 -1.3994 -0.1821
 4492TIP3   OH234966   0.448   3.376   0.596 -0.6991  0.4456 -0.1450
 4492TIP3    H134967   0.529   3.426   0.602  0.3447 -1.3397  2.0352
 4492TIP3    H234968   0.465   3.311   0.528 -0.4734  0.3800 -0.0270
 4493TIP3   OH234969   5.523   3.593   3.624 -0.5045 -0.5712  0.0622
 4493TIP3    H134970   5.465   3.669   3.625  0.6994  0.3834  0.0421
 4493TIP3    H234971   5.471   3.523   3.583 -1.1590  0.6252 -1.2342
 4494TIP3   OH234972   6.133   3.896   0.498 -0.7935 -0.0563  0.9127
 4494TIP3    H134973   6.176   3.877   0.415  0.1808  1.5227  1.0109
 4494TIP3    H234974   6.191   3.858   0.564 -0.1852  0.9677  0.9823
 4495TIP3   OH234975   4.044   3.427   4.282 -0.5151 -0.5345 -1.1160
 4495TIP3    H134976   4.048   3.388   4.195 -0.4310 -0.0674 -1.3229
 4495TIP3    H234977   3.982   3.371   4.330 -1.4247 -0.1483 -1.8052
 4496TIP3   OH234978   3.092   3.917   4.956  0.0825 -0.5611  0.1161
 4496TIP3    H134979   3.126   3.938   4.869 -0.3951 -0.1779  0.0175
 4496TIP3    H234980   3.141   3.973   5.016 -1.1282  0.8263 -0.1343
 4497TIP3   OH234981   2.004   3.470   2.362  0.1773  0.0234  0.1071
 4497TIP3    H134982   2.030   3.411   2.292 -0.7416 -1.0639  0.6566
 4497TIP3    H234983   1.973   3.413   2.433  0.7210  1.1069  1.2605
 4498TIP3   OH234984   0.073   5.628   1.621  0.2326  0.4644  0.0888
 4498TIP3    H134985   0.059   5.629   1.527 -1.5939  4.0029  0.2333
 4498TIP3    H234986   0.163   5.661   1.632  1.4105 -2.2952 -0.3341
 4499TIP3   OH234987   4.550   5.497   4.201  0.1062 -1.0831  0.4826
 4499TIP3    H134988   4.586   5.427   4.147  0.6294 -0.0809 -0.4910
 4499TIP3    H234989   4.626   5.549   4.227 -0.5852  1.7228 -2.5228
 4500TIP3   OH234990   2.921   5.676  14.770 -0.0034  0.5279  0.1394
 4500TIP3    H134991   2.876   5.602  14.809 -0.1921 -0.1209 -1.2513
 4500TIP3    H234992   2.860   5.709  14.704  1.1793  0.1596 -1.1849
 4501TIP3   OH234993   3.929   0.964   6.585  0.0014 -0.6340  0.3277
 4501TIP3    H134994   3.985   0.969   6.507 -0.5138  1.1222  0.0324
 4501TIP3    H234995   3.989   0.978   6.658  0.3062 -1.1884  0.1996
 4502TIP3   OH234996   2.288   3.512  14.980  0.7739  0.0481  0.1343
 4502TIP3    H134997   2.305   3.521  15.073  0.7737 -0.6196  0.2013
 4502TIP3    H234998   2.281   3.602  14.948 -0.8657  0.2940  1.0717
 4503TIP3   OH234999   2.991   1.279   3.929  0.0183 -0.0142  0.5792
 4503TIP3    H135000   2.984   1.331   3.849  0.6118  2.3734  1.9963
 4503TIP3    H235001   2.926   1.210   3.918 -0.4170  0.6577 -1.6320
 4504TIP3   OH235002   2.626   6.778  16.518 -0.0515  0.3846  0.1608
 4504TIP3    H135003   2.678   6.855  16.542 -1.4150  1.6207 -0.6801
 4504TIP3    H235004   2.665   6.707  16.567  1.0239  1.6849  1.2780
 4505TIP3   OH235005   2.562   5.478  15.347 -0.4954 -0.2606 -0.0111
 4505TIP3    H135006   2.481   5.433  15.321 -0.3484 -0.0432 -0.9014
 4505TIP3    H235007   2.567   5.467  15.441 -1.0311 -1.1697 -0.0797
 4506TIP3   OH235008   4.069   1.792  16.889  0.4241  0.0192 -0.2140
 4506TIP3    H135009   4.095   1.860  16.827  2.2153 -1.3078 -1.0210
 4506TIP3    H235010   4.152   1.757  16.921 -0.4190 -2.0333 -0.1153
 4507TIP3   OH235011   5.010   2.187   4.684  0.3984 -0.1658 -0.3735
 4507TIP3    H135012   4.933   2.149   4.727  0.1994 -0.9994 -1.4122
 4507TIP3    H235013   5.058   2.112   4.649  2.2148  0.2652  1.0468
 4508TIP3   OH235014   6.033   4.900  12.886  0.5416 -0.2793  0.1687
 4508TIP3    H135015   5.961   4.839  12.874 -1.4617  1.7069  1.3845
 4508TIP3    H235016   6.016   4.970  12.822  0.3282  1.0846  1.6469
 4509TIP3   OH235017   1.147   3.773   3.312 -0.2427  0.5738 -0.3543
 4509TIP3    H135018   1.241   3.789   3.314 -0.3270  1.0473  0.0905
 4509TIP3    H235019   1.111   3.846   3.261 -0.3925  0.5356 -0.3037
 4510TIP3   OH235020   4.576   6.068  16.464  0.2783 -0.2204 -0.4311
 4510TIP3    H135021   4.587   6.035  16.375 -0.4832 -2.2237  0.1523
 4510TIP3    H235022   4.664   6.091  16.493  0.8137 -1.3873 -1.0653
 4511TIP3   OH235023   1.345   2.736  14.179 -0.0025  0.3146 -0.1133
 4511TIP3    H135024   1.341   2.818  14.129  2.5642  1.1913  0.9851
 4511TIP3    H235025   1.422   2.691  14.145 -0.6833 -1.1147  0.1536
 4512TIP3   OH235026   4.616   4.975   5.735  0.5972  0.1293 -0.4985
 4512TIP3    H135027   4.652   5.039   5.796  0.7391  0.8708 -1.3344
 4512TIP3    H235028   4.687   4.914   5.719  0.1898 -0.7706  0.9832
 4513TIP3   OH235029   1.314   4.248   1.796  0.2521  0.2936 -0.2194
 4513TIP3    H135030   1.228   4.232   1.835 -0.7774  4.3923 -0.3457
 4513TIP3    H235031   1.299   4.243   1.702  0.3454  0.3358 -0.2365
 4514TIP3   OH235032   3.829   0.318   4.339  0.1680  0.0681 -0.0511
 4514TIP3    H135033   3.780   0.310   4.421  1.6952 -0.4561  0.8555
 4514TIP3    H235034   3.892   0.247   4.342  0.8357  0.5781 -1.2853
 4515TIP3   OH235035   2.055   5.696   5.573 -0.1974 -0.6998 -0.0898
 4515TIP3    H135036   1.999   5.673   5.647  0.2976  1.0876  0.9027
 4515TIP3    H235037   2.139   5.721   5.613 -0.0079  0.5879 -1.2135
 4516TIP3   OH235038   6.781   2.462   5.276  0.0586 -0.4186  0.5362
 4516TIP3    H135039   6.749   2.526   5.340 -0.3174 -1.6770  1.6518
 4516TIP3    H235040   6.766   2.377   5.318 -1.7347 -1.4008 -1.8963
 4517TIP3   OH235041   5.629   6.192  16.585  0.0285 -0.4321  0.0377
 4517TIP3    H135042   5.602   6.101  16.569 -0.3930 -0.2929 -0.0513
 4517TIP3    H235043   5.648   6.195  16.679 -1.7958 -0.1530  0.4362
 4518TIP3   OH235044   3.306   5.926   1.275  0.5314 -0.5228  0.1451
 4518TIP3    H135045   3.258   5.979   1.338  0.1574 -2.0058  1.1783
 4518TIP3    H235046   3.366   5.873   1.328  1.3921 -0.6296 -0.8969
 4519TIP3   OH235047   4.711   3.728  14.829  0.6215 -0.0028  0.5708
 4519TIP3    H135048   4.705   3.640  14.792  3.5687 -0.2616  0.4222
 4519TIP3    H235049   4.691   3.787  14.757 -0.3817 -0.5371  0.4051
 4520TIP3   OH235050   6.554   4.374   6.069 -0.1665 -0.4537  0.4953
 4520TIP3    H135051   6.513   4.438   6.127  0.7066 -0.6577  1.3617
 4520TIP3    H235052   6.516   4.290   6.094  0.6387 -0.6187  1.1766
 4521TIP3   OH235053   4.572   5.784  16.688  0.3500  0.4085 -0.3496
 4521TIP3    H135054   4.521   5.703  16.692 -2.1388  1.9081  0.9296
 4521TIP3    H235055   4.507   5.851  16.667  1.7058  2.5429  1.8272
 4522TIP3   OH235056   2.521   2.398  13.341  0.0944 -0.4725 -0.0832
 4522TIP3    H135057   2.608   2.418  13.307  0.7905 -0.4255  1.6310
 4522TIP3    H235058   2.487   2.482  13.373 -0.4911 -0.5319 -0.5226
 4523TIP3   OH235059   4.748   0.510  15.200 -0.4171 -0.0141 -0.2282
 4523TIP3    H135060   4.832   0.537  15.238  0.4836 -1.4749 -1.0759
 4523TIP3    H235061   4.768   0.428  15.155 -2.2011 -0.1041 -0.9149
 4524TIP3   OH235062   3.077   3.154  12.460  0.1084  0.0493  0.8659
 4524TIP3    H135063   3.133   3.100  12.516  0.3132  0.6797  1.2680
 4524TIP3    H235064   3.134   3.184  12.390  0.5861  1.6425  1.8978
 4525TIP3   OH235065   6.788   0.329  12.784  0.5039 -0.4042 -0.0567
 4525TIP3    H135066   6.758   0.420  12.778 -2.4973 -1.3508 -1.0717
 4525TIP3    H235067   6.728   0.287  12.845 -0.8606 -2.5622 -2.6374
 4526TIP3   OH235068   4.314   3.077  12.725 -0.1238 -0.4533  1.0229
 4526TIP3    H135069   4.282   3.033  12.804 -2.4420  0.4651  0.6605
 4526TIP3    H235070   4.240   3.078  12.665  1.0009  0.5951 -0.4432
 4527TIP3   OH235071   6.154   6.821   4.327 -0.0682 -0.6089  0.6188
 4527TIP3    H135072   6.093   6.868   4.384  0.0608 -1.8561  1.8328
 4527TIP3    H235073   6.237   6.823   4.374  0.2878 -0.8404  0.0138
 4528TIP3   OH235074   2.512   5.036   4.474  0.4368  0.5679  0.0920
 4528TIP3    H135075   2.490   5.129   4.465  0.2155  0.3919 -1.4896
 4528TIP3    H235076   2.531   5.025   4.567  0.1427  2.1229  0.3695
 4529TIP3   OH235077   5.977   4.451   4.774  0.0114 -0.0497 -0.1832
 4529TIP3    H135078   5.928   4.476   4.852 -2.4852 -0.1698 -1.6116
 4529TIP3    H235079   5.958   4.520   4.710  0.9201 -0.6246 -1.1094
 4530TIP3   OH235080   5.753   3.402   0.835  0.0382 -0.3951 -0.8097
 4530TIP3    H135081   5.727   3.481   0.787  1.1343 -0.6687 -1.9167
 4530TIP3    H235082   5.724   3.330   0.779  1.2995 -0.7177 -1.0831
 4531TIP3   OH235083   5.057   3.355   1.779 -0.3315 -0.0676 -0.4955
 4531TIP3    H135084   5.102   3.348   1.863 -0.3002  1.1514 -0.3986
 4531TIP3    H235085   4.964   3.354   1.801 -0.3187  0.9729 -0.3757
 4532TIP3   OH235086   5.727   1.441  11.466  0.0781  0.2922  0.0717
 4532TIP3    H135087   5.716   1.493  11.545  0.5259  1.7780 -0.7914
 4532TIP3    H235088   5.822   1.431  11.457  0.0073 -2.8428  1.5099
 4533TIP3   OH235089   0.806   6.062   3.843  0.5507 -1.1490  0.5377
 4533TIP3    H135090   0.809   5.999   3.771  2.1041 -0.1332 -0.3401
 4533TIP3    H235091   0.877   6.123   3.825 -0.6941  0.6962  1.5348
 4534TIP3   OH235092   2.112   4.421   4.285 -0.1824  0.6755  0.1687
 4534TIP3    H135093   2.122   4.472   4.204 -0.8846 -1.1137 -1.1112
 4534TIP3    H235094   2.124   4.330   4.257  0.2081  0.0576  2.2200
 4535TIP3   OH235095   2.532   2.139   2.834  0.0837 -0.4363 -0.7440
 4535TIP3    H135096   2.481   2.203   2.785  0.2236 -1.3690 -2.1879
 4535TIP3    H235097   2.468   2.075   2.865  0.1928 -0.8421 -1.3331
 4536TIP3   OH235098   4.414   5.938  14.399 -0.2518 -0.1782 -0.6630
 4536TIP3    H135099   4.366   5.979  14.471  1.0809 -0.9884  0.7496
 4536TIP3    H235100   4.355   5.869  14.368 -2.2444  2.2162 -2.6454
 4537TIP3   OH235101   0.624   3.633   3.968  0.1290 -0.7967 -0.4772
 4537TIP3    H135102   0.576   3.711   3.941  0.8554 -0.3969 -0.6288
 4537TIP3    H235103   0.614   3.572   3.894  1.2350 -0.0932 -1.2335
 4538TIP3   OH235104   1.172   1.285  16.797  0.0580 -0.2045  0.1642
 4538TIP3    H135105   1.241   1.278  16.863 -0.2179  0.1283  0.4891
 4538TIP3    H235106   1.212   1.334  16.725  0.5172 -0.9937 -0.1315
 4539TIP3   OH235107   1.549   2.738  14.802 -0.0508  0.1813 -0.1926
 4539TIP3    H135108   1.474   2.767  14.749 -2.2231 -0.2345  2.4503
 4539TIP3    H235109   1.540   2.642  14.805  0.6754  0.1164  0.0560
 4540TIP3   OH235110   1.749   4.790  13.237  0.5357 -0.7972  0.2532
 4540TIP3    H135111   1.800   4.839  13.172 -1.3593 -0.3819 -1.0242
 4540TIP3    H235112   1.770   4.698  13.220  0.4499 -0.6641 -0.6402
 4541TIP3   OH235113   5.126   2.478  14.796 -0.5379 -0.3785  0.0612
 4541TIP3    H135114   5.210   2.445  14.764  0.0091  1.1768 -0.2143
 4541TIP3    H235115   5.066   2.404  14.789  0.4188 -1.0523 -1.2863
 4542TIP3   OH235116   6.750   5.623  14.533 -0.0995 -0.0533  0.5930
 4542TIP3    H135117   6.672   5.661  14.574 -1.5033 -0.1407 -1.7756
 4542TIP3    H235118   6.767   5.679  14.458  1.2622 -0.8812  0.2461
 4543TIP3   OH235119   3.567   0.563   2.192 -0.3727 -0.3808 -0.0909
 4543TIP3    H135120   3.526   0.504   2.256 -0.5673  0.1230  0.2487
 4543TIP3    H235121   3.637   0.510   2.153  0.5299 -0.3265  1.3890
 4544TIP3   OH235122   3.017   1.071   6.442  0.4289 -0.1690 -0.3752
 4544TIP3    H135123   3.031   1.147   6.499  2.7295  0.5685 -1.7804
 4544TIP3    H235124   3.001   0.998   6.501  2.3566  0.6301  1.2368
 4545TIP3   OH235125   5.488   0.811  14.114 -0.0822  0.1600  0.0936
 4545TIP3    H135126   5.524   0.892  14.080 -2.9196  2.1974  1.5694
 4545TIP3    H235127   5.541   0.742  14.073  2.1750  2.6709 -1.5318
 4546TIP3   OH235128   2.963   3.310   4.036  0.0651 -0.5755  0.5244
 4546TIP3    H135129   3.038   3.257   4.009 -0.6234 -2.0412  1.3675
 4546TIP3    H235130   2.957   3.297   4.131 -0.3913  0.6972  0.6958
 4547TIP3   OH235131   6.648   6.705  14.923 -0.2398 -0.5648 -0.7021
 4547TIP3    H135132   6.642   6.735  15.014 -2.5291 -1.8166 -0.3688
 4547TIP3    H235133   6.611   6.616  14.924 -0.7363 -0.4546 -2.9186
 4548TIP3   OH235134   3.719   1.389   1.634  0.4201  0.3527 -0.3187
 4548TIP3    H135135   3.753   1.356   1.550  0.8890  0.5719 -0.2156
 4548TIP3    H235136   3.789   1.443   1.669 -0.0334  0.8078 -0.0979
 4549TIP3   OH235137   2.735   0.311   1.225  0.0531  0.1444 -0.0998
 4549TIP3    H135138   2.701   0.400   1.232 -0.0320  0.1214 -0.2138
 4549TIP3    H235139   2.780   0.309   1.141  1.3840  0.5236  0.5874
 4550TIP3   OH235140   5.307   2.043   5.844  0.4471  0.3688  0.3469
 4550TIP3    H135141   5.271   2.065   5.930 -1.2460  0.0305 -0.2439
 4550TIP3    H235142   5.378   1.981   5.864 -0.1336  0.0383  1.4786
 4551TIP3   OH235143   1.905   2.533  16.092 -0.0917  0.1022  0.0124
 4551TIP3    H135144   1.926   2.526  16.186 -1.0831  0.3821  0.2716
 4551TIP3    H235145   1.975   2.589  16.057  0.4994 -0.3062  0.5047
 4552TIP3   OH235146   1.719   6.556  10.911 -0.5133  0.2189  0.0108
 4552TIP3    H135147   1.758   6.612  10.844 -1.0236 -0.2117 -0.6609
 4552TIP3    H235148   1.625   6.569  10.902 -0.6074 -0.2360  0.2904
 4553TIP3   OH235149   4.444   6.149  12.192 -0.4290 -0.2367 -0.0836
 4553TIP3    H135150   4.389   6.222  12.222  2.1669  1.2599  1.4301
 4553TIP3    H235151   4.447   6.089  12.267  1.7093  0.8376  0.7840
 4554TIP3   OH235152   2.525   4.825   3.735  0.0038 -1.3181  0.0370
 4554TIP3    H135153   2.557   4.851   3.649  3.6937 -2.6728  0.8252
 4554TIP3    H235154   2.538   4.903   3.790  1.0642 -1.5418  0.1190
 4555TIP3   OH235155   0.236   0.800   4.160 -0.1559 -0.0394  0.1256
 4555TIP3    H135156   0.228   0.807   4.065  1.9920  4.7341  0.0161
 4555TIP3    H235157   0.324   0.766   4.174 -0.0765  0.2618  0.3726
 4556TIP3   OH235158   2.806   2.129  12.098 -0.0409  0.4834 -0.2720
 4556TIP3    H135159   2.772   2.046  12.132  3.1835 -0.4213  1.1367
 4556TIP3    H235160   2.746   2.153  12.028 -3.0434 -1.2431  1.5032
 4557TIP3   OH235161   4.834   0.502   3.996 -0.0930  0.3991  0.0716
 4557TIP3    H135162   4.749   0.489   4.038 -1.1108  1.1361 -1.6613
 4557TIP3    H235163   4.815   0.560   3.922  1.9609  0.7254 -0.2437
 4558TIP3   OH235164   3.942   2.467  15.831 -0.0421  0.2265 -0.0033
 4558TIP3    H135165   3.912   2.393  15.884  0.5808 -0.2305 -0.2797
 4558TIP3    H235166   3.946   2.433  15.742  1.0793  0.3249 -0.0108
 4559TIP3   OH235167   0.711   3.269   1.067  0.3625 -0.1455 -0.7355
 4559TIP3    H135168   0.638   3.307   1.018  1.2916  1.8070 -0.6857
 4559TIP3    H235169   0.714   3.320   1.148  1.4190 -0.5851 -0.4897
 4560TIP3   OH235170   5.461   5.982  13.761 -0.2722 -0.4386 -0.0943
 4560TIP3    H135171   5.383   6.022  13.800 -0.6200 -0.7272 -0.4885
 4560TIP3    H235172   5.427   5.911  13.707  0.3643 -1.6242  1.0011
 4561TIP3   OH235173   5.024   5.803   1.909 -0.2475 -0.4613 -0.3819
 4561TIP3    H135174   4.939   5.774   1.878 -1.2266  0.5907  1.1581
 4561TIP3    H235175   5.063   5.726   1.950 -0.8175 -0.7547 -0.3964
 4562TIP3   OH235176   0.550   3.093  16.095  0.1528  0.1757  0.2402
 4562TIP3    H135177   0.521   3.115  16.184  2.1697 -1.7763  1.4900
 4562TIP3    H235178   0.489   3.025  16.066 -0.7281  1.0685 -0.0515
 4563TIP3   OH235179   3.200   0.632   5.336 -0.2523  0.5012  0.3338
 4563TIP3    H135180   3.155   0.716   5.336  1.0069  1.2078  1.0726
 4563TIP3    H235181   3.291   0.653   5.318  0.2147 -0.6309  1.1957
 4564TIP3   OH235182   2.939   1.441  16.658  0.1426  0.9290 -0.1482
 4564TIP3    H135183   2.919   1.352  16.684  0.8594  0.9978  0.6738
 4564TIP3    H235184   2.923   1.494  16.737  2.6583  1.0973  0.3298
 4565TIP3   OH235185   0.427   6.353   1.953  0.2091  0.9241 -0.0306
 4565TIP3    H135186   0.396   6.304   1.877  0.7121  0.4439  0.0709
 4565TIP3    H235187   0.379   6.436   1.949 -0.9653  0.2668  0.0261
 4566TIP3   OH235188   5.251   4.494  14.775 -0.7678 -0.4603  0.2851
 4566TIP3    H135189   5.307   4.420  14.798 -1.5607 -1.0229  0.4584
 4566TIP3    H235190   5.239   4.542  14.857  0.2050  0.1868  0.0564
 4567TIP3   OH235191   4.553   2.838   1.843 -0.2621 -0.5705 -0.4562
 4567TIP3    H135192   4.501   2.914   1.816 -1.0405 -0.9161  0.0546
 4567TIP3    H235193   4.505   2.801   1.917 -0.6597 -2.4270 -1.6099
 4568TIP3   OH235194   1.149   1.866   2.614  0.3826  0.9221 -0.0041
 4568TIP3    H135195   1.110   1.823   2.538  3.1042 -0.2992 -0.8479
 4568TIP3    H235196   1.103   1.829   2.689 -0.0833 -0.4294 -0.9215
 4569TIP3   OH235197   2.345   0.452   1.066  0.1009  0.4623 -0.3801
 4569TIP3    H135198   2.281   0.522   1.080 -1.8290 -1.0591 -1.2654
 4569TIP3    H235199   2.372   0.426   1.154 -0.1784  1.3734 -0.0090
 4570TIP3   OH235200   1.880   1.487  12.638 -0.3157 -0.4839 -0.1682
 4570TIP3    H135201   1.920   1.538  12.709  1.3765 -1.4050 -0.4135
 4570TIP3    H235202   1.951   1.432  12.605 -1.4904 -1.2588 -1.5042
 4571TIP3   OH235203   5.983   0.528   4.801  0.2600  0.2053 -0.4827
 4571TIP3    H135204   5.933   0.606   4.825  1.2333  0.4545  0.8577
 4571TIP3    H235205   6.064   0.534   4.853  0.4740 -1.5547 -0.5402
 4572TIP3   OH235206   6.307   1.733  16.408  0.1583 -0.4963 -0.2266
 4572TIP3    H135207   6.317   1.827  16.426  2.2940 -1.1997  3.2135
 4572TIP3    H235208   6.394   1.704  16.381 -0.4018 -1.5464 -0.9593
 4573TIP3   OH235209   1.181   1.857  12.038  0.1985 -0.4606 -0.3472
 4573TIP3    H135210   1.153   1.932  12.090  0.0419 -0.4992 -0.3733
 4573TIP3    H235211   1.252   1.890  11.983  0.2753 -0.3869 -0.2030
 4574TIP3   OH235212   5.680   3.436   5.219  0.0681  0.4383  0.2967
 4574TIP3    H135213   5.681   3.350   5.260 -0.3196  0.2313 -0.1206
 4574TIP3    H235214   5.773   3.461   5.215  0.4283 -0.9753 -1.6570
 4575TIP3   OH235215   2.026   0.170   5.351  0.2835  0.4831  0.2228
 4575TIP3    H135216   1.990   0.093   5.309 -1.1479  1.7573 -1.0061
 4575TIP3    H235217   2.018   0.240   5.286  0.2915  1.9699  1.7314
 4576TIP3   OH235218   1.765   5.863  11.697 -0.0515 -0.3542 -0.2659
 4576TIP3    H135219   1.837   5.821  11.650  1.2650  0.6191  0.8261
 4576TIP3    H235220   1.800   5.947  11.726 -2.2385  1.0216 -1.3466
 4577TIP3   OH235221   0.604   1.097   0.058 -0.4438  0.6178  0.2301
 4577TIP3    H135222   0.682   1.138   0.020  0.1005  1.8324  2.5368
 4577TIP3    H235223   0.547   1.080  -0.018  1.6349  0.5184 -1.4128
 4578TIP3   OH235224   0.957   4.144   0.494  0.4329  0.2191  0.1956
 4578TIP3    H135225   0.910   4.064   0.471  1.5873 -0.5498  0.4420
 4578TIP3    H235226   0.960   4.143   0.590  0.0713  0.7949  0.2176
 4579TIP3   OH235227   2.235   3.653   2.221 -0.4786  0.3265  0.3193
 4579TIP3    H135228   2.174   3.589   2.260  0.1691 -0.3801  0.1981
 4579TIP3    H235229   2.305   3.599   2.184  1.6060  1.1891  2.6984
 4580TIP3   OH235230   3.759   0.394   0.025  0.5726  0.7541  0.3349
 4580TIP3    H135231   3.735   0.398  -0.067  0.5850  0.8568  0.3368
 4580TIP3    H235232   3.761   0.486   0.054  1.0661  0.7542  0.3102
 4581TIP3   OH235233   5.509   3.642   4.149  0.7085 -0.2773 -0.0540
 4581TIP3    H135234   5.567   3.658   4.074 -0.2502  1.1755 -0.5339
 4581TIP3    H235235   5.430   3.692   4.129 -0.6517 -2.0371  0.6851
 4582TIP3   OH235236   3.019   1.201  12.882  0.3434 -0.2275  0.4800
 4582TIP3    H135237   3.065   1.284  12.897  3.2650 -1.7464  0.5948
 4582TIP3    H235238   3.088   1.140  12.855 -1.8995 -2.3151 -0.9088
 4583TIP3   OH235239   2.376   2.942  16.569  0.5332  0.2042  0.1140
 4583TIP3    H135240   2.373   2.849  16.590  0.1763  0.8839  3.6401
 4583TIP3    H235241   2.290   2.962  16.532  0.0166 -0.5733  0.8727
 4584TIP3   OH235242   3.317   0.687  15.154  0.0359  0.3387  0.3033
 4584TIP3    H135243   3.385   0.753  15.171  0.1906  0.5020 -0.8698
 4584TIP3    H235244   3.235   0.737  15.154  0.0974  0.4426 -0.0310
 4585TIP3   OH235245   0.454   6.175   4.192  0.1218  0.1811 -0.1904
 4585TIP3    H135246   0.466   6.241   4.260  2.5682 -0.5391  0.1834
 4585TIP3    H235247   0.522   6.194   4.127  0.0111 -1.1353 -0.7410
 4586TIP3   OH235248   6.226   1.337   4.463  0.6686 -0.0071  0.1453
 4586TIP3    H135249   6.181   1.268   4.412 -0.2661  0.5695  0.1584
 4586TIP3    H235250   6.270   1.290   4.533  0.7297 -0.6726 -0.3238
 4587TIP3   OH235251   4.657   3.927  11.521 -0.0553 -0.5367 -0.1356
 4587TIP3    H135252   4.736   3.969  11.488 -2.1153  1.5577 -2.8173
 4587TIP3    H235253   4.632   3.865  11.452 -0.5181 -1.5723  0.9194
 4588TIP3   OH235254   1.036   4.459  12.905  0.9743  0.0569 -0.0566
 4588TIP3    H135255   1.054   4.536  12.851  0.5133  0.1409 -0.0957
 4588TIP3    H235256   1.088   4.389  12.866  2.0689  0.5527  0.5015
 4589TIP3   OH235257   1.362   6.390   5.940 -0.1536  0.2271  0.3424
 4589TIP3    H135258   1.316   6.310   5.916 -0.5043  0.5892 -0.2096
 4589TIP3    H235259   1.384   6.378   6.032  0.9959 -1.0807 -0.0679
 4590TIP3   OH235260   3.605   6.425  11.546 -1.1188  0.7059  0.3125
 4590TIP3    H135261   3.693   6.461  11.559 -1.2347  0.9907  0.3242
 4590TIP3    H235262   3.607   6.340  11.590  0.0421 -0.6367 -2.1787
 4591TIP3   OH235263   5.528   4.197  17.146  0.0791  0.4283 -0.0936
 4591TIP3    H135264   5.542   4.137  17.218 -1.9094 -0.2001 -0.1779
 4591TIP3    H235265   5.573   4.277  17.172 -1.1254  0.4397  2.1629
 4592TIP3   OH235266   0.183   1.006   0.200  0.2509  0.0401  0.2118
 4592TIP3    H135267   0.124   0.950   0.250 -1.5714  0.5477 -1.2690
 4592TIP3    H235268   0.251   0.947   0.168 -0.4773 -0.9353  0.4026
 4593TIP3   OH235269   1.952   3.844   2.547 -0.2104  0.3582 -0.1858
 4593TIP3    H135270   1.864   3.877   2.527 -0.0576  0.2228 -1.1437
 4593TIP3    H235271   1.991   3.826   2.461  0.9964  1.0499  0.1874
 4594TIP3   OH235272   0.875   2.195   5.405  0.0232  0.2282  0.2162
 4594TIP3    H135273   0.818   2.269   5.422  3.0195  3.6072 -2.7468
 4594TIP3    H235274   0.956   2.215   5.453  0.3251 -2.2731  0.9465
 4595TIP3   OH235275   5.821   6.526   5.070 -0.5850 -0.0287 -0.1017
 4595TIP3    H135276   5.734   6.516   5.110 -0.6523 -0.1055 -0.2631
 4595TIP3    H235277   5.803   6.522   4.976 -0.2520 -1.3203 -0.1253
 4596TIP3   OH235278   3.003   1.137  13.142  0.1445 -0.0937 -0.0338
 4596TIP3    H135279   3.004   1.143  13.046  3.4227 -2.7023 -0.3464
 4596TIP3    H235280   3.043   1.218  13.172  0.7341 -0.0086 -1.0041
 4597TIP3   OH235281   0.004   3.641   2.055  0.6783 -0.1937 -0.4980
 4597TIP3    H135282  -0.022   3.552   2.032  1.3255 -0.3554 -0.6229
 4597TIP3    H235283  -0.024   3.695   1.981 -1.1204 -0.0368  0.2564
 4598TIP3   OH235284   6.466   6.157   4.415  0.1630  0.2083 -0.0198
 4598TIP3    H135285   6.383   6.111   4.407 -0.7462  1.1382  2.7861
 4598TIP3    H235286   6.533   6.088   4.408 -0.8315 -0.6558 -1.5283
 4599TIP3   OH235287   1.316   2.764  10.961  0.0632  0.1636  0.2563
 4599TIP3    H135288   1.411   2.770  10.969 -0.1257  1.0954  3.1145
 4599TIP3    H235289   1.296   2.672  10.980  0.2841  0.6397  3.4452
 4600TIP3   OH235290   0.548   4.506  15.733 -0.0894 -0.2004 -0.4528
 4600TIP3    H135291   0.631   4.553  15.725  0.0359  0.1723  2.0950
 4600TIP3    H235292   0.486   4.571  15.765 -0.7178 -1.0278  0.0720
 4601TIP3   OH235293   5.113   6.081  15.808  0.1108  0.5206 -0.3501
 4601TIP3    H135294   5.127   6.162  15.858 -0.4413 -0.2911  1.1823
 4601TIP3    H235295   5.029   6.094  15.763  0.5148  1.1788 -0.9423
 4602TIP3   OH235296   3.476   3.974   0.489  0.4389  0.5462 -0.6358
 4602TIP3    H135297   3.523   4.032   0.429  0.3303 -0.5343 -1.8073
 4602TIP3    H235298   3.415   3.926   0.433  0.2189 -0.3757  0.3728
 4603TIP3   OH235299   0.728   1.542  16.554  0.5435  0.0498  0.3856
 4603TIP3    H135300   0.804   1.499  16.514  0.2396 -1.1135  1.0193
 4603TIP3    H235301   0.666   1.554  16.482  0.8532 -0.0649  0.0983
 4604TIP3   OH235302   2.403   2.564  12.571  0.2136  0.0836 -0.3517
 4604TIP3    H135303   2.498   2.553  12.564  0.2526 -0.3012  0.6477
 4604TIP3    H235304   2.382   2.538  12.661 -0.9707 -0.8101 -0.8557
 4605TIP3   OH235305   5.636   0.774  14.330  0.1090 -0.0391 -0.5344
 4605TIP3    H135306   5.652   0.858  14.375  0.1988 -0.9958  1.3363
 4605TIP3    H235307   5.563   0.792  14.271 -0.6262  1.1021  0.6508
 4606TIP3   OH235308   5.350   6.076  11.453  0.2525 -0.7324  0.5214
 4606TIP3    H135309   5.372   6.042  11.366 -0.0392  0.4817 -0.0574
 4606TIP3    H235310   5.257   6.099  11.447  0.4471  0.1804  0.8590
 4607TIP3   OH235311   2.747   4.943   2.090 -0.0437  0.5852 -0.7458
 4607TIP3    H135312   2.699   4.874   2.136  0.2067  0.1219 -1.1641
 4607TIP3    H235313   2.771   4.904   2.006 -0.3383  1.3587 -1.2018
 4608TIP3   OH235314   2.137   0.037  15.514 -0.0943  0.1257  0.2612
 4608TIP3    H135315   2.100   0.124  15.526 -0.9407 -0.4985  2.6764
 4608TIP3    H235316   2.089  -0.018  15.575 -0.5682 -2.3810 -2.1870
 4609TIP3   OH235317   3.590   4.992   4.894  0.3966 -0.1642  0.2234
 4609TIP3    H135318   3.569   5.056   4.962  1.7017 -0.8250  1.2876
 4609TIP3    H235319   3.624   5.045   4.822  0.7962  0.4111  0.8220
 4610TIP3   OH235320   1.757   5.807  14.060 -0.6428  0.2523 -0.9789
 4610TIP3    H135321   1.723   5.813  13.970  0.1262  1.3173 -1.2198
 4610TIP3    H235322   1.691   5.755  14.106 -0.2577 -1.7320 -2.5276
 4611TIP3   OH235323   4.902   4.948  16.765 -0.2734 -0.8388 -0.0938
 4611TIP3    H135324   4.920   4.926  16.857  0.3831  1.0051  0.2729
 4611TIP3    H235325   4.816   4.990  16.768 -0.3951 -1.0664 -0.3779
 4612TIP3   OH235326   1.103   3.094  16.609  0.0526 -0.8339 -0.3762
 4612TIP3    H135327   1.017   3.130  16.586  0.8216  0.4755 -1.3293
 4612TIP3    H235328   1.112   3.110  16.702  0.2183  1.1723 -0.7087
 4613TIP3   OH235329   5.091   6.824   6.440 -0.3998 -0.2749  0.5344
 4613TIP3    H135330   5.103   6.744   6.390 -0.2774  0.3206 -0.4260
 4613TIP3    H235331   5.160   6.823   6.506  1.7740  0.5860 -1.5661
 4614TIP3   OH235332   1.350   2.743   0.725  0.0488  0.1205 -0.0649
 4614TIP3    H135333   1.366   2.687   0.649 -0.9479 -2.0195  1.2249
 4614TIP3    H235334   1.426   2.728   0.782  0.3210  0.9827 -0.1814
 4615TIP3   OH235335   2.598   2.395  16.651  0.4133 -0.1149  0.2933
 4615TIP3    H135336   2.677   2.372  16.603  1.0609  1.0901  0.7637
 4615TIP3    H235337   2.559   2.310  16.674  1.9573 -0.7357  0.7189
 4616TIP3   OH235338   6.355   3.960   3.154  0.1256  0.6088 -0.5274
 4616TIP3    H135339   6.419   3.973   3.083  0.1941  1.9243 -0.2355
 4616TIP3    H235340   6.408   3.960   3.234 -0.3616  3.6185 -0.1031
 4617TIP3   OH235341   6.788   1.495  11.021 -0.7900  0.5543  0.0249
 4617TIP3    H135342   6.780   1.402  11.042 -1.2563  0.6896  0.4737
 4617TIP3    H235343   6.750   1.504  10.934  2.0649 -0.1834 -1.3772
 4618TIP3   OH235344   0.846   3.211   0.331  0.2740 -0.5066  0.1848
 4618TIP3    H135345   0.901   3.132   0.329 -0.7804 -1.2792  0.6924
 4618TIP3    H235346   0.898   3.274   0.381  1.3717 -0.6756 -0.6852
 4619TIP3   OH235347   4.712   6.659  15.224 -0.1515  0.3327 -0.3605
 4619TIP3    H135348   4.646   6.601  15.261 -0.1528 -0.1574 -1.0913
 4619TIP3    H235349   4.662   6.726  15.177 -0.1427 -0.1541 -1.0839
 4620TIP3   OH235350   3.668   0.224  16.635  0.8177 -0.3422 -0.1795
 4620TIP3    H135351   3.672   0.318  16.657  0.3453 -0.1434 -0.9266
 4620TIP3    H235352   3.757   0.203  16.606  0.9188 -0.1245 -0.0401
 4621TIP3   OH235353   2.454   3.832   5.253 -0.0488  0.0924  0.0352
 4621TIP3    H135354   2.531   3.851   5.307 -0.5019  0.3045  0.6168
 4621TIP3    H235355   2.491   3.800   5.170  0.6462 -1.4676  0.9004
 4622TIP3   OH235356   0.598   1.124  16.812  0.1275  0.1900 -0.1267
 4622TIP3    H135357   0.612   1.125  16.907 -0.9335 -0.7468  0.0666
 4622TIP3    H235358   0.654   1.053  16.781  0.3988  0.4302 -0.1815
 4623TIP3   OH235359   6.091   4.754   4.467  0.1015  0.5963 -0.2849
 4623TIP3    H135360   6.039   4.685   4.506  1.1278 -0.3229 -0.5043
 4623TIP3    H235361   6.061   4.835   4.509 -1.5314  0.1095 -0.4655
 4624TIP3   OH235362   2.547   0.194   1.441 -0.4223  0.4203 -0.1236
 4624TIP3    H135363   2.512   0.274   1.402 -0.0048  1.3818  1.4001
 4624TIP3    H235364   2.621   0.170   1.385 -0.6544  1.0147 -0.6913
 4625TIP3   OH235365   0.403   3.162   2.847  0.3181  0.3309  0.5939
 4625TIP3    H135366   0.459   3.099   2.892  1.0122  0.9522  0.6234
 4625TIP3    H235367   0.441   3.247   2.868 -0.8791  0.8010  0.9395
 4626TIP3   OH235368   3.676   4.467   2.520 -0.1502  0.2511  0.1665
 4626TIP3    H135369   3.635   4.511   2.446 -0.5298 -0.7685 -0.2423
 4626TIP3    H235370   3.769   4.463   2.497 -0.5804 -2.3805 -1.5292
 4627TIP3   OH235371   3.890   3.932   3.142  0.2241 -0.3322  0.1523
 4627TIP3    H135372   3.963   3.929   3.080 -0.4927 -0.2212 -0.7073
 4627TIP3    H235373   3.833   3.859   3.116 -0.5459  0.2830  0.0856
 4628TIP3   OH235374   2.515   3.912   1.238  0.0008  0.2915 -0.1128
 4628TIP3    H135375   2.424   3.915   1.269 -0.0075 -0.2380 -0.0739
 4628TIP3    H235376   2.508   3.916   1.143  0.0245  1.9168 -0.0833
 4629TIP3   OH235377   1.174   3.795   1.048  0.1301 -0.1618 -0.6082
 4629TIP3    H135378   1.151   3.862   1.112 -0.5121 -0.7135 -0.2427
 4629TIP3    H235379   1.260   3.764   1.077 -1.2488 -2.2476  1.6390
 4630TIP3   OH235380   0.563   1.532  15.075  0.1827 -0.2741  1.1153
 4630TIP3    H135381   0.515   1.451  15.092  0.0748 -0.4668 -0.0615
 4630TIP3    H235382   0.499   1.601  15.090 -0.7087 -0.5492 -1.0669
 4631TIP3   OH235383   0.804   0.485  15.466  0.0539 -0.0215 -0.3290
 4631TIP3    H135384   0.807   0.570  15.423 -0.3599  0.2672  0.2013
 4631TIP3    H235385   0.711   0.468  15.480  0.1954  0.1742  0.9812
 4632TIP3   OH235386   4.595   2.961  13.095 -0.4583  0.4686 -0.8235
 4632TIP3    H135387   4.594   2.865  13.098  0.4723  0.4632  0.1422
 4632TIP3    H235388   4.620   2.987  13.184 -2.8549  1.6874 -0.4230
 4633TIP3   OH235389   5.025   5.864   5.427 -0.3153  0.2726 -0.1176
 4633TIP3    H135390   5.024   5.855   5.522 -1.2295  0.3381 -0.1102
 4633TIP3    H235391   4.954   5.924   5.408 -1.2945 -1.0836 -0.9587
 4634TIP3   OH235392   3.954   1.595  15.108 -0.1256  0.6529 -0.1989
 4634TIP3    H135393   3.877   1.650  15.094 -0.7719 -0.2600 -0.3704
 4634TIP3    H235394   3.926   1.532  15.174  0.2235 -0.1430 -0.7893
 4635TIP3   OH235395   6.075   3.083   0.935 -0.3404  0.0015  0.7632
 4635TIP3    H135396   6.012   3.019   0.903  1.7160 -1.4182 -0.7827
 4635TIP3    H235397   6.112   3.122   0.855  0.8901  0.6031  1.5911
 4636TIP3   OH235398   0.843   1.245  15.964 -0.0386  0.1657  0.5590
 4636TIP3    H135399   0.826   1.339  15.973  1.2667  0.6210 -1.2667
 4636TIP3    H235400   0.760   1.210  15.930 -0.1833  0.8477  0.1818
 4637TIP3   OH235401   4.672   1.151   4.906  0.2244  0.3325 -0.3713
 4637TIP3    H135402   4.682   1.058   4.886  0.3713  0.3417 -0.3479
 4637TIP3    H235403   4.687   1.156   5.001 -0.1624  0.3289 -0.3117
 4638TIP3   OH235404   0.403   1.917   2.630  0.3473 -0.1827 -0.4381
 4638TIP3    H135405   0.378   1.826   2.616  1.6363 -0.5207 -0.7212
 4638TIP3    H235406   0.442   1.944   2.547  0.9112  0.2939 -0.0281
 4639TIP3   OH235407   1.766   6.658  16.995 -0.2359 -0.5960  0.0802
 4639TIP3    H135408   1.771   6.743  17.038 -1.8343 -0.9828  1.1313
 4639TIP3    H235409   1.772   6.678  16.902  1.9745  0.3919  0.3740
 4640TIP3   OH235410   6.244   3.406  12.913 -0.0118  0.0695 -0.5370
 4640TIP3    H135411   6.158   3.380  12.944 -0.3063 -2.4847 -3.0786
 4640TIP3    H235412   6.268   3.481  12.968 -4.4497  1.9226 -0.6986
 4641TIP3   OH235413   1.489   1.443   0.354 -0.3294 -0.3422 -0.3468
 4641TIP3    H135414   1.407   1.433   0.305 -1.1099  0.2704  0.8024
 4641TIP3    H235415   1.546   1.375   0.318 -1.1186 -0.3894 -1.5874
 4642TIP3   OH235416   4.364   2.187   4.958 -0.3007 -0.2160 -0.3862
 4642TIP3    H135417   4.423   2.214   5.028 -0.0718 -0.8911 -0.3131
 4642TIP3    H235418   4.420   2.178   4.881 -0.7541  1.8074 -1.0133
 4643TIP3   OH235419   0.516   3.767  12.008  0.3384  0.3364  0.0544
 4643TIP3    H135420   0.599   3.813  12.000  0.0425  1.0384  0.8804
 4643TIP3    H235421   0.451   3.826  11.970 -0.1616  1.0179  1.8556
 4644TIP3   OH235422   3.558   0.833   5.938  0.3551 -0.7918  0.3350
 4644TIP3    H135423   3.549   0.922   5.902  1.3982 -0.9505 -0.3470
 4644TIP3    H235424   3.527   0.776   5.867  0.6918 -1.0237  0.3774
 4645TIP3   OH235425   1.339   6.095  14.361  0.3282  0.2572  0.2436
 4645TIP3    H135426   1.319   6.031  14.293 -4.0148 -0.6517  2.0240
 4645TIP3    H235427   1.369   6.044  14.435  0.3635  0.6906  0.5338
 4646TIP3   OH235428   0.230   0.865  10.626 -0.1158  0.1303 -0.0811
 4646TIP3    H135429   0.200   0.885  10.715  0.3704  0.9063 -0.0840
 4646TIP3    H235430   0.238   0.770  10.625 -3.4993 -0.2738 -0.3720
 4647TIP3   OH235431   0.740   0.628  12.068  0.0115 -0.2692  0.1433
 4647TIP3    H135432   0.696   0.698  12.020 -0.3092 -0.5907 -0.0376
 4647TIP3    H235433   0.765   0.668  12.151  1.3417  0.5477 -0.6080
 4648TIP3   OH235434   0.429   0.270  11.508  0.1056 -0.7480  0.0715
 4648TIP3    H135435   0.462   0.203  11.448 -1.7249 -2.2734  0.6505
 4648TIP3    H235436   0.438   0.352  11.460  1.6806 -1.4752 -0.9846
 4649TIP3   OH235437   6.491   3.938  15.803  0.0605  0.6893  0.4995
 4649TIP3    H135438   6.494   3.851  15.763  1.3489  1.0609 -0.2365
 4649TIP3    H235439   6.549   3.932  15.879 -0.6375  0.6427  1.0519
 4650TIP3   OH235440   0.907   3.674  11.909  0.4849  0.0566  0.3034
 4650TIP3    H135441   0.979   3.636  11.959 -0.5939 -1.2753  0.9147
 4650TIP3    H235442   0.839   3.608  11.911 -1.0511  1.5593  0.3680
 4651TIP3   OH235443   2.735   3.476  15.485  0.4113  0.5989 -0.1251
 4651TIP3    H135444   2.780   3.399  15.451  0.0152 -0.0316  0.7328
 4651TIP3    H235445   2.765   3.548  15.430 -1.1022 -0.5177 -2.5885
 4652TIP3   OH235446   3.733   0.703   0.307  0.3787  0.2386  0.0557
 4652TIP3    H135447   3.697   0.648   0.376  1.4881  0.1305  0.5739
 4652TIP3    H235448   3.774   0.776   0.352  0.7931  0.3635 -0.5085
 4653TIP3   OH235449   0.213   0.212   5.632  0.4583  0.6493 -0.8417
 4653TIP3    H135450   0.302   0.219   5.667 -0.1790 -0.0380  0.9916
 4653TIP3    H235451   0.171   0.144   5.685 -0.8965  0.2965 -2.2849
 4654TIP3   OH235452   4.970   0.161   3.911 -0.4929  0.7160 -0.0850
 4654TIP3    H135453   5.056   0.132   3.884 -0.7898 -2.2091  1.6820
 4654TIP3    H235454   4.987   0.236   3.969  0.7367  0.9685 -0.7520
 4655TIP3   OH235455   5.157   4.737   1.234  0.5104 -0.1377  0.3058
 4655TIP3    H135456   5.073   4.734   1.187  1.3583  1.0284 -1.4079
 4655TIP3    H235457   5.205   4.660   1.203  0.7796  0.2269 -0.2129
 4656TIP3   OH235458   1.078   4.870   0.355  0.0046  0.0003  0.3115
 4656TIP3    H135459   1.011   4.926   0.316  1.0699 -0.6090 -2.6112
 4656TIP3    H235460   1.037   4.784   0.363 -0.5699  0.3800  1.6668
 4657TIP3   OH235461   0.491   0.531  11.927 -0.2737  0.1602 -0.1533
 4657TIP3    H135462   0.576   0.512  11.967 -0.8009 -0.2185  0.8324
 4657TIP3    H235463   0.493   0.484  11.844  0.5141  0.2270 -0.1780
 4658TIP3   OH235464   1.389   0.229  12.001 -0.5901 -0.2464 -0.2577
 4658TIP3    H135465   1.327   0.299  11.979  1.3546  1.1427 -1.5879
 4658TIP3    H235466   1.416   0.248  12.090 -0.6564  0.2605 -0.3433
 4659TIP3   OH235467   4.435   4.091   0.007  0.2052 -0.0247  0.5258
 4659TIP3    H135468   4.423   4.125  -0.081  0.0175 -0.3524  0.4228
 4659TIP3    H235469   4.408   4.163   0.064 -4.2973 -1.2555  0.3512
 4660TIP3   OH235470   5.047   1.934   0.915  0.4354 -0.2587 -0.5839
 4660TIP3    H135471   5.022   2.014   0.868  0.5458  0.4917  0.5877
 4660TIP3    H235472   4.986   1.929   0.989 -0.0064 -1.6430 -1.0168
 4661TIP3   OH235473   4.171   4.155  16.195  0.1207  0.3687 -0.0423
 4661TIP3    H135474   4.100   4.211  16.163 -0.1616  0.3468  0.5268
 4661TIP3    H235475   4.130   4.102  16.263  0.3540 -0.6316 -0.6677
 4662TIP3   OH235476   6.314   1.756   2.957  0.0882 -0.2819  0.0835
 4662TIP3    H135477   6.321   1.690   3.026  0.4196 -0.0183  0.3006
 4662TIP3    H235478   6.287   1.706   2.879  0.7921 -0.7410  0.1302
 4663TIP3   OH235479   3.764   3.957   0.995 -0.0197 -0.6177 -0.0326
 4663TIP3    H135480   3.669   3.949   0.999  0.0626 -1.7732 -0.2405
 4663TIP3    H235481   3.795   3.869   0.976  1.0487 -0.0805 -0.8699
 4664TIP3   OH235482   6.101   4.963   0.424 -0.4679  0.5373 -0.3411
 4664TIP3    H135483   6.023   5.018   0.426  0.5070  1.9544  1.6892
 4664TIP3    H235484   6.080   4.894   0.361 -3.1991  1.0482 -0.0942
 4665TIP3   OH235485   2.188   4.328   5.642 -0.1176  0.6070  0.3853
 4665TIP3    H135486   2.134   4.365   5.572 -2.5941 -0.2201  1.7455
 4665TIP3    H235487   2.191   4.397   5.708  1.8401  1.2133 -0.2516
 4666TIP3   OH235488   1.419   0.739   0.618 -0.0769  0.1535  0.1645
 4666TIP3    H135489   1.435   0.801   0.689  1.1498  0.3580 -0.2700
 4666TIP3    H235490   1.363   0.672   0.657  0.8485  0.0811  1.4329
 4667TIP3   OH235491   0.586   0.070  11.385  0.0923  0.0857 -0.8862
 4667TIP3    H135492   0.578   0.066  11.290 -0.9226 -2.1682 -0.7648
 4667TIP3    H235493   0.595  -0.021  11.413  0.4657  0.6864  1.1874
 4668TIP3   OH235494   6.653   6.211   5.264  0.6072 -0.2291  0.0548
 4668TIP3    H135495   6.659   6.252   5.351  0.7744 -2.7509  1.3213
 4668TIP3    H235496   6.578   6.152   5.270 -0.0413  0.3204 -1.9208
 4669TIP3   OH235497   4.338   1.807  16.604 -0.3802  0.3427  0.7128
 4669TIP3    H135498   4.279   1.850  16.665 -0.0116 -0.8235  1.9324
 4669TIP3    H235499   4.351   1.871  16.534 -2.6756  0.8070  0.6508
 4670TIP3   OH235500   6.083   6.070  14.531 -0.6101 -0.1630 -0.2037
 4670TIP3    H135501   6.112   6.129  14.602 -0.5610 -1.2281  0.6811
 4670TIP3    H235502   6.026   6.125  14.477 -0.6734  0.6689  0.6738
 4671TIP3   OH235503   0.615   4.720   5.397  0.0252  0.2488 -0.2776
 4671TIP3    H135504   0.575   4.807   5.394 -1.1652 -0.2724 -0.0804
 4671TIP3    H235505   0.544   4.661   5.423  1.5751 -0.3607  3.0426
 4672TIP3   OH235506   2.470   6.436  14.148  0.0162 -0.3677 -0.1057
 4672TIP3    H135507   2.422   6.402  14.072 -0.8550  1.8911 -0.6226
 4672TIP3    H235508   2.529   6.502  14.113 -1.2438  1.5792  1.2741
 4673TIP3   OH235509   1.600   0.313   5.609  0.0328  0.1829 -0.2265
 4673TIP3    H135510   1.577   0.220   5.606 -1.1901  0.4050  0.8699
 4673TIP3    H235511   1.580   0.339   5.699 -0.0039  1.5971 -0.6158
 4674TIP3   OH235512   4.045   1.175  16.407 -0.3052 -0.0591  0.3040
 4674TIP3    H135513   4.105   1.125  16.461  1.4847  1.2401 -0.3992
 4674TIP3    H235514   4.064   1.267  16.426  0.6057  0.4816 -2.6329
 4675TIP3   OH235515   5.591   1.161  16.330 -0.2333 -0.0506  0.1637
 4675TIP3    H135516   5.577   1.234  16.270 -0.6422 -0.6411 -0.4611
 4675TIP3    H235517   5.517   1.164  16.390  1.4281  2.1194  2.3348
 4676TIP3   OH235518   6.348   5.731   4.805 -0.4930 -0.1205 -0.0005
 4676TIP3    H135519   6.366   5.688   4.721 -0.3185  1.0752 -0.5952
 4676TIP3    H235520   6.252   5.729   4.813 -0.6962  1.7046 -1.3307
 4677TIP3   OH235521   5.897   0.697  16.253  0.0059 -0.2331 -0.1987
 4677TIP3    H135522   5.805   0.721  16.239  0.2738  0.3511 -0.9870
 4677TIP3    H235523   5.944   0.738  16.181  1.2746  1.8041  1.6607
 4678TIP3   OH235524   4.480   0.892   1.816  0.0678 -0.1001  0.1664
 4678TIP3    H135525   4.508   0.801   1.812  1.6659  0.3745 -0.0900
 4678TIP3    H235526   4.431   0.898   1.898 -0.0546 -1.1716  0.1903
 4679TIP3   OH235527   0.770   3.226  16.907  0.3702 -0.5030 -0.7808
 4679TIP3    H135528   0.802   3.225  16.998 -1.5391  0.5350 -0.0256
 4679TIP3    H235529   0.755   3.319  16.889 -2.6303 -0.8925 -0.8337
 4680TIP3   OH235530   2.650   4.691  12.477  0.1979 -0.1989  0.0648
 4680TIP3    H135531   2.613   4.605  12.499 -1.7330  0.4920 -0.3376
 4680TIP3    H235532   2.657   4.736  12.561 -0.6397 -0.0581  0.0656
 4681TIP3   OH235533   3.322   6.454  11.558 -0.2398 -0.2077  0.3380
 4681TIP3    H135534   3.414   6.436  11.579  0.3618 -1.3033 -2.6462
 4681TIP3    H235535   3.288   6.370  11.527 -1.5467  0.6781 -0.7341
 4682TIP3   OH235536   2.538   2.406  11.681 -0.1352 -0.4138  0.2277
 4682TIP3    H135537   2.499   2.384  11.597 -1.0771  0.7954  0.3133
 4682TIP3    H235538   2.463   2.419  11.739  0.3003  2.2008  0.3383
 4683TIP3   OH235539   2.043   5.056  14.858  0.1117  0.0609 -0.1955
 4683TIP3    H135540   2.113   4.992  14.871  2.0888  1.9308 -0.9944
 4683TIP3    H235541   2.045   5.109  14.938 -1.0894 -0.4603  0.1954
 4684TIP3   OH235542   6.163   6.746  10.603  0.2284  0.7878  0.3061
 4684TIP3    H135543   6.083   6.694  10.616  0.3942  0.1224 -1.0916
 4684TIP3    H235544   6.148   6.791  10.520  1.0149  1.2266  0.3948
 4685TIP3   OH235545   2.406   0.428   1.324 -0.5477  0.6795  0.3310
 4685TIP3    H135546   2.350   0.492   1.367 -0.9610  1.0455 -0.7281
 4685TIP3    H235547   2.481   0.479   1.294 -0.3788  0.4725  0.4004
 4686TIP3   OH235548   1.789   6.388   1.097 -0.2504  0.4062 -0.4456
 4686TIP3    H135549   1.696   6.405   1.086 -0.2921  0.7932  0.4276
 4686TIP3    H235550   1.813   6.435   1.177  0.2313 -1.4719  0.5708
 4687TIP3   OH235551   4.745   4.629   6.093  0.4046  0.5475  0.0600
 4687TIP3    H135552   4.672   4.658   6.147  1.0852  0.2685  1.1821
 4687TIP3    H235553   4.813   4.606   6.157  0.7070 -1.2604 -0.8645
 4688TIP3   OH235554   1.734   2.859   0.050 -0.2340 -0.0732  0.4161
 4688TIP3    H135555   1.653   2.849   0.098 -0.5784  0.2551 -0.0897
 4688TIP3    H235556   1.724   2.803  -0.027 -0.0385  0.0715  0.2820
 4689TIP3   OH235557   4.296   4.915  12.649  0.4713  0.7116  0.0566
 4689TIP3    H135558   4.303   5.003  12.612  2.0616  0.4704 -0.2717
 4689TIP3    H235559   4.275   4.859  12.574  0.7206  0.6365  0.0426
 4690TIP3   OH235560   1.776   1.722  16.078  0.4261  0.1089 -0.1144
 4690TIP3    H135561   1.848   1.658  16.077 -0.7370 -1.2803  0.6533
 4690TIP3    H235562   1.752   1.728  16.171 -0.8093  0.1156 -0.4194
 4691TIP3   OH235563   0.696   4.420   3.933 -0.1402 -0.2409 -0.1829
 4691TIP3    H135564   0.644   4.484   3.982  0.1919  0.1185 -0.3020
 4691TIP3    H235565   0.747   4.472   3.872  1.6179 -0.4168  1.0491
 4692TIP3   OH235566   4.082   6.157   5.515  0.1377 -0.3271  0.3774
 4692TIP3    H135567   4.033   6.108   5.450  0.3664 -2.3162  1.6356
 4692TIP3    H235568   4.042   6.133   5.599  0.6837  1.1546  1.1035
 4693TIP3   OH235569   1.219   1.584  10.966 -0.0353 -0.6610 -0.0542
 4693TIP3    H135570   1.212   1.523  10.892  1.1204  1.1650 -1.7595
 4693TIP3    H235571   1.133   1.625  10.971  0.5467  1.0197 -2.1426
 4694TIP3   OH235572   6.709   5.263  13.687 -0.5943  0.0364  0.6194
 4694TIP3    H135573   6.778   5.319  13.652 -0.1548 -1.3259 -0.8030
 4694TIP3    H235574   6.730   5.175  13.656 -1.3438 -0.9453  2.6338
 4695TIP3   OH235575   0.908   4.519  11.897  0.2704 -0.1939 -0.2068
 4695TIP3    H135576   0.840   4.457  11.924 -0.1808 -1.0252 -2.9455
 4695TIP3    H235577   0.974   4.514  11.966 -0.7128 -2.1726  0.6667
 4696TIP3   OH235578   6.133   5.785   6.185  0.8184 -0.0862 -0.0454
 4696TIP3    H135579   6.119   5.878   6.199  0.3594 -0.4007  1.9468
 4696TIP3    H235580   6.046   5.746   6.192  1.2411 -0.8699  1.4068
 4697TIP3   OH235581   1.340   1.207   5.766  0.5251 -0.1521 -0.4145
 4697TIP3    H135582   1.244   1.201   5.763  0.4412 -0.9032  1.5154
 4697TIP3    H235583   1.358   1.253   5.848  1.8339  2.2685 -1.9503
 4698TIP3   OH235584   3.025   2.229  15.958  0.3484  0.6716 -0.2195
 4698TIP3    H135585   3.001   2.161  15.894 -0.4960  1.9536 -1.3091
 4698TIP3    H235586   2.942   2.260  15.993  0.7276  1.1261  0.3016
 4699TIP3   OH235587   1.352   3.092  14.268 -0.2110 -0.1150  0.5658
 4699TIP3    H135588   1.427   3.125  14.218  1.8387 -2.0435  2.1443
 4699TIP3    H235589   1.309   3.170  14.302  2.1010  1.0706  0.9845
 4700TIP3   OH235590   0.807   6.297   2.448 -0.1086  0.1990 -0.0762
 4700TIP3    H135591   0.870   6.366   2.428  0.3823 -0.5744 -1.3555
 4700TIP3    H235592   0.728   6.343   2.477  0.4491  1.2500 -0.2036
 4701TIP3   OH235593   1.490   3.177   3.002 -0.0502  0.4472 -0.2156
 4701TIP3    H135594   1.469   3.257   3.050 -0.1371 -0.6021  1.6090
 4701TIP3    H235595   1.435   3.181   2.924 -0.4469  1.9057  0.1000
 4702TIP3   OH235596   6.324   0.317  14.667  0.3567  0.4935 -0.3113
 4702TIP3    H135597   6.274   0.262  14.607 -1.2871 -0.7140  2.0252
 4702TIP3    H235598   6.264   0.388  14.690  1.3261  1.5088 -0.8223
 4703TIP3   OH235599   4.147   0.274  17.168 -0.1983 -0.0494  0.6182
 4703TIP3    H135600   4.091   0.275  17.246 -0.0782 -1.8338  0.7769
 4703TIP3    H235601   4.236   0.273  17.203 -0.1131  0.3606  0.4183
 4704TIP3   OH235602   4.360   4.288  12.306  0.0072  0.4687  0.6674
 4704TIP3    H135603   4.322   4.263  12.222  0.3017 -1.0233  0.9426
 4704TIP3    H235604   4.440   4.235  12.313  1.6913  2.8695  0.4935
 4705TIP3   OH235605   5.639   4.555   4.075  0.6165  0.2278 -0.0167
 4705TIP3    H135606   5.593   4.637   4.090  0.2673 -0.1881  1.3612
 4705TIP3    H235607   5.579   4.503   4.022  0.1617  0.2905  0.4263
 4706TIP3   OH235608   0.702   6.109  12.615  0.0356 -0.1393  0.4097
 4706TIP3    H135609   0.707   6.048  12.541 -1.6803  1.2547 -0.9444
 4706TIP3    H235610   0.767   6.177  12.594  0.6383 -0.5162  0.9968
 4707TIP3   OH235611   0.605   6.084   5.728  0.2358  0.2795 -0.1058
 4707TIP3    H135612   0.699   6.087   5.709  0.0092 -0.3466 -1.4801
 4707TIP3    H235613   0.567   6.148   5.668 -0.1946  0.7565  0.6640
 4708TIP3   OH235614   5.332   2.574   6.396  0.0361  0.3721  0.0833
 4708TIP3    H135615   5.404   2.540   6.448 -0.3691  0.8354  0.9693
 4708TIP3    H235616   5.374   2.612   6.318  0.8276  1.2389  0.9066
 4709TIP3   OH235617   3.539   6.499   2.228 -0.6427 -0.5715  0.4445
 4709TIP3    H135618   3.520   6.555   2.303 -0.0191  0.0474  0.1517
 4709TIP3    H235619   3.457   6.498   2.177 -1.0150 -0.8624  1.0421
 4710TIP3   OH235620   6.215   0.366  12.904 -0.0869 -0.1333  0.0231
 4710TIP3    H135621   6.264   0.446  12.886  0.2156 -0.2772  0.1925
 4710TIP3    H235622   6.283   0.301  12.924 -0.3527 -0.3000  0.4011
 4711TIP3   OH235623   6.590   5.266   3.244 -0.0818 -0.0489 -0.0566
 4711TIP3    H135624   6.521   5.324   3.212 -0.7265 -1.1901 -0.8130
 4711TIP3    H235625   6.573   5.257   3.337 -1.1581 -0.5667 -0.2883
 4712TIP3   OH235626   1.050   5.463   1.082 -0.0390 -0.0943 -0.4690
 4712TIP3    H135627   1.129   5.481   1.133 -0.2108 -0.4429 -0.0751
 4712TIP3    H235628   1.023   5.548   1.048  0.2475  0.0953 -0.2224
 4713TIP3   OH235629   4.447   4.236  16.076  0.0101  0.1235 -0.2398
 4713TIP3    H135630   4.362   4.193  16.081 -0.2846  0.7688  0.5572
 4713TIP3    H235631   4.480   4.234  16.166  0.3046  0.9288 -0.3199
 4714TIP3   OH235632   2.349   4.747   1.162  0.4050  0.7827 -0.0122
 4714TIP3    H135633   2.324   4.815   1.099 -0.8446 -0.3977 -0.8673
 4714TIP3    H235634   2.444   4.743   1.157  0.3252  0.4650 -2.1451
 4715TIP3   OH235635   2.750   5.032   0.030 -0.7711 -0.0895 -0.4214
 4715TIP3    H135636   2.819   4.973   0.059  0.6464  1.4836 -0.4168
 4715TIP3    H235637   2.674   5.008   0.084 -0.4648 -2.2852 -0.8812
 4716TIP3   OH235638   6.587   3.056  16.493  0.1284  0.2472  0.1794
 4716TIP3    H135639   6.678   3.066  16.464 -0.7897  1.0026 -2.8361
 4716TIP3    H235640   6.579   3.117  16.567  1.7790  1.0196 -0.2267
 4717TIP3   OH235641   1.490   0.038  15.497  0.3243  0.3492 -0.5182
 4717TIP3    H135642   1.530  -0.019  15.432  1.5182  0.0583  0.4351
 4717TIP3    H235643   1.481  -0.016  15.575  1.9650  1.5642  0.5769
 4718TIP3   OH235644   1.080   6.605   0.790  0.0111  0.4502  0.6639
 4718TIP3    H135645   1.120   6.521   0.765 -2.6499 -1.0561  1.1029
 4718TIP3    H235646   0.998   6.581   0.831 -1.3113  3.3611 -0.0236
 4719TIP3   OH235647   5.594   1.779  11.470 -0.2113 -0.4067  0.6013
 4719TIP3    H135648   5.594   1.705  11.532 -3.0045 -1.2311 -0.2344
 4719TIP3    H235649   5.673   1.767  11.418  0.3895 -1.6894  1.7484
 4720TIP3   OH235650   6.791   1.538  14.460  0.5299 -0.4888 -0.5330
 4720TIP3    H135651   6.748   1.516  14.377 -2.7420 -0.1674  0.9400
 4720TIP3    H235652   6.753   1.477  14.523  1.1910  0.8094  1.1846
 4721TIP3   OH235653   0.279   3.319  11.174 -0.8018  0.5001  0.4906
 4721TIP3    H135654   0.251   3.345  11.262  0.0056  0.9100  0.6293
 4721TIP3    H235655   0.224   3.370  11.115 -1.0355  0.5572  0.7556
 4722TIP3   OH235656   1.235   3.615  14.587 -0.0118 -0.4469 -0.3031
 4722TIP3    H135657   1.223   3.673  14.662 -0.4001 -1.1902  0.2156
 4722TIP3    H235658   1.174   3.649  14.521  0.7569  0.5758 -0.5269
 4723TIP3   OH235659   5.517   2.356  11.124 -0.7170  0.0378 -0.3180
 4723TIP3    H135660   5.583   2.287  11.120 -0.2813  0.4924 -1.3289
 4723TIP3    H235661   5.567   2.438  11.129 -1.2283  0.2801  1.5754
 4724TIP3   OH235662   1.289   3.610   5.673  0.1574 -0.9396 -0.5228
 4724TIP3    H135663   1.338   3.554   5.734  3.1642 -0.1042 -1.9350
 4724TIP3    H235664   1.273   3.690   5.723  0.2049 -1.2478  0.0003
 4725TIP3   OH235665   0.966   0.728   0.131  0.0552 -0.2415 -0.5310
 4725TIP3    H135666   0.931   0.670   0.198  0.8605  0.9242  0.9559
 4725TIP3    H235667   0.893   0.742   0.071 -0.4586 -1.9092 -0.3328
 4726TIP3   OH235668   4.715   4.491   1.715  0.3342 -0.2532 -0.0820
 4726TIP3    H135669   4.715   4.567   1.657  1.2673 -0.9811 -1.0803
 4726TIP3    H235670   4.653   4.430   1.675  0.0368 -0.2599  0.3819
 4727TIP3   OH235671   2.251   4.507   1.044  0.1659 -0.3320  0.7083
 4727TIP3    H135672   2.286   4.565   1.112  3.6685 -0.7608 -0.5274
 4727TIP3    H235673   2.206   4.566   0.984  1.2807  0.7356  0.8891
 4728TIP3   OH235674   3.872   3.087   0.162 -0.3001  0.9248  0.0182
 4728TIP3    H135675   3.848   2.996   0.145 -0.6441  0.9616  0.3082
 4728TIP3    H235676   3.826   3.138   0.095 -1.1391  1.0080  0.6518
 4729TIP3   OH235677   5.738   0.349  11.357 -0.0462 -0.2575  0.2617
 4729TIP3    H135678   5.723   0.350  11.263  1.9824 -0.0278 -0.1150
 4729TIP3    H235679   5.758   0.258  11.377  0.8819 -0.0790  0.1961
 4730TIP3   OH235680   5.163   6.672  13.756 -0.2139 -0.2202  0.1331
 4730TIP3    H135681   5.132   6.714  13.836  1.7912  1.0278  0.3211
 4730TIP3    H235682   5.156   6.578  13.775  0.7701  0.0366  2.0379
 4731TIP3   OH235683   5.839   6.083  11.696  0.4147 -0.1430  0.5060
 4731TIP3    H135684   5.760   6.033  11.677 -0.7330  1.0541  1.8928
 4731TIP3    H235685   5.850   6.076  11.791  2.2898 -0.7086  0.2869
 4732TIP3   OH235686   0.704   1.400   0.147 -0.5453  0.1462 -0.0142
 4732TIP3    H135687   0.749   1.375   0.228 -3.0461 -0.6503  1.2032
 4732TIP3    H235688   0.714   1.323   0.090 -0.1900  0.0553  0.1662
 4733TIP3   OH235689   0.209   0.280  10.860 -0.4060  0.3376 -0.0240
 4733TIP3    H135690   0.197   0.284  10.765 -2.4150 -0.2602  0.1374
 4733TIP3    H235691   0.178   0.192  10.883  4.1089 -1.2787  0.7571
 4734TIP3   OH235692   0.121   4.669  16.710 -0.1817 -0.1642  0.5379
 4734TIP3    H135693   0.129   4.626  16.796  0.1066 -2.7740 -0.7026
 4734TIP3    H235694   0.211   4.678  16.680 -0.2291  1.4974  0.7994
 4735TIP3   OH235695   4.588   2.035   4.601  0.3965  0.1372  0.0946
 4735TIP3    H135696   4.516   1.979   4.632 -1.4261  2.2621  0.0040
 4735TIP3    H235697   4.586   2.026   4.506  0.9604 -0.5744  0.1392
 4736TIP3   OH235698   2.551   2.952  12.434  0.4204 -0.1689  0.4918
 4736TIP3    H135699   2.570   3.044  12.415  0.0054 -0.3121 -0.7295
 4736TIP3    H235700   2.509   2.953  12.519  0.2592  0.7990  0.4124
 4737TIP3   OH235701   4.595   6.817  14.742  0.6765  0.3879 -0.4608
 4737TIP3    H135702   4.589   6.722  14.732  1.8215  0.3621 -1.0730
 4737TIP3    H235703   4.509   6.844  14.773  0.2281 -0.8105 -0.6377
 4738TIP3   OH235704   2.023   1.036  12.378  0.0810  0.2002 -0.2342
 4738TIP3    H135705   1.953   1.040  12.313 -0.3284 -0.3119  0.1687
 4738TIP3    H235706   1.978   1.025  12.462  0.6589 -0.4498 -0.0016
 4739TIP3   OH235707   3.463   4.969  10.772  0.1468  0.0356  0.3289
 4739TIP3    H135708   3.481   4.935  10.860  1.3202  1.2362  0.5923
 4739TIP3    H235709   3.401   5.041  10.788  0.5393  0.4013  0.1987
 4740TIP3   OH235710   0.043   4.421   0.051  0.8184  0.0681 -0.6493
 4740TIP3    H135711  -0.014   4.419  -0.026  0.2041 -0.3091 -0.1947
 4740TIP3    H235712   0.124   4.380   0.022  0.3270 -0.7581 -0.9064
 4741TIP3   OH235713   1.599   3.333  14.222 -0.0736  0.4742  0.4338
 4741TIP3    H135714   1.570   3.412  14.176 -1.0780 -0.4485 -0.5844
 4741TIP3    H235715   1.633   3.276  14.154 -0.8428 -0.6040  0.9039
 4742TIP3   OH235716   3.263   1.018   4.445 -0.1543  0.5548 -0.0317
 4742TIP3    H135717   3.184   1.052   4.403 -0.7083  0.1617  0.6648
 4742TIP3    H235718   3.246   1.026   4.539  0.1820 -0.5258  0.1418
 4743TIP3   OH235719   2.430   3.572   6.303  0.1258  0.7118  0.6690
 4743TIP3    H135720   2.366   3.505   6.329  0.2298  0.0023 -0.8059
 4743TIP3    H235721   2.384   3.655   6.318 -0.6961  0.2502  0.7961
 4744TIP3   OH235722   6.233   2.160   1.521 -0.0623 -0.3170 -0.1006
 4744TIP3    H135723   6.202   2.074   1.494 -1.5845 -0.2559  1.2871
 4744TIP3    H235724   6.169   2.221   1.485 -1.7987 -0.1873  2.8344
 4745TIP3   OH235725   4.961   2.660   1.186  0.1279 -0.4108 -0.1391
 4745TIP3    H135726   4.965   2.676   1.091 -0.6834 -1.1181 -0.3062
 4745TIP3    H235727   4.867   2.658   1.206  0.2910 -0.4196  0.6550
 4746TIP3   OH235728   3.876   5.665   3.844 -0.3309 -0.2808 -0.5579
 4746TIP3    H135729   3.867   5.726   3.771 -1.3316  0.1915 -0.0526
 4746TIP3    H235730   3.969   5.640   3.843 -0.4502 -0.7821 -2.3755
 4747TIP3   OH235731   6.716   2.120  16.574 -0.3369 -0.1976 -0.5050
 4747TIP3    H135732   6.637   2.158  16.613 -0.8381 -0.0259 -1.6494
 4747TIP3    H235733   6.702   2.025  16.579 -0.3788 -0.1789 -0.2390
 4748TIP3   OH235734   2.063   3.677  16.991 -0.1230  0.4633  0.1273
 4748TIP3    H135735   2.078   3.685  16.896  1.3285  2.4527  0.4689
 4748TIP3    H235736   1.980   3.722  17.005 -0.5633 -0.2102 -0.2202
 4749TIP3   OH235737   6.015   0.375   4.581 -0.1322  0.4165  0.1175
 4749TIP3    H135738   6.004   0.442   4.514  1.4192  0.7672  0.1834
 4749TIP3    H235739   5.992   0.419   4.663 -1.5915  0.1137 -0.0997
 4750TIP3   OH235740   2.806   2.487   3.278 -0.4441 -0.2443  0.0172
 4750TIP3    H135741   2.859   2.566   3.283  0.0123 -0.5538  0.1558
 4750TIP3    H235742   2.821   2.453   3.190 -2.0543  0.7783 -0.7074
 4751TIP3   OH235743   1.333   5.073  14.059  0.1579 -0.1498 -1.0127
 4751TIP3    H135744   1.318   5.093  14.152  0.2797 -2.7812 -0.3326
 4751TIP3    H235745   1.297   5.148  14.012 -2.7429 -0.0784  1.0413
 4752TIP3   OH235746   5.811   1.881   2.171  0.1163 -0.7754  0.1974
 4752TIP3    H135747   5.785   1.954   2.227  0.6127 -0.9455  0.6598
 4752TIP3    H235748   5.896   1.907   2.136 -0.2464 -0.6177 -0.5844
 4753TIP3   OH235749   6.365   2.830  12.362  0.1152  0.3704 -0.1567
 4753TIP3    H135750   6.331   2.741  12.349 -0.7155  0.3316  1.8935
 4753TIP3    H235751   6.460   2.818  12.373  0.3607  0.0520 -2.1360
 4754TIP3   OH235752   4.258   2.685   3.307 -0.2484 -0.2925 -0.0985
 4754TIP3    H135753   4.280   2.759   3.363  0.9670 -0.7956  0.1127
 4754TIP3    H235754   4.232   2.724   3.224 -0.7659  0.4069  0.3766
 4755TIP3   OH235755   4.688   0.678  10.987 -0.2036  0.4422  0.2911
 4755TIP3    H135756   4.697   0.641  11.075  0.1214  1.6856  0.8072
 4755TIP3    H235757   4.594   0.677  10.970 -0.3554  0.9584  1.0153
 4756TIP3   OH235758   3.087   0.937   0.381 -0.0799  0.9443 -0.1289
 4756TIP3    H135759   3.163   0.895   0.341 -1.0527 -1.4514  0.3725
 4756TIP3    H235760   3.034   0.967   0.307 -1.3326 -2.4653 -0.7803
 4757TIP3   OH235761   2.595   0.912  15.359  1.2866  0.2388 -0.2135
 4757TIP3    H135762   2.647   0.978  15.405  0.3314  0.5973  0.3946
 4757TIP3    H235763   2.581   0.949  15.272 -0.5130  1.5916  0.5851
 4758TIP3   OH235764   6.437   0.654   3.979  0.2729 -0.0083  0.4283
 4758TIP3    H135765   6.347   0.674   4.004  0.1087  0.3795 -0.4592
 4758TIP3    H235766   6.458   0.575   4.029 -0.5716 -0.1381  0.6007
 4759TIP3   OH235767   3.328   2.369   5.944 -0.2284  0.1158 -0.2087
 4759TIP3    H135768   3.422   2.373   5.961 -0.4908  0.1755  1.3544
 4759TIP3    H235769   3.287   2.391   6.028 -1.6410 -0.0330 -0.8268
 4760TIP3   OH235770   0.953   0.709   5.173  0.5735  0.4123 -0.2132
 4760TIP3    H135771   1.043   0.742   5.185  0.8644 -0.5041  0.2367
 4760TIP3    H235772   0.926   0.684   5.261 -0.2511  0.9698 -0.3011
 4761TIP3   OH235773   2.200   4.035   5.413 -0.4998 -0.1315 -0.0256
 4761TIP3    H135774   2.179   3.984   5.491  0.7732  1.6580  1.6116
 4761TIP3    H235775   2.137   4.107   5.413  0.0776  0.3920 -0.0830
 4762TIP3   OH235776   2.297   4.344   0.516  0.2942 -0.3842  0.0576
 4762TIP3    H135777   2.332   4.406   0.579 -1.2647  1.6130 -0.9149
 4762TIP3    H235778   2.202   4.347   0.528  0.1527 -3.9754  1.1500
 4763TIP3   OH235779   1.316   1.581  12.072 -0.3193 -0.6958  0.2858
 4763TIP3    H135780   1.383   1.611  12.011 -1.0346 -0.5270 -0.4256
 4763TIP3    H235781   1.274   1.661  12.104 -2.2233 -0.8633 -1.6096
 4764TIP3   OH235782   3.905   2.468  16.482 -0.3814 -0.2476  0.5800
 4764TIP3    H135783   3.816   2.480  16.517 -0.1624 -1.0581  1.4526
 4764TIP3    H235784   3.947   2.409  16.544  0.1960 -1.3384 -0.7986
 4765TIP3   OH235785   1.075   1.294   5.780  0.1467 -0.4859 -0.2186
 4765TIP3    H135786   1.054   1.355   5.851  1.7259  0.6584 -0.6737
 4765TIP3    H235787   1.005   1.230   5.782 -2.1942  1.8861 -0.3365
 4766TIP3   OH235788   6.487   4.744  14.516 -0.1887  0.0391 -0.2930
 4766TIP3    H135789   6.450   4.821  14.473 -1.0265 -0.2876 -0.1752
 4766TIP3    H235790   6.561   4.778  14.567  2.5708  0.1338 -3.9209
 4767TIP3   OH235791   4.517   6.619  14.464  0.1597  0.3363  0.0083
 4767TIP3    H135792   4.554   6.535  14.440  0.5252  0.7726 -0.9957
 4767TIP3    H235793   4.507   6.615  14.559 -1.1478 -1.3724 -0.1495
 4768TIP3   OH235794   5.202   2.651   0.849  0.4418 -0.0457  0.1343
 4768TIP3    H135795   5.255   2.591   0.901  0.1141  1.0474  1.8374
 4768TIP3    H235796   5.112   2.635   0.878  0.4779  2.2412  1.8201
 4769TIP3   OH235797   1.170   3.898   5.409 -0.1270 -0.1645  0.1092
 4769TIP3    H135798   1.167   3.805   5.428  0.9672 -0.0145  1.1643
 4769TIP3    H235799   1.174   3.940   5.495  2.6977  0.6691 -0.3150
 4770TIP3   OH235800   0.881   2.917   5.171  0.2226  0.3240  0.2900
 4770TIP3    H135801   0.786   2.922   5.180  0.1060 -2.0592  0.9125
 4770TIP3    H235802   0.914   2.976   5.239 -0.8237 -0.5536  1.5963
 4771TIP3   OH235803   5.880   2.033  14.308  0.4985  0.0731 -0.2982
 4771TIP3    H135804   5.869   2.124  14.334  0.5677  0.5434 -1.8373
 4771TIP3    H235805   5.884   1.985  14.391 -1.1515  1.2578  0.5211
 4772TIP3   OH235806   3.907   6.708   5.598 -0.2839  0.3841 -0.1479
 4772TIP3    H135807   3.871   6.622   5.617 -0.0528  0.3397  0.1065
 4772TIP3    H235808   3.885   6.761   5.675 -0.6461  0.6242 -0.4132
 4773TIP3   OH235809   3.954   2.271  12.739  0.4367 -0.0856 -0.0280
 4773TIP3    H135810   3.865   2.303  12.725  0.5354 -0.2008 -0.9896
 4773TIP3    H235811   3.956   2.186  12.695  1.4554  0.6137 -1.4076
 4774TIP3   OH235812   4.715   1.266  15.766 -0.1251  0.4504  0.8177
 4774TIP3    H135813   4.651   1.213  15.718 -0.0568 -0.8271  2.0434
 4774TIP3    H235814   4.720   1.348  15.717 -0.7540 -0.4081 -0.7793
 4775TIP3   OH235815   3.972   4.924   5.535  0.0586 -0.1809  0.4018
 4775TIP3    H135816   3.954   4.985   5.464  0.4534 -0.6723 -0.1312
 4775TIP3    H235817   3.886   4.886   5.556  0.2783 -1.9033 -1.5614
 4776TIP3   OH235818   2.744   2.546   4.208 -0.0100  0.8099 -0.1070
 4776TIP3    H135819   2.676   2.505   4.261  0.7555  1.1613  1.1984
 4776TIP3    H235820   2.799   2.473   4.180 -1.0428  0.4928 -1.3959
 4777TIP3   OH235821   1.950   3.400  16.940  0.3352  0.6334 -0.1870
 4777TIP3    H135822   1.927   3.430  17.028  0.5232 -0.7201  0.3375
 4777TIP3    H235823   1.971   3.481  16.893 -1.0161  1.4975  0.6188
 4778TIP3   OH235824   2.300   2.665   2.874  0.5651  0.0143  0.1336
 4778TIP3    H135825   2.262   2.678   2.961 -0.7253 -2.1525 -0.0438
 4778TIP3    H235826   2.225   2.667   2.814  1.0101 -1.8347 -0.5217
 4779TIP3   OH235827   3.781   0.368  15.748  0.5946 -0.4107 -0.0324
 4779TIP3    H135828   3.722   0.337  15.679 -0.4422 -0.3562  0.8061
 4779TIP3    H235829   3.781   0.298  15.813  1.9010 -0.6485 -0.2573
 4780TIP3   OH235830   3.363   6.258  13.150 -0.3703  0.0634  0.5737
 4780TIP3    H135831   3.447   6.229  13.186  0.9358  1.1388 -1.4371
 4780TIP3    H235832   3.299   6.199  13.190  1.3931 -1.1930  1.7238
 4781TIP3   OH235833   4.316   6.317   2.136  0.3032  0.2311 -0.5450
 4781TIP3    H135834   4.280   6.271   2.060 -0.5399  0.0294 -0.0299
 4781TIP3    H235835   4.299   6.259   2.210 -0.0175  0.9948 -0.0072
 4782TIP3   OH235836   5.309   5.897  15.895  0.3476  0.0710 -0.6771
 4782TIP3    H135837   5.235   5.958  15.890  0.6778  0.3817 -2.7176
 4782TIP3    H235838   5.280   5.820  15.847  1.2515  0.1369 -1.3760
 4783TIP3   OH235839   0.695   4.490  10.673  0.3210 -0.4855  0.7883
 4783TIP3    H135840   0.634   4.560  10.694 -0.6973 -0.6835 -1.2686
 4783TIP3    H235841   0.757   4.529  10.612 -0.9441 -1.5587 -1.3162
 4784TIP3   OH235842   4.166   3.310  12.878  0.1473 -0.5061  0.4767
 4784TIP3    H135843   4.256   3.279  12.871 -0.1363 -0.9147 -2.3647
 4784TIP3    H235844   4.122   3.276  12.800 -1.2781  3.3702 -0.6701
 4785TIP3   OH235845   2.544   6.017  14.937  0.3440 -0.4305  0.1040
 4785TIP3    H135846   2.590   6.088  14.894 -1.1630  0.6612  0.2158
 4785TIP3    H235847   2.606   5.944  14.936  1.0400  0.1116 -2.2131
 4786TIP3   OH235848   3.742   3.745  12.690  0.3042 -0.2003 -0.5462
 4786TIP3    H135849   3.737   3.764  12.784 -0.4748  0.2085 -0.6621
 4786TIP3    H235850   3.728   3.651  12.684  1.7045 -0.4588 -0.1564
 4787TIP3   OH235851   3.199   5.055  12.274 -0.0535 -0.3329  0.4108
 4787TIP3    H135852   3.231   4.989  12.335 -0.5573  0.0279  1.0913
 4787TIP3    H235853   3.103   5.046  12.277 -0.0721 -1.7916 -2.0343
 4788TIP3   OH235854   2.234   3.088  12.262  0.4373  0.6499  0.2616
 4788TIP3    H135855   2.314   3.095  12.210 -0.0394 -0.8532 -0.7502
 4788TIP3    H235856   2.164   3.082  12.197  0.0138 -3.8256  0.8237
 4789TIP3   OH235857   4.226   1.886  14.236 -0.2312  0.2612  0.0326
 4789TIP3    H135858   4.287   1.835  14.183 -0.1555  1.2856 -0.8921
 4789TIP3    H235859   4.225   1.841  14.321  0.3025 -0.9016 -0.5474
 4790TIP3   OH235860   5.681   3.333   1.314 -0.3941  0.0080  0.0363
 4790TIP3    H135861   5.602   3.354   1.363 -0.1724  0.1201  0.3504
 4790TIP3    H235862   5.651   3.320   1.224 -0.8503 -0.5412  0.2617
 4791TIP3   OH235863   3.083   6.129  14.814  1.0367  0.3433  0.3991
 4791TIP3    H135864   3.002   6.155  14.769  0.7992 -0.4955  0.3142
 4791TIP3    H235865   3.150   6.188  14.779  0.9216 -0.4625 -1.3081
 4792TIP3   OH235866   2.137   6.135   2.935 -0.2054 -0.4632 -0.2711
 4792TIP3    H135867   2.064   6.097   2.984 -0.4782 -1.3907 -1.3503
 4792TIP3    H235868   2.192   6.177   3.001 -1.8882  0.5627  0.5339
 4793TIP3   OH235869   4.796   0.471  12.962  0.0929  0.2425 -0.2525
 4793TIP3    H135870   4.839   0.442  13.042 -0.1529  0.4106 -0.0570
 4793TIP3    H235871   4.785   0.566  12.972 -0.7102  0.1445 -0.1003
 4794TIP3   OH235872   0.127   0.836   6.726 -0.1935 -0.4432  0.3227
 4794TIP3    H135873   0.062   0.766   6.731  0.1709 -0.7362  1.1196
 4794TIP3    H235874   0.206   0.793   6.692 -0.5654  0.0414 -1.2611
 4795TIP3   OH235875   6.733   6.149   1.756 -0.0647 -0.0172  0.5160
 4795TIP3    H135876   6.707   6.059   1.775  0.0162 -0.2473 -0.3897
 4795TIP3    H235877   6.718   6.197   1.837  0.4430 -0.9685  1.1827
 4796TIP3   OH235878   1.284   2.358   2.230 -0.1346 -0.2295  0.7979
 4796TIP3    H135879   1.311   2.426   2.169 -3.2242 -0.9884 -1.6653
 4796TIP3    H235880   1.364   2.309   2.249  1.5006  1.9289 -0.1082
 4797TIP3   OH235881   2.480   2.110   4.036 -0.0551  0.2158 -0.0597
 4797TIP3    H135882   2.538   2.046   3.996  0.6668  1.0310 -0.3667
 4797TIP3    H235883   2.403   2.113   3.980  0.3540  0.3555 -0.6192
 4798TIP3   OH235884   5.480   3.637  16.362  0.6061 -0.5436 -0.0541
 4798TIP3    H135885   5.407   3.578  16.346 -0.2118  0.5836 -0.6233
 4798TIP3    H235886   5.455   3.719  16.319  1.7279  0.2042  0.6478
 4799TIP3   OH235887   2.547   0.271   3.174 -0.0832 -0.2352 -0.1938
 4799TIP3    H135888   2.628   0.319   3.187  0.0726 -0.3024 -0.8814
 4799TIP3    H235889   2.481   0.338   3.156 -0.2985 -0.1422  0.8717
 4800TIP3   OH235890   0.402   1.622   3.490  0.2249  0.3896 -0.1683
 4800TIP3    H135891   0.413   1.673   3.410  0.7534 -2.3461 -1.9816
 4800TIP3    H235892   0.328   1.564   3.472  0.1966 -0.1292  1.4300
 4801TIP3   OH235893   4.663   2.260   5.478  0.4491 -0.0023 -0.4657
 4801TIP3    H135894   4.644   2.281   5.569  1.2673 -0.4425 -0.1826
 4801TIP3    H235895   4.583   2.282   5.431 -1.0841 -2.4305  0.7727
 4802TIP3   OH235896   1.622   0.426   0.001 -0.0839 -0.3769 -0.2374
 4802TIP3    H135897   1.574   0.478  -0.064  1.5797  0.7351 -0.6383
 4802TIP3    H235898   1.580   0.448   0.085  0.1469  1.1194 -0.4890
 4803TIP3   OH235899   4.319   1.337   3.944  0.0031  0.4327 -0.1729
 4803TIP3    H135900   4.387   1.387   3.899 -0.3171  0.0154 -1.1537
 4803TIP3    H235901   4.255   1.402   3.973 -0.2126  0.6434 -1.0927
 4804TIP3   OH235902   6.352   0.945  12.806  0.5615 -0.2520  0.6897
 4804TIP3    H135903   6.261   0.974  12.800  1.1388  1.4431 -1.5241
 4804TIP3    H235904   6.347   0.852  12.829 -1.6332  0.1676  2.2058
 4805TIP3   OH235905   3.616   2.471  13.743  0.3603  0.3597 -0.3089
 4805TIP3    H135906   3.653   2.559  13.743  1.4894 -0.0994 -0.0450
 4805TIP3    H235907   3.586   2.458  13.653 -1.7929  1.7937  0.1411
 4806TIP3   OH235908   2.797   5.730   5.172  0.2170  0.8002 -0.8564
 4806TIP3    H135909   2.710   5.719   5.135  0.7187 -0.4682 -1.7334
 4806TIP3    H235910   2.810   5.652   5.227  0.9120  0.8081 -0.9952
 4807TIP3   OH235911   1.019   3.790  14.959 -0.4811 -0.2036 -0.2184
 4807TIP3    H135912   1.114   3.780  14.950  0.0797  2.1713  2.0692
 4807TIP3    H235913   0.988   3.701  14.978  1.2803 -1.0032 -0.8065
 4808TIP3   OH235914   1.044   6.427  11.907  0.2962 -0.0340 -0.0479
 4808TIP3    H135915   1.019   6.369  11.979  0.8816  1.5876  1.5417
 4808TIP3    H235916   1.020   6.379  11.828 -0.5582 -1.8060  1.2183
 4809TIP3   OH235917   0.107   6.345   3.738 -0.4690  0.6732  0.6448
 4809TIP3    H135918   0.014   6.329   3.751 -0.7529  2.4938  1.1663
 4809TIP3    H235919   0.149   6.260   3.753 -2.1548 -0.6315 -1.4420
 4810TIP3   OH235920   2.538   3.828  14.105 -0.0318 -0.7868  0.7475
 4810TIP3    H135921   2.568   3.800  14.191 -3.0464 -0.5713  1.9667
 4810TIP3    H235922   2.490   3.909  14.121 -0.0693 -0.3569 -1.2442
 4811TIP3   OH235923   3.607   5.847  15.343 -0.0561  0.1315  0.3741
 4811TIP3    H135924   3.567   5.920  15.391  2.3058  0.5759  1.8469
 4811TIP3    H235925   3.696   5.842  15.378  0.9809 -1.2073 -2.2244
 4812TIP3   OH235926   3.881   0.415  12.340  0.2455 -0.0121 -0.1278
 4812TIP3    H135927   3.853   0.349  12.402  1.3583  0.7520  1.2535
 4812TIP3    H235928   3.926   0.365  12.271 -1.7056 -0.9376 -0.8113
 4813TIP3   OH235929   6.265   3.408  11.331  0.3728  0.1191 -0.5294
 4813TIP3    H135930   6.306   3.325  11.305  1.1681  0.9249 -1.9994
 4813TIP3    H235931   6.188   3.415  11.275  0.6317  0.6319 -0.8302
 4814TIP3   OH235932   6.164   0.428   6.051 -0.1880 -0.5989  0.5395
 4814TIP3    H135933   6.152   0.434   5.956  0.4402 -0.1346  0.4842
 4814TIP3    H235934   6.076   0.409   6.085 -0.7693  0.9230  0.0006
 4815TIP3   OH235935   5.997   3.378   3.261  0.0653  0.3305  0.4136
 4815TIP3    H135936   5.968   3.469   3.270  0.4220  0.6197 -1.0825
 4815TIP3    H235937   6.053   3.379   3.183 -0.4740 -1.3038 -0.0207
 4816TIP3   OH235938   3.169   2.142   1.880  0.3389  0.2478 -0.0187
 4816TIP3    H135939   3.183   2.163   1.973  1.0405  1.3964 -0.3615
 4816TIP3    H235940   3.081   2.173   1.861  0.0526 -0.3222  0.3407
 4817TIP3   OH235941   4.383   1.859   2.391  0.1234  0.8172 -0.4257
 4817TIP3    H135942   4.351   1.788   2.336 -0.5914 -0.0013  0.9911
 4817TIP3    H235943   4.478   1.844   2.395 -0.1190 -0.6797  0.6349
 4818TIP3   OH235944   0.775   3.377  12.501 -0.2167 -0.2535 -0.8031
 4818TIP3    H135945   0.681   3.390  12.516  0.2830  2.3683  0.6347
 4818TIP3    H235946   0.802   3.314  12.568 -0.6834  0.0902 -0.2868
 4819TIP3   OH235947   2.420   0.691   3.693  0.1577  0.4352  0.1603
 4819TIP3    H135948   2.365   0.615   3.712 -0.5918  1.4178  2.3027
 4819TIP3    H235949   2.482   0.660   3.627 -1.7686 -1.2464 -0.9738
 4820TIP3   OH235950   5.740   6.808  14.259  0.0968 -0.6616 -0.0286
 4820TIP3    H135951   5.792   6.787  14.336 -0.1177  0.0098  0.3078
 4820TIP3    H235952   5.746   6.730  14.204  2.9760  0.0639 -0.8812
 4821TIP3   OH235953   6.419   5.643   3.755 -0.1735 -0.1619 -0.0500
 4821TIP3    H135954   6.333   5.659   3.794 -0.8598  0.5160 -1.7238
 4821TIP3    H235955   6.411   5.555   3.716 -0.3048  0.0966 -0.6268
 4822TIP3   OH235956   3.079   1.866  11.995 -0.3378 -0.4890  0.3043
 4822TIP3    H135957   3.168   1.899  12.008 -0.2813 -0.4660 -0.1112
 4822TIP3    H235958   3.043   1.922  11.926 -0.3734 -1.0519 -0.1387
 4823TIP3   OH235959   1.341   6.796   3.272  0.1283  0.0548  0.0486
 4823TIP3    H135960   1.297   6.858   3.331  2.0092  0.4994  1.0725
 4823TIP3    H235961   1.361   6.847   3.194  0.6029  0.4268  0.4051
 4824TIP3   OH235962   0.172   4.147  16.733  0.7003  1.1374 -0.3624
 4824TIP3    H135963   0.188   4.069  16.679 -1.2636  0.0678  0.4981
 4824TIP3    H235964   0.122   4.115  16.808  1.3402  2.9703  0.9285
 4825TIP3   OH235965   5.121   5.618  11.106  0.2620 -0.4696  0.0038
 4825TIP3    H135966   5.062   5.603  11.180 -1.0828  0.9699 -0.7186
 4825TIP3    H235967   5.143   5.711  11.111  0.6038 -0.4776 -1.0836
 4826TIP3   OH235968   4.602   6.423   3.606 -0.2702  0.1783 -0.2858
 4826TIP3    H135969   4.531   6.462   3.554 -0.3221 -1.7393 -1.7477
 4826TIP3    H235970   4.636   6.496   3.658 -2.3336  1.4735 -0.6373
 4827TIP3   OH235971   1.167   1.972  11.414  0.1486  0.1175  0.0620
 4827TIP3    H135972   1.160   1.981  11.509  0.3943 -1.4883  0.2687
 4827TIP3    H235973   1.182   2.061  11.382 -1.1738  0.8821  1.3987
 4828TIP3   OH235974   5.794   4.902  12.199  0.6276  0.7237  0.4957
 4828TIP3    H135975   5.746   4.819  12.194  1.1496  0.4939 -1.6845
 4828TIP3    H235976   5.826   4.916  12.110  2.0325  2.4046  1.2205
 4829TIP3   OH235977   6.680   0.212  10.466 -0.1121  0.7093 -0.2308
 4829TIP3    H135978   6.643   0.152  10.531 -2.2391  0.0748 -1.9179
 4829TIP3    H235979   6.613   0.279  10.454 -0.0472  0.4805 -2.1712
 4830TIP3   OH235980   0.932   5.608   4.799  0.2350 -0.6176  0.3846
 4830TIP3    H135981   0.839   5.602   4.776  0.3848 -0.9460 -0.1553
 4830TIP3    H235982   0.976   5.552   4.735  0.9576  0.6615 -0.2769
 4831TIP3   OH235983   0.160   2.177  14.364  0.2677  0.8450 -0.3954
 4831TIP3    H135984   0.141   2.094  14.319  0.4952 -0.0343  1.0540
 4831TIP3    H235985   0.079   2.227  14.356  0.6114  1.1784 -2.6266
 4832TIP3   OH235986   3.077   5.444  15.569 -0.2942  0.2095 -0.4264
 4832TIP3    H135987   3.039   5.361  15.539  0.7115 -0.2036 -0.5687
 4832TIP3    H235988   3.001   5.494  15.600 -1.1939  0.1074 -2.3253
 4833TIP3   OH235989   1.660   0.137  11.918  0.1630  0.3298  0.5199
 4833TIP3    H135990   1.589   0.199  11.933  0.5800  1.0803 -0.4413
 4833TIP3    H235991   1.718   0.148  11.993  0.2793  1.1844  0.3131
 4834TIP3   OH235992   0.822   6.451   3.259 -0.3860 -1.2801  0.5868
 4834TIP3    H135993   0.838   6.360   3.235  0.3477 -0.7937 -0.9412
 4834TIP3    H235994   0.736   6.471   3.222 -0.5518 -1.3632  0.9313
 4835TIP3   OH235995   5.792   4.165   3.504 -0.7728  0.5377 -0.4084
 4835TIP3    H135996   5.708   4.204   3.528 -0.7863  0.5053 -0.4019
 4835TIP3    H235997   5.831   4.227   3.443  0.1776  1.6622  1.2521
 4836TIP3   OH235998   4.627   0.746  13.742 -0.3116  0.0341 -0.0970
 4836TIP3    H135999   4.717   0.739  13.709 -0.0524 -0.9482  0.7741
 4836TIP3    H236000   4.594   0.656  13.740 -0.7573  0.1617  1.0260
 4837TIP3   OH236001   0.201   1.953  12.937  0.0727  0.5794 -0.5339
 4837TIP3    H136002   0.152   1.989  12.862 -0.7737  0.1434 -0.1954
 4837TIP3    H236003   0.267   1.896  12.897 -1.8971 -1.5705 -0.9169
 4838TIP3   OH236004   4.803   1.554  15.715  0.0828 -0.1875  0.6835
 4838TIP3    H136005   4.795   1.584  15.806 -1.9600  1.6880 -0.0430
 4838TIP3    H236006   4.806   1.634  15.664  1.9355 -1.1995 -0.9248
 4839TIP3   OH236007   1.890   2.140   5.709 -0.2138  0.4426 -0.1174
 4839TIP3    H136008   1.906   2.204   5.777  0.4139  0.3583 -0.1833
 4839TIP3    H236009   1.963   2.078   5.716 -0.3061  0.2649 -0.6621
 4840TIP3   OH236010   3.376   6.013  17.064  0.5520 -0.0966 -0.1721
 4840TIP3    H136011   3.370   6.097  17.020 -1.2621  0.1377  0.4403
 4840TIP3    H236012   3.290   5.972  17.050  1.0879 -1.4424  0.3072
 4841TIP3   OH236013   6.629   5.585   0.393 -0.5504  0.1540  0.4379
 4841TIP3    H136014   6.693   5.596   0.323 -1.3751 -0.6977 -0.4921
 4841TIP3    H236015   6.665   5.517   0.449 -0.6443 -0.3831 -0.1302
 4842TIP3   OH236016   2.282   6.397  11.934 -0.3539 -0.0333  0.2594
 4842TIP3    H136017   2.187   6.405  11.934 -0.2842  1.3888  1.9842
 4842TIP3    H236018   2.310   6.436  11.852 -1.3136 -2.2608 -1.2161
 4843TIP3   OH236019   0.383   3.932  11.834 -0.2361 -0.2747 -0.6813
 4843TIP3    H136020   0.291   3.949  11.852 -0.3605 -1.0889 -0.4843
 4843TIP3    H236021   0.401   3.979  11.752 -0.0508  2.2688  0.7122
 4844TIP3   OH236022   3.205   0.187   0.740  0.1422  0.0648 -0.2335
 4844TIP3    H136023   3.158   0.166   0.659  0.6694 -2.3806  0.0317
 4844TIP3    H236024   3.153   0.257   0.780 -0.6858  0.6252 -2.1657
 4845TIP3   OH236025   5.411   2.187   4.532  0.1064 -0.0862  0.0202
 4845TIP3    H136026   5.442   2.276   4.519  2.2300 -0.7441  0.0436
 4845TIP3    H236027   5.348   2.172   4.462 -1.1822  1.7697  0.7190
 4846TIP3   OH236028   5.406   6.759  15.976 -0.1880 -0.0594 -0.3112
 4846TIP3    H136029   5.481   6.759  15.916  0.8495 -1.3909  0.9278
 4846TIP3    H236030   5.361   6.842  15.957  0.8389  0.1682 -1.9914
 4847TIP3   OH236031   2.093   3.913   4.879  0.2433 -0.3378 -0.4511
 4847TIP3    H136032   2.150   3.936   4.806 -1.8918  1.4620 -1.6790
 4847TIP3    H236033   2.129   3.960   4.954  0.0634  1.2763 -1.3402
 4848TIP3   OH236034   1.921   3.503   4.145  0.1609 -0.3260  0.1827
 4848TIP3    H136035   1.843   3.516   4.199 -0.7326  1.3601 -1.4234
 4848TIP3    H236036   1.888   3.501   4.055  1.8863 -0.4929 -0.4824
 4849TIP3   OH236037   5.637   1.207  11.781 -0.1627  0.5339 -0.1038
 4849TIP3    H136038   5.599   1.155  11.851  1.9975 -0.3772  0.4832
 4849TIP3    H236039   5.569   1.210  11.713 -1.2562 -0.9474  0.8650
 4850TIP3   OH236040   3.130   2.703   6.392  0.1977 -0.1343 -0.6615
 4850TIP3    H136041   3.074   2.692   6.469  1.0962 -1.9353 -0.2074
 4850TIP3    H236042   3.096   2.781   6.349 -2.3417 -0.8804 -0.1664
 4851TIP3   OH236043   5.830   0.154   4.093 -0.1930  0.0050 -0.2593
 4851TIP3    H136044   5.924   0.145   4.078 -0.1087 -1.9366  1.0410
 4851TIP3    H236045   5.791   0.084   4.041 -0.5395 -1.5824  1.9838
 4852TIP3   OH236046   4.512   3.121   0.915 -0.3198 -0.1947 -0.3258
 4852TIP3    H136047   4.573   3.190   0.889 -0.2874  0.4190  1.2187
 4852TIP3    H236048   4.490   3.075   0.834  0.1093  1.2646 -1.3052
 4853TIP3   OH236049   4.049   0.847   4.279  0.3146  0.6107 -0.1013
 4853TIP3    H136050   3.983   0.914   4.299  1.3356  1.7565 -0.4575
 4853TIP3    H236051   3.997   0.769   4.255 -0.8952  1.2070  0.4752
 4854TIP3   OH236052   2.482   2.657  13.085 -0.2832 -0.0725 -0.3752
 4854TIP3    H136053   2.510   2.568  13.062 -0.2503 -0.1349 -0.0933
 4854TIP3    H236054   2.491   2.706  13.003 -2.4045 -0.8387 -1.1293
 4855TIP3   OH236055   2.483   1.492   6.094 -0.0543 -0.0311  0.3504
 4855TIP3    H136056   2.546   1.505   6.165  1.1741 -1.4468 -0.4435
 4855TIP3    H236057   2.500   1.565   6.034  2.3727 -1.4838 -0.8992
 4856TIP3   OH236058   2.430   3.163  15.696  0.2291  0.1041 -0.2641
 4856TIP3    H136059   2.353   3.107  15.705  0.6474 -1.1522 -3.2165
 4856TIP3    H236060   2.396   3.252  15.702 -1.3476 -0.4332 -0.8024
 4857TIP3   OH236061   1.265   5.049   0.281 -0.3950  0.1380  0.6575
 4857TIP3    H136062   1.209   4.972   0.299 -1.5646  0.6747 -0.4986
 4857TIP3    H236063   1.209   5.107   0.229  1.1235  0.9078 -0.1671
 4858TIP3   OH236064   2.743   2.955  16.778 -0.0850  0.3193  0.3138
 4858TIP3    H136065   2.712   2.866  16.758 -0.2362  0.4831 -0.1879
 4858TIP3    H236066   2.698   3.011  16.715  0.2093  0.7249  0.4583
 4859TIP3   OH236067   0.946   1.390  15.048 -0.2646 -0.2982 -0.3168
 4859TIP3    H136068   0.902   1.317  15.004 -0.0176 -0.3040 -0.5527
 4859TIP3    H236069   1.010   1.422  14.984 -1.0212  0.7433 -0.5979
 4860TIP3   OH236070   2.826   0.621  15.327  0.1445  0.0496  0.5572
 4860TIP3    H136071   2.777   0.564  15.268  2.5161 -0.1717 -1.3815
 4860TIP3    H236072   2.796   0.597  15.414 -1.1456 -1.9800 -0.3661
 4861TIP3   OH236073   3.225   0.270   6.004  0.2477  0.4343  0.0931
 4861TIP3    H136074   3.240   0.244   6.095 -0.7764 -0.3725  0.0397
 4861TIP3    H236075   3.249   0.363   6.002 -0.9666  0.8115  1.5008
 4862TIP3   OH236076   6.082   1.416  14.005  0.3881  0.4653 -0.0159
 4862TIP3    H136077   6.039   1.501  13.997 -0.9227 -0.1801 -0.2073
 4862TIP3    H236078   6.124   1.418  14.091 -0.3533  0.9945  0.3490
 4863TIP3   OH236079   3.717   2.110  14.161  0.3677 -0.3472 -0.1070
 4863TIP3    H136080   3.806   2.093  14.130  0.7036  2.5519 -1.1117
 4863TIP3    H236081   3.713   2.206  14.169 -2.5845 -0.4035  0.2076
 4864TIP3   OH236082   4.084   1.676  11.524  0.3711 -0.0283 -0.0114
 4864TIP3    H136083   4.132   1.684  11.607 -0.5174 -0.2239  0.5399
 4864TIP3    H236084   4.112   1.752  11.473  1.8948 -0.5791 -0.0583
 4865TIP3   OH236085   3.047   1.817  14.963 -0.1841 -0.6500  0.2013
 4865TIP3    H136086   3.129   1.785  14.926  0.0577 -1.1318  1.1117
 4865TIP3    H236087   3.049   1.787  15.054  0.9384  3.4494  1.7629
 4866TIP3   OH236088   2.922   5.316   0.038  0.0061  0.4734  0.2974
 4866TIP3    H136089   3.003   5.289  -0.004 -1.0391  0.5466 -1.9098
 4866TIP3    H236090   2.859   5.248   0.016 -0.3851 -0.0314  2.7038
 4867TIP3   OH236091   2.907   4.838  15.634 -0.3051  0.5289 -0.2209
 4867TIP3    H136092   2.901   4.754  15.590  1.0059 -0.0065  0.5714
 4867TIP3    H236093   2.838   4.836  15.701 -0.0104 -0.0906  0.0682
 4868TIP3   OH236094   2.112   2.235  13.091  0.7904 -0.1667  0.5825
 4868TIP3    H136095   2.159   2.246  13.009 -1.1588  0.3851 -0.5101
 4868TIP3    H236096   2.180   2.242  13.159  2.0912  1.9227 -0.8280
 4869TIP3   OH236097   3.754   6.544  12.220 -0.7352 -0.0654  0.0382
 4869TIP3    H136098   3.794   6.476  12.274 -0.1783  0.1758 -0.0684
 4869TIP3    H236099   3.719   6.497  12.145  1.9689  0.0196 -1.3971
 4870TIP3   OH236100   1.370   2.341  16.277 -0.0935 -0.7473  0.4270
 4870TIP3    H136101   1.285   2.373  16.249  0.8952 -0.3226 -2.3916
 4870TIP3    H236102   1.404   2.412  16.333  0.2790  1.3723 -2.2591
 4871TIP3   OH236103   3.957   1.113  14.179 -0.0725  0.6760  0.1887
 4871TIP3    H136104   4.034   1.056  14.178 -0.5278  0.0561 -0.9397
 4871TIP3    H236105   3.979   1.184  14.118 -0.8114 -0.0950 -0.9990
 4872TIP3   OH236106   5.078   0.798   6.474  0.5665 -0.0866  0.0863
 4872TIP3    H136107   5.124   0.842   6.545 -0.0211 -0.4261  0.6882
 4872TIP3    H236108   5.044   0.870   6.419 -2.3770  0.4050  2.2957
 4873TIP3   OH236109   2.231   5.103  12.275 -0.7135 -0.2442  0.1120
 4873TIP3    H136110   2.190   5.188  12.291 -0.4755 -0.2593  0.8100
 4873TIP3    H236111   2.160   5.049  12.238 -1.5198 -0.4635  1.8765
 4874TIP3   OH236112   0.486   1.737   0.265 -0.0384 -0.2258  0.3111
 4874TIP3    H136113   0.502   1.823   0.227 -1.9543  0.9390  1.9298
 4874TIP3    H236114   0.501   1.675   0.193  2.0385  1.3518 -0.7179
 4875TIP3   OH236115   5.419   6.422  16.191  0.1303  0.5278 -0.5652
 4875TIP3    H136116   5.465   6.339  16.204  1.8781  1.7471  1.7474
 4875TIP3    H236117   5.405   6.426  16.096 -1.6055 -3.1410 -0.6376
 4876TIP3   OH236118   4.212   4.805   3.275 -0.1986 -0.1630  0.3230
 4876TIP3    H136119   4.305   4.826   3.281 -0.0104 -0.5030 -1.0202
 4876TIP3    H236120   4.168   4.888   3.288  0.1796 -0.2449  2.6301
 4877TIP3   OH236121   1.082   0.957  15.639 -0.4212 -0.4166 -0.5066
 4877TIP3    H136122   1.071   0.978  15.731 -1.8194 -0.4115 -0.6568
 4877TIP3    H236123   1.123   1.036  15.601 -1.5168  0.3076 -0.2276
 4878TIP3   OH236124   3.340   1.786  15.580  0.3760 -0.9837  0.8461
 4878TIP3    H136125   3.314   1.826  15.663 -0.7171  2.6116 -1.0144
 4878TIP3    H236126   3.429   1.816  15.565  0.5818 -1.6402  0.7066
 4879TIP3   OH236127   0.123   1.116   2.645 -0.2840 -0.0251 -0.5453
 4879TIP3    H136128   0.056   1.152   2.587  0.1420 -1.0976 -1.7379
 4879TIP3    H236129   0.074   1.069   2.712 -0.7388 -0.7198 -1.3529
 4880TIP3   OH236130   6.223   0.645  10.693 -0.2415  0.4149  0.0455
 4880TIP3    H136131   6.284   0.576  10.719 -0.7021 -0.7130 -1.6352
 4880TIP3    H236132   6.192   0.683  10.775  0.1121 -1.3127  1.0178
 4881TIP3   OH236133   2.355   4.534  14.506  0.2185  0.4908 -0.4475
 4881TIP3    H136134   2.367   4.600  14.437 -1.7187  0.6020 -0.7464
 4881TIP3    H236135   2.405   4.459  14.476  1.0973  1.2422 -0.9366
 4882TIP3   OH236136   5.827   1.920   4.152 -0.0602  0.3695  0.3146
 4882TIP3    H136137   5.734   1.918   4.130 -0.4974  2.4595  1.7536
 4882TIP3    H236138   5.846   1.831   4.180 -1.5257 -0.1823 -0.3147
 4883TIP3   OH236139   5.904   1.441  14.852  0.0737 -0.2111  0.0430
 4883TIP3    H136140   5.849   1.363  14.846 -2.1929  1.1985  1.0564
 4883TIP3    H236141   5.969   1.419  14.919 -0.8531 -1.0790  0.6866
 4884TIP3   OH236142   4.622   3.206  11.856 -0.2593 -0.0795 -0.1274
 4884TIP3    H136143   4.714   3.203  11.827 -0.1128 -1.3582  0.3914
 4884TIP3    H236144   4.577   3.142  11.801 -1.1323  1.4130 -1.2227
 4885TIP3   OH236145   0.635   3.576   3.066  0.2626 -0.6213 -0.3673
 4885TIP3    H136146   0.551   3.619   3.052  0.5931 -0.3634 -1.7685
 4885TIP3    H236147   0.615   3.482   3.059  0.0085 -0.5802 -0.1986
 4886TIP3   OH236148   5.800   5.969   1.245 -0.2390  0.5707 -0.1404
 4886TIP3    H136149   5.768   6.028   1.177 -0.1201 -0.0651 -0.7505
 4886TIP3    H236150   5.737   5.978   1.316  0.2224  2.0678  0.1253
 4887TIP3   OH236151   2.641   5.401   2.395 -0.0646 -0.8012  0.2587
 4887TIP3    H136152   2.662   5.495   2.393 -2.6322 -0.1385  0.5933
 4887TIP3    H236153   2.720   5.360   2.431  1.4906  1.0862 -0.7574
 4888TIP3   OH236154   0.391   3.797  15.389  0.7915  0.3107  0.0398
 4888TIP3    H136155   0.423   3.739  15.321  0.9075  0.4529 -0.0261
 4888TIP3    H236156   0.418   3.885  15.361 -0.7040  0.5916 -0.6608
 4889TIP3   OH236157   6.198   6.282   5.048 -0.4292 -0.3109  0.2599
 4889TIP3    H136158   6.255   6.302   5.122  1.3334  0.2794 -1.1532
 4889TIP3    H236159   6.191   6.366   5.001 -0.5748 -0.9000 -0.8096
 4890TIP3   OH236160   2.498   6.022  13.498  0.1310  0.1607 -0.5224
 4890TIP3    H136161   2.403   6.031  13.489  0.1367  3.7112  1.1876
 4890TIP3    H236162   2.532   6.039  13.410 -0.7664 -1.2853 -1.1779
 4891TIP3   OH236163   6.186   5.934   4.627 -0.5612 -0.2546  0.2385
 4891TIP3    H136164   6.268   5.929   4.676 -0.8192  1.7060  0.9447
 4891TIP3    H236165   6.150   6.020   4.648 -2.0251 -0.4268 -1.3131
 4892TIP3   OH236166   2.096   4.964   4.608 -0.1217 -0.5848  0.0821
 4892TIP3    H136167   2.029   4.954   4.676 -1.2013  1.2005 -0.6681
 4892TIP3    H236168   2.142   5.044   4.632  2.0961 -1.9884  0.8076
 4893TIP3   OH236169   5.211   6.574  12.928  0.4518 -0.6405 -0.4325
 4893TIP3    H136170   5.286   6.523  12.898  0.5366 -0.2836 -0.8368
 4893TIP3    H236171   5.250   6.642  12.983  0.6262  0.6313 -2.0525
 4894TIP3   OH236172   0.117   1.918  10.766 -0.3929  0.0957 -0.0456
 4894TIP3    H136173   0.033   1.907  10.722 -0.4058 -0.3434  0.0832
 4894TIP3    H236174   0.139   1.831  10.799 -1.1646  0.6780  2.2350
 4895TIP3   OH236175   4.452   3.848  12.021 -0.3447 -0.4097 -0.3111
 4895TIP3    H136176   4.532   3.806  11.989  0.4207  0.8862 -0.1840
 4895TIP3    H236177   4.416   3.893  11.944 -0.6884 -0.5696 -0.2493
 4896TIP3   OH236178   2.131   6.300   6.161  0.4707 -0.2032  0.7001
 4896TIP3    H136179   2.037   6.291   6.175  0.1525 -0.0231 -1.0932
 4896TIP3    H236180   2.149   6.393   6.178 -0.0425  0.1842 -0.7323
 4897TIP3   OH236181   0.323   2.142   0.651 -0.4484 -0.7052  0.3903
 4897TIP3    H136182   0.388   2.087   0.607 -1.2879 -0.8964 -0.6675
 4897TIP3    H236183   0.239   2.112   0.616 -0.9221  1.4016 -0.4632
 4898TIP3   OH236184   3.907   0.606   4.244  0.8949  0.5089  0.2872
 4898TIP3    H136185   3.874   0.582   4.330  0.2027 -0.3823 -0.2204
 4898TIP3    H236186   3.920   0.523   4.199 -1.6358  1.0100 -1.5337
 4899TIP3   OH236187   4.863   0.782  13.349  0.4240 -0.0083 -0.5090
 4899TIP3    H136188   4.883   0.866  13.391 -0.6271 -0.5386  1.1716
 4899TIP3    H236189   4.922   0.719  13.392 -1.6023 -0.8052  1.2896
 4900TIP3   OH236190   2.034   1.957   2.875 -0.0575  0.4816  0.2682
 4900TIP3    H136191   1.946   1.919   2.883  0.2150 -0.5498 -1.2863
 4900TIP3    H236192   2.088   1.906   2.936 -0.3538  0.5439  0.5876
 4901TIP3   OH236193   5.012   6.782  17.061  0.4255  0.3203 -0.5571
 4901TIP3    H136194   4.981   6.764  16.972  2.7726  0.9032 -1.5938
 4901TIP3    H236195   4.952   6.848  17.095 -1.9890 -1.6343 -0.6935
 4902TIP3   OH236196   2.999   4.347   3.361  0.0974  0.1095  0.1779
 4902TIP3    H136197   3.040   4.266   3.331 -0.6622 -1.1355  2.2605
 4902TIP3    H236198   3.016   4.349   3.455 -2.5302  0.7140  0.7385
 4903TIP3   OH236199   3.807   2.239   2.488  0.1694 -0.2850 -0.0965
 4903TIP3    H136200   3.855   2.161   2.459  0.6445 -0.7133  1.7058
 4903TIP3    H236201   3.720   2.229   2.450  0.7033 -0.8829 -1.1976
 4904TIP3   OH236202   1.901   0.675   3.515 -0.0577 -0.0290 -0.7014
 4904TIP3    H136203   1.962   0.632   3.455  0.5742  0.2750 -0.2799
 4904TIP3    H236204   1.947   0.752   3.546 -0.2304 -0.3745  0.4738
 4905TIP3   OH236205   4.407   5.090  13.173 -0.2487 -0.1716 -0.1817
 4905TIP3    H136206   4.317   5.073  13.201 -0.3932  2.5741  1.4352
 4905TIP3    H236207   4.461   5.057  13.245  0.0541 -1.3619 -0.9242
 4906TIP3   OH236208   1.397   1.603   0.682 -0.7983 -0.0886  0.1664
 4906TIP3    H136209   1.319   1.613   0.628 -0.0971  2.5927 -0.4934
 4906TIP3    H236210   1.470   1.625   0.624  0.6427 -3.2795  0.5318
 4907TIP3   OH236211   5.835   1.881  17.139 -0.2217 -0.1072  0.2892
 4907TIP3    H136212   5.740   1.891  17.130 -0.0334  0.1692 -2.2322
 4907TIP3    H236213   5.852   1.791  17.110  0.5147  0.8097 -2.4013
 4908TIP3   OH236214   6.692   5.285   1.557 -0.5078 -0.1834 -0.3052
 4908TIP3    H136215   6.662   5.196   1.539 -0.1818 -0.5028  0.6869
 4908TIP3    H236216   6.754   5.276   1.629 -0.1608  0.8056 -0.4560
 4909TIP3   OH236217   1.610   4.275  13.042  0.0431 -0.5095  0.1551
 4909TIP3    H136218   1.700   4.270  13.074 -0.4233 -0.9536  1.4888
 4909TIP3    H236219   1.566   4.199  13.081 -0.6411 -0.9715 -1.4215
 4910TIP3   OH236220   4.185   0.466  14.850  0.3486 -0.0439  0.2617
 4910TIP3    H136221   4.262   0.520  14.870  0.7641 -0.2004 -0.8704
 4910TIP3    H236222   4.216   0.401  14.787 -0.8112  0.1779 -0.5802
 4911TIP3   OH236223   0.724   0.746   0.685  0.3526 -0.0863  0.0648
 4911TIP3    H136224   0.724   0.768   0.778 -0.5214 -0.5481  0.1826
 4911TIP3    H236225   0.810   0.776   0.654 -1.2154  5.2523 -0.1969
 4912TIP3   OH236226   4.774   0.810  16.324 -0.8180 -0.7682  0.5915
 4912TIP3    H136227   4.714   0.834  16.254 -0.5466 -1.1395  0.2261
 4912TIP3    H236228   4.855   0.856  16.303 -0.6476 -1.1009  0.4986
 4913TIP3   OH236229   4.348   2.611  14.417 -0.4049  0.1648  0.0421
 4913TIP3    H136230   4.312   2.653  14.494 -0.1276  2.2255 -0.9015
 4913TIP3    H236231   4.436   2.583  14.443 -0.6784 -0.0521  0.7500
 4914TIP3   OH236232   1.203   3.281  14.383 -0.3702 -0.0754 -0.2338
 4914TIP3    H136233   1.125   3.273  14.439  0.9905  0.3336  1.8115
 4914TIP3    H236234   1.271   3.315  14.441  1.2120  0.1070 -2.1039
 4915TIP3   OH236235   6.200   3.628  15.248  0.6194 -0.1890 -0.4770
 4915TIP3    H136236   6.155   3.587  15.174  1.3458 -0.8036 -0.5926
 4915TIP3    H236237   6.293   3.610  15.232  1.0046  1.8389 -0.7339
 4916TIP3   OH236238   1.495   4.006   4.081 -0.2047  0.0279 -0.3874
 4916TIP3    H136239   1.453   4.087   4.053 -1.3376 -1.4531 -3.4165
 4916TIP3    H236240   1.558   3.986   4.012  0.7175 -1.2177  0.7571
 4917TIP3   OH236241   5.821   3.508  13.307  0.0034  0.1709  0.4759
 4917TIP3    H136242   5.788   3.451  13.376 -0.8979 -0.6601 -0.5990
 4917TIP3    H236243   5.754   3.577  13.298  0.5863  0.8260  1.0687
 4918TIP3   OH236244   6.615   4.699  12.369  0.0910 -0.4022  0.0139
 4918TIP3    H136245   6.524   4.668  12.364 -0.0203  0.0809 -1.1193
 4918TIP3    H236246   6.661   4.647  12.302  0.4061  0.1667 -0.2131
 4919TIP3   OH236247   2.428   3.841  14.570  0.4395  0.5954 -0.1984
 4919TIP3    H136248   2.337   3.812  14.569  0.8695 -0.8880  0.3593
 4919TIP3    H236249   2.466   3.804  14.491  0.1916  2.6118 -1.3165
 4920TIP3   OH236250   4.891   2.989   1.545 -0.2761 -0.0705 -0.4205
 4920TIP3    H136251   4.898   2.919   1.610  1.6535 -0.2399 -0.7668
 4920TIP3    H236252   4.860   3.065   1.595 -0.5626 -0.6644  0.3280
 4921TIP3   OH236253   3.376   0.773  17.183 -0.6633 -0.4283  0.2086
 4921TIP3    H136254   3.392   0.709  17.253  0.1483  0.7738  1.1800
 4921TIP3    H236255   3.281   0.777  17.176 -0.7400 -1.1947  0.6548
 4922TIP3   OH236256   2.547   5.381   1.397 -0.4850  0.6741  0.8377
 4922TIP3    H136257   2.582   5.371   1.308 -1.4529  0.8958  0.4229
 4922TIP3    H236258   2.527   5.292   1.425 -2.0054  0.7536  0.0695
 4923TIP3   OH236259   0.492   0.016   1.640  0.4818  0.4273 -0.3573
 4923TIP3    H136260   0.519  -0.065   1.595 -2.1505 -0.3495 -0.7361
 4923TIP3    H236261   0.399   0.024   1.619  0.4238  2.9905  0.6047
 4924TIP3   OH236262   2.675   5.656   5.582 -0.2121 -0.1004  0.4977
 4924TIP3    H136263   2.619   5.686   5.511  1.5807  0.8068 -0.6128
 4924TIP3    H236264   2.619   5.658   5.660 -2.3039 -1.3526 -0.8670
 4925TIP3   OH236265   0.191   6.497  11.644 -0.5347  0.4498  0.1368
 4925TIP3    H136266   0.135   6.420  11.652  0.0522 -0.1471 -1.2004
 4925TIP3    H236267   0.227   6.510  11.731 -1.9836  0.2616  0.7910
 4926TIP3   OH236268   4.926   5.123   0.243  0.0248  0.0455  0.2394
 4926TIP3    H136269   4.886   5.044   0.208 -0.3089  0.5709 -0.5714
 4926TIP3    H236270   5.020   5.108   0.235 -0.0461  0.2712 -1.1539
 4927TIP3   OH236271   0.149   4.955  14.963 -0.1345 -0.2745 -0.0822
 4927TIP3    H136272   0.166   4.946  15.057  1.3435  0.0010 -0.3025
 4927TIP3    H236273   0.100   4.876  14.940  2.4953 -2.1105  0.2770
 4928TIP3   OH236274   0.992   5.865   0.254  0.4186  0.1942 -0.3342
 4928TIP3    H136275   0.941   5.859   0.334  0.1401 -0.9840 -0.5726
 4928TIP3    H236276   0.928   5.887   0.186  0.6163  0.9756 -0.2676
 4929TIP3   OH236277   6.383   1.529  13.928 -0.6431 -0.1322 -0.6356
 4929TIP3    H136278   6.342   1.611  13.901  1.2535  0.6314 -1.4083
 4929TIP3    H236279   6.423   1.495  13.847  2.7303  0.7387  0.4938
 4930TIP3   OH236280   5.747   5.799  11.888 -0.1715  0.2733  0.1490
 4930TIP3    H136281   5.789   5.768  11.968 -3.2629 -2.2485  0.9738
 4930TIP3    H236282   5.731   5.892  11.905  1.2860  0.3343  1.4658
 4931TIP3   OH236283   2.701   0.017   0.217  0.0475  0.0690  0.1629
 4931TIP3    H136284   2.683   0.085   0.281 -0.7736  0.0501 -0.0443
 4931TIP3    H236285   2.681  -0.065   0.263  1.2261 -0.0605  0.4798
 4932TIP3   OH236286   5.665   1.211   3.409  0.5301  0.3094  0.9453
 4932TIP3    H136287   5.722   1.185   3.336 -0.0599 -2.7993  1.4632
 4932TIP3    H236288   5.578   1.179   3.385 -0.3236  1.8849  1.7472
 4933TIP3   OH236289   0.222   1.630  16.855  0.2558  0.3437  0.1265
 4933TIP3    H136290   0.197   1.633  16.762  0.6693 -0.4836 -0.0183
 4933TIP3    H236291   0.260   1.717  16.872 -0.5397  0.7829 -0.2614
 4934TIP3   OH236292   1.991   0.173   3.003 -0.4109  0.1227 -0.2820
 4934TIP3    H136293   2.006   0.256   3.050  1.1276 -1.0274  1.4109
 4934TIP3    H236294   1.909   0.186   2.956 -0.6017  2.3333  0.5569
 4935TIP3   OH236295   4.024   3.510  12.568  0.4830  0.0969  0.3412
 4935TIP3    H136296   4.117   3.491  12.556  0.2332 -1.4644  0.6315
 4935TIP3    H236297   3.980   3.428  12.546 -1.0304  1.3890 -1.9528
 4936TIP3   OH236298   2.554   4.090  14.220  0.1527 -0.1108 -0.3357
 4936TIP3    H136299   2.470   4.043  14.217 -0.4712  0.9982 -1.2046
 4936TIP3    H236300   2.539   4.168  14.166  1.1208  1.1065  1.0783
 4937TIP3   OH236301   0.763   1.369  13.848  0.3615  0.0706  0.3172
 4937TIP3    H136302   0.746   1.311  13.921  0.2138  0.8771  0.9443
 4937TIP3    H236303   0.781   1.454  13.889 -2.0038  1.0964 -0.6294
 4938TIP3   OH236304   4.056   4.168   5.712  0.2349  0.0678  0.5482
 4938TIP3    H136305   4.139   4.130   5.740 -0.3898  0.0094  2.5061
 4938TIP3    H236306   4.036   4.126   5.629  2.1645  0.1127  0.0241
 4939TIP3   OH236307   4.866   6.196   3.482  0.0989  0.1531 -0.1561
 4939TIP3    H136308   4.816   6.278   3.475 -0.8078 -0.3828 -0.1876
 4939TIP3    H236309   4.808   6.137   3.531  0.9877 -0.2848  0.3818
 4940TIP3   OH236310   0.966   2.785   4.945  0.2357 -0.6450 -0.0097
 4940TIP3    H136311   0.927   2.832   5.018  1.3849  0.3260  0.0095
 4940TIP3    H236312   0.917   2.703   4.939 -0.6958 -0.1747  1.0321
 4941TIP3   OH236313   1.757   4.061   4.772  0.3056 -0.5161 -0.3030
 4941TIP3    H136314   1.730   4.069   4.681  1.1767  2.2116 -0.4284
 4941TIP3    H236315   1.680   4.090   4.822  0.3343 -0.5411 -0.2431
 4942TIP3   OH236316   4.599   5.078   4.811 -0.4995 -0.2132  0.3887
 4942TIP3    H136317   4.514   5.099   4.849 -0.4975  0.2969  0.1183
 4942TIP3    H236318   4.579   5.025   4.734 -0.5483 -0.4991  0.5994
 4943TIP3   OH236319   0.765   3.358   0.725  0.1194  0.8821  0.6655
 4943TIP3    H136320   0.826   3.379   0.795 -0.4783  0.8519  1.2006
 4943TIP3    H236321   0.713   3.438   0.713 -0.3828  0.5973  0.8847
 4944TIP3   OH236322   1.827   0.148   1.665 -0.0876  0.0340  0.2787
 4944TIP3    H136323   1.907   0.187   1.702 -0.0808 -0.0662  0.3686
 4944TIP3    H236324   1.774   0.223   1.639 -0.5131  0.1311  1.3647
 4945TIP3   OH236325   0.267   0.916   5.327  0.0621 -0.7863  0.1974
 4945TIP3    H136326   0.320   0.939   5.250 -0.4219 -0.4963 -0.0546
 4945TIP3    H236327   0.254   0.999   5.373 -1.7416 -0.5124 -0.7492
 4946TIP3   OH236328   3.545   4.385  17.027  0.1581  0.0695  0.7117
 4946TIP3    H136329   3.476   4.441  17.063  0.8368  1.9143 -0.6788
 4946TIP3    H236330   3.562   4.321  17.096  0.1023  2.2425  2.8834
 4947TIP3   OH236331   0.515   6.388   2.725  0.4379  0.9290 -0.3269
 4947TIP3    H136332   0.546   6.298   2.724 -0.4784  0.5955  0.3449
 4947TIP3    H236333   0.542   6.424   2.641  1.1721  0.1550 -0.4320
 4948TIP3   OH236334   1.256   1.643  16.034 -0.0894  0.3302  0.2681
 4948TIP3    H136335   1.274   1.620  16.125 -0.3587 -1.8480 -0.1774
 4948TIP3    H236336   1.343   1.647  15.993 -0.0557 -0.2978  0.2747
 4949TIP3   OH236337   6.576   3.918   3.636 -0.1256 -0.0187 -0.1761
 4949TIP3    H136338   6.622   3.982   3.691  1.4069  0.0989 -1.5135
 4949TIP3    H236339   6.550   3.849   3.696  2.1386 -0.2638  0.6339
 4950TIP3   OH236340   6.502   3.421   5.990 -0.4622 -0.2288 -0.3137
 4950TIP3    H136341   6.460   3.335   5.990 -2.4069  0.5451  3.2503
 4950TIP3    H236342   6.590   3.404   6.023 -0.6900 -0.9012 -0.0320
 4951TIP3   OH236343   2.077   3.415   1.618  0.3557 -0.3216 -0.0741
 4951TIP3    H136344   2.106   3.337   1.569 -1.8735 -1.2978  0.0296
 4951TIP3    H236345   2.118   3.406   1.703 -1.1163 -2.3433  0.5104
 4952TIP3   OH236346   6.625   3.295   1.706  0.5948  0.2059 -0.2387
 4952TIP3    H136347   6.690   3.329   1.767  0.9094  0.2078 -0.5751
 4952TIP3    H236348   6.626   3.200   1.720  1.5550  0.0742 -1.1060
 4953TIP3   OH236349   3.242   5.379   3.422 -0.0683  0.2623  0.1247
 4953TIP3    H136350   3.263   5.285   3.417 -3.6459 -0.6104 -2.0945
 4953TIP3    H236351   3.204   5.390   3.509 -0.9392 -0.7234 -0.1094
 4954TIP3   OH236352   3.185   2.142  12.174  0.3789  0.2963  0.0946
 4954TIP3    H136353   3.230   2.070  12.131 -0.1530  0.0811 -0.1056
 4954TIP3    H236354   3.244   2.168  12.245  0.8919  0.1289 -0.2671
 4955TIP3   OH236355   5.494   4.636  12.635  0.1442  0.1113 -0.4774
 4955TIP3    H136356   5.476   4.730  12.628  0.1603  0.0805 -1.0279
 4955TIP3    H236357   5.587   4.631  12.656  0.6620  0.2020 -2.5383
 4956TIP3   OH236358   6.815   6.112  16.754  1.1683  0.1673 -0.1703
 4956TIP3    H136359   6.791   6.204  16.744 -2.5679 -0.6252  0.1029
 4956TIP3    H236360   6.797   6.073  16.668 -0.8804 -0.8967  0.6716
 4957TIP3   OH236361   6.328   2.223   2.866  0.0991 -0.5585 -0.5499
 4957TIP3    H136362   6.323   2.215   2.961 -0.3845 -0.0181 -0.5293
 4957TIP3    H236363   6.366   2.140   2.837 -1.2909 -1.4183 -0.0250
 4958TIP3   OH236364   4.123   4.431  15.753 -0.3428  0.1022  0.1201
 4958TIP3    H136365   4.149   4.450  15.662 -0.8750 -0.3514 -0.1294
 4958TIP3    H236366   4.085   4.344  15.750 -0.4585  0.1231  0.7667
 4959TIP3   OH236367   0.815   6.358  16.130  0.1924  0.0239 -0.4017
 4959TIP3    H136368   0.727   6.354  16.167  0.5797 -0.2613  0.5334
 4959TIP3    H236369   0.867   6.299  16.186  0.1936 -2.8913 -3.2199
 4960TIP3   OH236370   6.414   2.396  13.442 -0.0988 -0.2838 -0.7136
 4960TIP3    H136371   6.467   2.438  13.509 -1.9327 -1.1294  1.3861
 4960TIP3    H236372   6.414   2.457  13.368  1.4495  0.9870  0.2993
 4961TIP3   OH236373   6.670   6.311  17.191  0.1654 -0.1900 -0.6918
 4961TIP3    H136374   6.667   6.226  17.148  0.5188 -0.4719 -0.1584
 4961TIP3    H236375   6.756   6.346  17.169  0.0453  0.0085 -0.8577
 4962TIP3   OH236376   5.339   6.143  12.148 -0.2819  0.1508 -0.1180
 4962TIP3    H136377   5.257   6.117  12.190 -0.7107 -0.4453 -1.2940
 4962TIP3    H236378   5.356   6.231  12.181 -0.5494 -0.3195  1.3702
 4963TIP3   OH236379   2.424   4.298   3.333 -0.4142  0.0884  0.0712
 4963TIP3    H136380   2.352   4.246   3.369  0.0016 -1.6666 -1.4692
 4963TIP3    H236381   2.394   4.326   3.247  0.4511 -0.0868 -0.3042
 4964TIP3   OH236382   6.040   3.747   2.526 -0.1285 -0.4644  0.2669
 4964TIP3    H136383   5.982   3.672   2.531 -0.8444  0.1703  2.6291
 4964TIP3    H236384   5.994   3.810   2.470 -0.7922 -0.7376  0.5067
 4965TIP3   OH236385   0.455   6.519   0.639 -0.0157  0.8457  0.1878
 4965TIP3    H136386   0.388   6.463   0.680  1.7654 -1.7326 -0.2045
 4965TIP3    H236387   0.408   6.569   0.573 -1.6204 -0.6335  0.1554
 4966TIP3   OH236388   3.842   5.012   5.036 -0.4132  0.2013 -0.2349
 4966TIP3    H136389   3.810   4.989   5.123 -0.3474 -0.9978 -0.5066
 4966TIP3    H236390   3.768   4.995   4.977 -0.3380  0.6406 -0.4594
 4967TIP3   OH236391   6.332   5.074   4.301 -0.7462  0.1666 -0.3335
 4967TIP3    H136392   6.270   5.067   4.228 -1.3070 -0.8026  0.2108
 4967TIP3    H236393   6.375   4.989   4.304 -2.9765 -1.0196  2.3918
 4968TIP3   OH236394   4.753   6.714   0.046  0.9070 -0.0545  0.2226
 4968TIP3    H136395   4.743   6.761  -0.037 -2.2082 -0.3406  0.3090
 4968TIP3    H236396   4.763   6.622   0.020  0.1409 -0.1194  0.1332
 4969TIP3   OH236397   0.395   0.563  14.665 -0.1905 -0.1093  0.0415
 4969TIP3    H136398   0.477   0.518  14.650  0.0348 -0.3395  1.7515
 4969TIP3    H236399   0.347   0.556  14.582  0.6022 -1.8663 -0.2881
 4970TIP3   OH236400   0.534   2.665   4.585 -0.0235 -0.2890 -0.4123
 4970TIP3    H136401   0.457   2.620   4.550 -0.3933 -0.2558  0.3280
 4970TIP3    H236402   0.519   2.668   4.680  0.3902  0.6589 -0.3612
 4971TIP3   OH236403   4.339   5.684  15.649 -0.2355  0.5547 -0.2651
 4971TIP3    H136404   4.314   5.750  15.584  1.6440 -0.0507 -1.6860
 4971TIP3    H236405   4.306   5.601  15.613 -0.6509  0.4129  0.4140
 4972TIP3   OH236406   5.420   0.892  13.530 -0.1679 -0.3934  0.0737
 4972TIP3    H136407   5.340   0.899  13.478 -0.3613  0.0475  0.4235
 4972TIP3    H236408   5.398   0.828  13.599 -0.8291  1.0218  1.2381
 4973TIP3   OH236409   2.342   5.741  12.149 -0.0497 -0.6095 -0.2407
 4973TIP3    H136410   2.369   5.658  12.111 -2.1498 -1.7174  0.5497
 4973TIP3    H236411   2.302   5.718  12.233 -3.1509  0.8693 -1.1910
 4974TIP3   OH236412   2.771   1.835  11.351 -0.1161  0.5565 -0.1738
 4974TIP3    H136413   2.814   1.798  11.274 -1.3240  0.6272 -0.9031
 4974TIP3    H236414   2.837   1.890  11.392  0.0855  1.7436 -2.0199
 4975TIP3   OH236415   0.772   1.422  15.242  0.1406  0.5202 -0.1794
 4975TIP3    H136416   0.854   1.418  15.193 -0.3883  0.1355 -1.0762
 4975TIP3    H236417   0.715   1.477  15.187 -0.5253 -0.0740 -0.0987
 4976TIP3   OH236418   3.485   3.078  12.075  0.2170 -0.1774 -0.6080
 4976TIP3    H136419   3.484   3.001  12.131 -1.9278 -0.0155 -0.3384
 4976TIP3    H236420   3.467   3.045  11.987 -1.6745  0.0579 -0.3468
 4977TIP3   OH236421   5.964   1.850   4.679  0.0672  0.2727 -0.0859
 4977TIP3    H136422   6.010   1.768   4.665 -0.8479 -0.2297 -0.2139
 4977TIP3    H236423   6.026   1.905   4.727  0.4136 -0.7699  0.6790
 4978TIP3   OH236424   2.601   0.630   2.639  0.1147 -0.6823  0.0657
 4978TIP3    H136425   2.655   0.709   2.644  0.1813 -0.7420  0.2848
 4978TIP3    H236426   2.658   0.561   2.673  0.1953 -0.8926 -0.4863
 4979TIP3   OH236427   5.367   3.851  16.263  0.5224 -0.0663 -0.0172
 4979TIP3    H136428   5.442   3.847  16.205  0.3855  1.0374 -0.3009
 4979TIP3    H236429   5.340   3.943  16.261 -1.0640 -0.5028 -0.2229
 4980TIP3   OH236430   5.865   1.623  17.041 -0.5397  0.2968 -0.0534
 4980TIP3    H136431   5.936   1.587  16.988  0.3041  0.3898  0.9866
 4980TIP3    H236432   5.790   1.566  17.023 -0.2894  0.3494 -1.3588
 4981TIP3   OH236433   1.195   3.907  15.216 -0.2370  0.4617 -0.5294
 4981TIP3    H136434   1.273   3.874  15.260  1.0798  3.8519 -0.0116
 4981TIP3    H236435   1.126   3.903  15.282  0.3542  0.5797  0.0972
 4982TIP3   OH236436   0.783   0.054  12.610 -0.0784  0.4709 -0.3487
 4982TIP3    H136437   0.727   0.013  12.676  0.7417  0.7436  0.5458
 4982TIP3    H236438   0.749   0.022  12.527 -0.4537 -0.7820  0.2540
 4983TIP3   OH236439   1.044   2.389  15.014 -0.7712  0.4887 -0.2586
 4983TIP3    H136440   1.073   2.393  14.923 -1.2283 -1.2955 -0.5258
 4983TIP3    H236441   0.958   2.348  15.009  0.1892 -1.8846  1.1117
 4984TIP3   OH236442   0.293   4.284  17.179  0.0998 -0.0248  0.1052
 4984TIP3    H136443   0.300   4.285  17.083  1.2727  0.1278  0.1676
 4984TIP3    H236444   0.256   4.198  17.199 -1.1856  0.3637 -0.5236
 4985TIP3   OH236445   1.624   0.998   0.145  0.8550 -0.0918 -0.5644
 4985TIP3    H136446   1.679   0.933   0.189  0.3269 -0.5503 -0.5664
 4985TIP3    H236447   1.669   1.017   0.063  1.9828  0.9628  0.2726
 4986TIP3   OH236448   4.005   4.963  12.572 -0.2675  0.0338  0.1748
 4986TIP3    H136449   4.050   4.962  12.488  0.7112  0.2501  0.6680
 4986TIP3    H236450   4.076   4.977  12.636 -1.0960  0.8502  0.9483
 4987TIP3   OH236451   4.948   2.617   3.072 -0.2377 -0.0972 -0.3101
 4987TIP3    H136452   4.912   2.584   3.154  0.5697  0.7049  0.3841
 4987TIP3    H236453   4.909   2.561   3.005 -1.8093 -0.0474  0.5084
 4988TIP3   OH236454   4.315   0.618   2.524  0.4136  0.8084  0.3626
 4988TIP3    H136455   4.407   0.611   2.549 -0.1201  0.9387  2.5860
 4988TIP3    H236456   4.272   0.651   2.603 -1.5804  0.4661 -0.5393
 4989TIP3   OH236457   1.128   6.845   3.017 -0.3684  0.0346  0.0211
 4989TIP3    H136458   1.218   6.878   3.025 -1.0141  1.8939  0.1416
 4989TIP3    H236459   1.133   6.754   3.046  1.3162  0.3517  0.8438
 4990TIP3   OH236460   5.324   0.464  15.290  0.5132  0.4340  0.1447
 4990TIP3    H136461   5.415   0.487  15.270 -0.2952  2.1806 -1.8161
 4990TIP3    H236462   5.277   0.547  15.286 -1.1424 -0.3746  1.5663
 4991TIP3   OH236463   1.048   5.239  11.331 -0.7844  0.5490  0.0258
 4991TIP3    H136464   0.984   5.310  11.336  0.9565  2.1265  0.7112
 4991TIP3    H236465   1.133   5.281  11.343  0.3875 -1.5393 -0.4434
 4992TIP3   OH236466   5.654   3.222   2.734  0.1957  0.0718  0.4333
 4992TIP3    H136467   5.622   3.288   2.795 -1.3716 -0.0323 -0.2186
 4992TIP3    H236468   5.578   3.199   2.681  1.1726 -0.8511 -0.6456
 4993TIP3   OH236469   6.006   0.084  15.646 -0.6947  0.3745 -0.1413
 4993TIP3    H136470   6.075   0.120  15.701 -0.0143 -1.4477  0.2617
 4993TIP3    H236471   5.945   0.157  15.634  0.0839  1.3572  1.4582
 4994TIP3   OH236472   6.633   5.669   2.784  0.5983 -0.3307 -0.8109
 4994TIP3    H136473   6.572   5.735   2.752  0.9811 -0.0694 -0.9928
 4994TIP3    H236474   6.634   5.682   2.879 -0.2798 -0.8925 -0.7028
 4995TIP3   OH236475   5.876   2.855  14.928  0.2764  0.6574  0.8135
 4995TIP3    H136476   5.961   2.859  14.883  0.2772  0.0746  0.7490
 4995TIP3    H236477   5.812   2.842  14.858  0.5343 -3.2120  1.0850
 4996TIP3   OH236478   1.370   0.060  12.356 -0.1689  0.2246 -0.2153
 4996TIP3    H136479   1.392   0.152  12.339  0.3372  0.1497  0.0105
 4996TIP3    H236480   1.277   0.061  12.380 -0.5859  0.4840 -1.7434
 4997TIP3   OH236481   6.782   0.976   1.839 -0.0891 -0.3738  0.1956
 4997TIP3    H136482   6.770   0.893   1.792  0.3065 -1.1484  1.4041
 4997TIP3    H236483   6.868   1.008   1.810 -1.1218  0.7183 -1.8511
 4998TIP3   OH236484   6.453   6.431  16.672  0.1594 -0.8371  0.0872
 4998TIP3    H136485   6.530   6.488  16.670  0.4618 -1.2102  0.6891
 4998TIP3    H236486   6.463   6.375  16.595 -0.1567 -0.0568 -0.5184
 4999TIP3   OH236487   3.679   3.149  16.678 -0.3152  0.1417 -0.0669
 4999TIP3    H136488   3.631   3.166  16.597  0.4474 -0.1829 -0.5955
 4999TIP3    H236489   3.660   3.058  16.699 -0.9535  0.3792  0.4330
 5000TIP3   OH236490   0.211   1.027  14.386  0.4044 -0.1389  0.4663
 5000TIP3    H136491   0.298   1.057  14.414  1.2880 -0.9280 -1.2807
 5000TIP3    H236492   0.198   0.945  14.434  0.8895 -0.3126  0.3131
 5001TIP3   OH236493   3.080   2.099  13.164 -0.1314 -0.2306 -0.4371
 5001TIP3    H136494   3.086   2.117  13.071  0.9997 -1.4310 -0.6348
 5001TIP3    H236495   2.997   2.053  13.175 -0.4511  0.2597 -0.7850
 5002TIP3   OH236496   1.618   4.272   6.446 -0.3700  0.2938  0.1977
 5002TIP3    H136497   1.568   4.261   6.527  1.6168  0.3547  1.5034
 5002TIP3    H236498   1.599   4.362   6.419  1.6740  1.5901  2.6549
 5003TIP3   OH236499   5.199   0.765  11.802 -0.0726  0.3133  0.3388
 5003TIP3    H136500   5.190   0.760  11.897 -1.7654 -0.8611  0.1658
 5003TIP3    H236501   5.203   0.674  11.774 -1.3197  0.5847 -0.8252
 5004TIP3   OH236502   4.904   5.145  11.272  0.2605  0.0953  0.2803
 5004TIP3    H136503   4.951   5.122  11.191 -0.3167 -0.7251  0.1658
 5004TIP3    H236504   4.817   5.108  11.261 -0.7967  2.4784  0.0556
 5005TIP3   OH236505   6.302   6.601   4.589  0.0217  0.1644 -0.4549
 5005TIP3    H136506   6.364   6.563   4.527  1.5126  1.7778 -0.0185
 5005TIP3    H236507   6.324   6.694   4.592 -1.7042  0.5863  0.5761
 5006TIP3   OH236508   0.816   0.503   3.121 -0.1795 -0.4627  0.2438
 5006TIP3    H136509   0.769   0.572   3.074  0.8003  1.4951  1.9456
 5006TIP3    H236510   0.867   0.459   3.054  0.5536  1.6810 -0.7134
 5007TIP3   OH236511   0.849   1.377   0.403 -0.2326  0.0544  0.4036
 5007TIP3    H136512   0.850   1.471   0.424 -0.4029  0.0526  0.4234
 5007TIP3    H236513   0.860   1.333   0.487  0.2902  0.0600  0.3426
 5008TIP3   OH236514   4.574   6.306   4.698  0.0895 -0.2273 -0.0311
 5008TIP3    H136515   4.607   6.284   4.784 -3.0286 -2.5186  0.7502
 5008TIP3    H236516   4.481   6.282   4.700 -0.7521  1.9493 -3.2462
 5009TIP3   OH236517   6.388   0.016  17.080  0.1055 -0.7294 -0.4990
 5009TIP3    H136518   6.482  -0.004  17.079  0.2915 -0.0663  1.0082
 5009TIP3    H236519   6.345  -0.069  17.077  0.7447 -1.0372 -1.3652
 5010TIP3   OH236520   2.534   5.107   1.083  0.0576  0.1775  0.2623
 5010TIP3    H136521   2.597   5.153   1.139 -1.0920  0.6797  1.1862
 5010TIP3    H236522   2.523   5.021   1.126 -0.5352  0.4213  0.6180
 5011TIP3   OH236523   1.234   3.956  15.897  0.3834 -0.1222 -0.3873
 5011TIP3    H136524   1.188   3.878  15.928  1.4241  0.0777  1.8390
 5011TIP3    H236525   1.325   3.928  15.889  0.5842  0.5747 -0.6248
 5012TIP3   OH236526   3.170   4.434  15.769  0.2519  0.0116 -0.0667
 5012TIP3    H136527   3.150   4.477  15.852  1.2643 -0.9310  0.6934
 5012TIP3    H236528   3.223   4.498  15.721  0.5673  0.1576  0.4645
 5013TIP3   OH236529   6.170   1.180   1.949 -0.2692  0.5288  0.3520
 5013TIP3    H136530   6.193   1.231   1.871 -0.2380 -0.3721 -0.2452
 5013TIP3    H236531   6.166   1.089   1.918 -0.4062  0.1727  1.3716
 5014TIP3   OH236532   3.374   4.213  11.256  0.1256  0.8203  0.1124
 5014TIP3    H136533   3.417   4.129  11.270  1.1443  0.9859 -1.7216
 5014TIP3    H236534   3.287   4.191  11.223  0.1223  0.4875  0.3441
 5015TIP3   OH236535   5.000   0.895   0.190  0.4563 -0.2415  0.1962
 5015TIP3    H136536   5.033   0.816   0.234  0.5232  0.4569  1.4520
 5015TIP3    H236537   5.078   0.944   0.166  0.3978  0.0705  0.6283
 5016TIP3   OH236538   0.820   2.703  12.018  0.2404  0.3311  0.0592
 5016TIP3    H136539   0.855   2.785  11.983  1.9485  0.1619  1.2759
 5016TIP3    H236540   0.896   2.656  12.052 -0.9418 -0.9033  1.1454
 5017TIP3   OH236541   4.908   1.764   1.331 -0.2281 -0.1368  0.5238
 5017TIP3    H136542   4.889   1.676   1.363 -0.5540 -0.4771 -0.5679
 5017TIP3    H236543   4.969   1.800   1.395  0.5740 -1.4590  0.5339
 5018TIP3   OH236544   1.292   4.771  12.601  0.2139  0.1404 -0.3759
 5018TIP3    H136545   1.315   4.830  12.673  0.7138 -0.3994 -0.0932
 5018TIP3    H236546   1.362   4.707  12.599 -0.3757 -0.5047 -0.6304
 5019TIP3   OH236547   4.213   4.136   2.977  1.0948 -0.2318  0.2473
 5019TIP3    H136548   4.237   4.191   2.902  1.4338  1.5555  1.6041
 5019TIP3    H236549   4.148   4.075   2.942 -1.1543  2.5638 -0.8513
 5020TIP3   OH236550   6.787   3.367  13.779  0.2874 -0.1813 -0.0875
 5020TIP3    H136551   6.756   3.398  13.694  0.0505 -0.6931 -0.1913
 5020TIP3    H236552   6.849   3.433  13.808 -1.4501  1.2722  0.4714
 5021TIP3   OH236553   3.712   4.180   1.805 -0.4164 -0.3145  0.2090
 5021TIP3    H136554   3.788   4.215   1.851 -0.7436  0.8851 -0.1374
 5021TIP3    H236555   3.662   4.135   1.873 -0.8471  1.3415  1.0331
 5022TIP3   OH236556   2.678   4.576   5.966 -0.3307  0.7320 -0.4975
 5022TIP3    H136557   2.740   4.646   5.946 -0.0878  0.2489 -1.5185
 5022TIP3    H236558   2.608   4.619   6.016  1.3089  1.0914  1.6105
 5023TIP3   OH236559   5.007   3.736  11.328 -0.5804 -0.1825 -0.9404
 5023TIP3    H136560   5.092   3.725  11.371 -1.2223  1.4957  0.9059
 5023TIP3    H236561   4.944   3.697  11.388 -1.6930  3.6654  0.6982
 5024TIP3   OH236562   6.133   2.882  15.236 -0.2713  0.0887  0.1027
 5024TIP3    H136563   6.171   2.963  15.272  0.2828 -0.5656  1.0451
 5024TIP3    H236564   6.200   2.849  15.177  0.9554 -1.3282  2.1403
 5025TIP3   OH236565   3.135   0.542   2.567  0.1760 -0.3857  0.0772
 5025TIP3    H136566   3.165   0.592   2.491 -0.4061 -1.3133 -0.7962
 5025TIP3    H236567   3.197   0.563   2.636  2.7771 -2.0804 -1.5681
 5026TIP3   OH236568   1.981   2.897   5.120 -0.6235 -0.0196 -0.2198
 5026TIP3    H136569   1.943   2.811   5.134  0.2989 -0.4480 -0.2498
 5026TIP3    H236570   1.908   2.951   5.091 -1.9349  0.0798  2.9033
 5027TIP3   OH236571   1.212   3.167   4.852 -0.5224 -0.3346 -0.1172
 5027TIP3    H136572   1.212   3.071   4.848 -1.5408 -0.3764  0.4253
 5027TIP3    H236573   1.260   3.194   4.774 -2.0285 -1.2727 -1.4456
 5028TIP3   OH236574   4.379   2.107  15.812 -0.1273 -0.7408 -0.1772
 5028TIP3    H136575   4.402   2.017  15.833 -0.4273 -0.5868  0.8533
 5028TIP3    H236576   4.461   2.145  15.779  0.5388 -0.8503  1.2476
 5029TIP3   OH236577   0.067   3.668   4.854  0.0143 -0.3473 -0.2456
 5029TIP3    H136578   0.108   3.652   4.769  0.0887 -0.7513 -0.1376
 5029TIP3    H236579  -0.026   3.680   4.834  0.1797  0.5753 -0.4923
 5030TIP3   OH236580   0.864   0.276   0.133  0.1539 -0.5353 -0.2814
 5030TIP3    H136581   0.923   0.321   0.073 -1.1453  4.0065  1.4692
 5030TIP3    H236582   0.777   0.288   0.096 -0.2866 -1.2951  0.4672
 5031TIP3   OH236583   0.187   3.715  14.431  0.0835  0.1591  0.3200
 5031TIP3    H136584   0.196   3.650  14.501 -3.0856  0.2470  0.9640
 5031TIP3    H236585   0.227   3.673  14.355  0.0492 -1.6464  1.2314
 5032TIP3   OH236586   5.842   6.599   3.809  0.0491 -0.1373  0.7285
 5032TIP3    H136587   5.862   6.663   3.740  0.2136  1.2483  1.9920
 5032TIP3    H236588   5.772   6.545   3.773 -1.9353  2.3803  0.4527
 5033TIP3   OH236589   1.115   5.362  12.790 -0.8687  0.7169  0.0252
 5033TIP3    H136590   1.120   5.451  12.756  2.1199  1.1318  1.2043
 5033TIP3    H236591   1.137   5.306  12.716 -1.1846  1.0931 -0.3541
 5034TIP3   OH236592   4.225   3.183   4.060 -0.3047 -0.3326 -0.6529
 5034TIP3    H136593   4.236   3.270   4.023 -0.5459 -0.4433 -0.9814
 5034TIP3    H236594   4.143   3.187   4.109 -0.1210 -0.2643 -0.3450
 5035TIP3   OH236595   2.201   2.136   0.728  0.0993  0.6183  0.0137
 5035TIP3    H136596   2.285   2.103   0.697  0.2352  0.1557  0.8536
 5035TIP3    H236597   2.162   2.178   0.651 -0.9173 -3.0647 -1.7019
 5036TIP3   OH236598   2.180   2.209   4.958 -0.5935 -0.3162 -0.2952
 5036TIP3    H136599   2.232   2.152   5.016  0.8647  0.7136 -0.5308
 5036TIP3    H236600   2.094   2.213   5.000  0.0525 -0.6123  1.1289
 5037TIP3   OH236601   0.863   5.028  15.976  0.2926 -0.5656  0.2049
 5037TIP3    H136602   0.786   5.015  16.032  0.5183 -0.2312  0.5957
 5037TIP3    H236603   0.923   4.959  16.003  0.1808 -0.7516 -0.0169
 5038TIP3   OH236604   0.017   6.772  12.395 -0.2937  0.2481 -0.2096
 5038TIP3    H136605  -0.006   6.859  12.426  2.0874  0.9162 -0.1835
 5038TIP3    H236606   0.106   6.757  12.427  0.0309 -1.4567 -1.7397
 5039TIP3   OH236607   3.220   3.659   1.545  0.0487 -0.5109 -0.6750
 5039TIP3    H136608   3.242   3.751   1.559  2.2363 -1.1823  0.7607
 5039TIP3    H236609   3.183   3.630   1.628 -2.1149 -0.6079 -1.6015
 5040TIP3   OH236610   1.422   5.533   0.212  0.1012 -0.1519 -0.1315
 5040TIP3    H136611   1.372   5.612   0.227  3.7674  2.3519  0.3612
 5040TIP3    H236612   1.430   5.491   0.298 -0.5011 -0.1737 -0.0864
 5041TIP3   OH236613   5.031   3.717   2.995  0.1499 -0.1906  0.8503
 5041TIP3    H136614   4.971   3.784   3.027 -0.1262 -0.3445  0.6605
 5041TIP3    H236615   5.000   3.697   2.907  1.7055  1.1991 -0.0754
 5042TIP3   OH236616   4.556   0.745  16.756 -0.5065 -0.3851 -0.2425
 5042TIP3    H136617   4.499   0.718  16.684  0.2004 -0.0904 -0.9298
 5042TIP3    H236618   4.627   0.681  16.756  0.1469  0.3132 -0.6259
 5043TIP3   OH236619   0.649   3.704  16.688  0.0211 -0.2024  0.3118
 5043TIP3    H136620   0.728   3.753  16.711 -0.0331 -1.2683  3.3236
 5043TIP3    H236621   0.580   3.770  16.683  0.8073  0.5583 -0.7575
 5044TIP3   OH236622   0.804   6.552  14.780 -0.1620 -0.1696 -0.3631
 5044TIP3    H136623   0.894   6.585  14.771  0.1212 -1.0543 -0.9510
 5044TIP3    H236624   0.800   6.479  14.719 -1.0554 -0.6315  0.2359
 5045TIP3   OH236625   4.284   0.759   4.179  0.6029  0.3365  0.1199
 5045TIP3    H136626   4.205   0.787   4.227 -0.8577 -1.5133 -1.0871
 5045TIP3    H236627   4.343   0.834   4.186 -2.3325  3.0722 -1.3359
 5046TIP3   OH236628   2.734   0.861  15.883 -0.1974  0.1647  0.1808
 5046TIP3    H136629   2.799   0.901  15.825  0.3792  1.2262  1.5134
 5046TIP3    H236630   2.730   0.920  15.958 -2.0208 -0.3988  0.5529
 5047TIP3   OH236631   2.665   1.972   3.927 -0.9192 -0.6776  0.5046
 5047TIP3    H136632   2.683   1.893   3.877  1.9869 -0.6088  1.2491
 5047TIP3    H236633   2.706   1.956   4.013  1.1088  2.0836  0.1939
 5048TIP3   OH236634   5.595   2.995   2.028  0.0414 -0.6338 -0.5883
 5048TIP3    H136635   5.553   3.066   1.979 -0.7998 -1.6731 -1.4302
 5048TIP3    H236636   5.678   3.032   2.057 -0.2233  0.5870 -1.2906
 5049TIP3   OH236637   2.785   1.965  16.071  0.3749 -0.1131 -0.1037
 5049TIP3    H136638   2.733   1.897  16.114  0.9059 -0.4664 -0.0169
 5049TIP3    H236639   2.721   2.013  16.018  0.2993 -2.0229 -1.8674
 5050TIP3   OH236640   0.349   5.397  13.490  0.1499 -0.1330 -0.0068
 5050TIP3    H136641   0.327   5.444  13.410 -1.6279 -0.0913  0.4635
 5050TIP3    H236642   0.371   5.465  13.553 -1.0307  0.0051  0.2706
 5051TIP3   OH236643   1.589   2.409  13.875 -0.1196  0.0587  0.3061
 5051TIP3    H136644   1.649   2.345  13.914 -1.0609 -1.3803 -0.5312
 5051TIP3    H236645   1.595   2.394  13.781 -1.5395  0.1198  0.1846
 5052TIP3   OH236646   3.794   5.956  13.521  0.2660  0.0845 -0.7414
 5052TIP3    H136647   3.803   5.969  13.616  0.3471 -0.9740 -0.5966
 5052TIP3    H236648   3.753   5.870  13.512  0.5787  0.0237 -1.6817
 5053TIP3   OH236649   1.313   4.018  11.290  0.4070  0.0429  0.1343
 5053TIP3    H136650   1.385   4.032  11.227  0.3731  3.7304  0.6608
 5053TIP3    H236651   1.236   4.053  11.245  0.1057  1.3857  1.6083
 5054TIP3   OH236652   6.140   6.114  13.331 -0.3519 -0.5348  0.6843
 5054TIP3    H136653   6.078   6.129  13.403  0.8896  0.4267  1.5950
 5054TIP3    H236654   6.091   6.061  13.268 -1.4207 -1.6095  2.3354
 5055TIP3   OH236655   5.621   2.102   5.218  0.0443  0.0525  0.4285
 5055TIP3    H136656   5.582   2.019   5.189 -0.2206 -0.4355  2.0726
 5055TIP3    H236657   5.713   2.081   5.232 -0.0072  0.0495  0.7699
 5056TIP3   OH236658   2.169   3.172   5.517 -0.1349 -0.0724 -0.3331
 5056TIP3    H136659   2.183   3.232   5.589  0.3932 -2.1111  1.3561
 5056TIP3    H236660   2.257   3.149   5.487 -0.3036 -0.5826 -0.4471
 5057TIP3   OH236661   4.568   6.448   0.964 -0.4147 -0.1316 -0.2897
 5057TIP3    H136662   4.584   6.436   0.871  0.1881  0.2076 -0.2363
 5057TIP3    H236663   4.655   6.444   1.004 -0.5332  0.8970  0.1117
 5058TIP3   OH236664   4.128   0.931   1.508  0.0166 -0.1412  0.5269
 5058TIP3    H136665   4.110   0.891   1.593 -0.0215 -0.1543  0.5124
 5058TIP3    H236666   4.196   0.876   1.470 -0.2553 -0.3748  0.3737
 5059TIP3   OH236667   6.498   2.164  13.604 -0.0330  0.6987  0.1174
 5059TIP3    H136668   6.466   2.226  13.538  0.4219  1.5732  0.7097
 5059TIP3    H236669   6.591   2.184  13.613 -0.1053  0.6260  1.0736
 5060TIP3   OH236670   3.995   3.590  16.296 -0.3970 -0.0255  0.6866
 5060TIP3    H136671   4.053   3.633  16.359  0.3113  0.8988 -0.5341
 5060TIP3    H236672   3.910   3.586  16.340  0.1076  0.4596  1.7381
 5061TIP3   OH236673   2.440   1.231   6.940 -0.3206 -0.4068 -0.2746
 5061TIP3    H136674   2.443   1.249   7.034 -2.0410 -0.8858 -0.0938
 5061TIP3    H236675   2.465   1.314   6.899  0.9625 -0.3390  0.5783
 5062TIP3   OH236676   1.057   1.560   0.746  0.5200  0.1151  0.0583
 5062TIP3    H136677   0.972   1.550   0.705 -0.4748  0.6908  1.8802
 5062TIP3    H236678   1.118   1.568   0.672 -0.8252 -1.3609 -1.2868
 5063TIP3   OH236679   1.149   0.269  16.809  0.4367  0.2733  0.1835
 5063TIP3    H136680   1.101   0.351  16.797  2.1979  1.5084  1.0391
 5063TIP3    H236681   1.142   0.224  16.725 -0.8152  1.1650 -0.2135
 5064TIP3   OH236682   4.574   6.336  15.743  0.3260  0.1946 -0.2164
 5064TIP3    H136683   4.485   6.366  15.722 -0.7917 -2.3964  0.4909
 5064TIP3    H236684   4.610   6.407  15.797 -1.1507  1.4591 -0.7953
 5065TIP3   OH236685   2.969   1.283   0.432  0.0629  0.2575  0.2684
 5065TIP3    H136686   2.928   1.315   0.512 -0.5298 -1.3822  0.6640
 5065TIP3    H236687   3.047   1.237   0.462 -0.1780 -0.3913 -0.0710
 5066TIP3   OH236688   6.454   3.160  11.925  0.3486  0.2968  0.1699
 5066TIP3    H136689   6.506   3.121  11.855  1.5823  0.1177  1.1574
 5066TIP3    H236690   6.396   3.090  11.954  0.0686  0.2735 -0.4438
 5067TIP3   OH236691   1.603   1.945  11.353  0.1488 -0.1255  0.4802
 5067TIP3    H136692   1.696   1.945  11.330  0.2680 -0.8193  0.9264
 5067TIP3    H236693   1.573   2.033  11.333  1.1154  0.3721  1.1471
 5068TIP3   OH236694   4.937   6.570  12.948  0.1066  0.3191 -0.1291
 5068TIP3    H136695   4.949   6.573  13.043  1.4163 -1.6906 -0.1641
 5068TIP3    H236696   5.026   6.558  12.914 -0.3375  1.1108 -1.6384
 5069TIP3   OH236697   5.217   1.638   4.732  0.0841 -0.3403  0.3736
 5069TIP3    H136698   5.126   1.646   4.760  0.0073  0.2525 -0.0257
 5069TIP3    H236699   5.256   1.579   4.796 -0.0908  0.9336  1.7227
 5070TIP3   OH236700   0.017   3.240   5.098  0.1560  0.3832 -0.5962
 5070TIP3    H136701  -0.001   3.328   5.128 -2.1431 -0.1361 -0.2666
 5070TIP3    H236702   0.097   3.214   5.144 -0.1524  1.6253  0.6846
 5071TIP3   OH236703   2.281   2.392  16.201 -0.3916  0.0808 -0.0172
 5071TIP3    H136704   2.375   2.393  16.183 -0.2890  2.3322  0.3615
 5071TIP3    H236705   2.248   2.315  16.154  1.7420 -1.2864  0.5869
 5072TIP3   OH236706   1.126   0.437   6.267  0.0849 -0.5573  0.3373
 5072TIP3    H136707   1.170   0.359   6.301 -1.2714 -1.4844  0.0461
 5072TIP3    H236708   1.051   0.450   6.326  0.6485  0.9475  0.7896
 5073TIP3   OH236709   5.558   4.050  15.558  0.0250 -0.0212 -0.0538
 5073TIP3    H136710   5.536   3.979  15.498 -0.1454 -0.3543  0.3962
 5073TIP3    H236711   5.476   4.071  15.602  0.5715 -1.4201  1.7893
 5074TIP3   OH236712   4.145   4.714  10.299 -0.4287  0.4830 -0.1286
 5074TIP3    H136713   4.105   4.664  10.371 -0.3078 -1.9834 -1.6720
 5074TIP3    H236714   4.236   4.726  10.327 -0.3648 -0.5080  0.1510
 5075TIP3   OH236715   4.771   1.555  14.907 -0.0973  0.4179  0.5792
 5075TIP3    H136716   4.735   1.537  14.821  0.4243  1.7361  0.0620
 5075TIP3    H236717   4.695   1.557  14.965 -0.5897  0.7480 -0.0700
 5076TIP3   OH236718   2.579   5.612  10.889 -0.1049  0.1962  0.3081
 5076TIP3    H136719   2.485   5.632  10.891 -0.1218  0.1531 -0.0584
 5076TIP3    H236720   2.583   5.519  10.868  0.0216  0.2086  0.2753
 5077TIP3   OH236721   1.479   1.733   4.731  0.1109  0.4796 -0.5133
 5077TIP3    H136722   1.428   1.759   4.808 -2.0793  0.8472 -1.9863
 5077TIP3    H236723   1.545   1.801   4.722  0.0604  0.7085  0.7502
 5078TIP3   OH236724   6.835   1.386  11.914  0.2898  0.1810 -0.2768
 5078TIP3    H136725   6.771   1.415  11.848  1.1889  0.0553 -1.2256
 5078TIP3    H236726   6.786   1.326  11.970 -0.3027 -0.2969 -1.2841
 5079TIP3   OH236727   0.328   3.305  16.613 -0.4136 -0.1752 -0.5512
 5079TIP3    H136728   0.409   3.286  16.661 -0.2093  0.4839 -0.6252
 5079TIP3    H236729   0.357   3.325  16.524 -0.5428  1.1166 -0.3207
 5080TIP3   OH236730   3.396   1.650  13.200 -0.2348  0.3301 -0.3669
 5080TIP3    H136731   3.491   1.641  13.211 -0.1428  0.1114 -1.3006
 5080TIP3    H236732   3.369   1.705  13.274  0.7841  1.3657 -0.7437
 5081TIP3   OH236733   2.150   0.042  12.502 -0.0026 -0.0978 -0.7814
 5081TIP3    H136734   2.172   0.073  12.590 -0.0210  0.3164 -0.9216
 5081TIP3    H236735   2.213  -0.029  12.486  0.6929  0.5159 -0.8414
 5082TIP3   OH236736   0.258   6.413  12.391 -0.7472 -0.1682  0.2206
 5082TIP3    H136737   0.314   6.337  12.403  0.2730  0.5344  0.0157
 5082TIP3    H236738   0.317   6.488  12.400 -1.3870  0.5661 -1.3043
 5083TIP3   OH236739   6.187   3.718  12.619 -0.9487 -0.4858 -0.2199
 5083TIP3    H136740   6.136   3.683  12.692 -1.0667 -0.4920 -0.3052
 5083TIP3    H236741   6.264   3.662  12.614 -0.2513  0.3407  0.7809
 5084TIP3   OH236742   5.747   6.348  12.534  0.8041 -0.4014  0.1095
 5084TIP3    H136743   5.838   6.320  12.540  1.0366 -0.2357 -1.7982
 5084TIP3    H236744   5.697   6.266  12.522  1.0981 -0.3358 -1.9825
 5085TIP3   OH236745   4.631   4.561   3.493 -0.0359  0.6283  0.1512
 5085TIP3    H136746   4.550   4.603   3.521 -0.6872 -1.2313  1.1930
 5085TIP3    H236747   4.614   4.534   3.403 -0.9707 -0.6239  0.6777
 5086TIP3   OH236748   6.738   3.923  14.147 -0.5319  0.0696 -0.0610
 5086TIP3    H136749   6.740   3.991  14.080 -4.0094  0.2526 -0.1780
 5086TIP3    H236750   6.745   3.970  14.230 -3.0574  0.7393 -0.1339
 5087TIP3   OH236751   5.797   6.476  16.237 -0.2067 -0.1815 -0.6290
 5087TIP3    H136752   5.796   6.532  16.315 -0.6233 -1.2006  0.1178
 5087TIP3    H236753   5.784   6.388  16.270 -0.8929 -0.5917 -1.8970
 5088TIP3   OH236754   5.924   4.220  16.052 -0.4392 -0.5218  0.3042
 5088TIP3    H136755   5.931   4.207  15.958  1.8514 -0.8057  0.4582
 5088TIP3    H236756   5.973   4.147  16.090 -1.8072 -0.7489  1.7703
 5089TIP3   OH236757   2.779   0.538   0.303 -0.0451 -0.2148 -0.2065
 5089TIP3    H136758   2.775   0.517   0.396  0.1608  1.1689  0.1215
 5089TIP3    H236759   2.728   0.618   0.294  0.2488 -0.1323 -1.2300
 5090TIP3   OH236760   0.737   5.337  12.185 -0.1239  0.2730 -0.4734
 5090TIP3    H136761   0.681   5.396  12.134 -0.1701 -0.5831 -1.4529
 5090TIP3    H236762   0.723   5.251  12.145  3.3738  0.3073 -2.0843
 5091TIP3   OH236763   5.375   3.465   3.344 -0.0211 -0.5241 -0.6475
 5091TIP3    H136764   5.359   3.549   3.301  0.0599  1.5706  3.0039
 5091TIP3    H236765   5.469   3.450   3.332  0.5935  1.4921  0.9865
 5092TIP3   OH236766   0.192   2.657   2.079  0.3762  0.4260  0.5874
 5092TIP3    H136767   0.217   2.591   2.144 -0.8591  1.4681  2.2110
 5092TIP3    H236768   0.097   2.648   2.070  0.7289 -1.5819 -3.3204
 5093TIP3   OH236769   1.983   6.023   1.690  0.2926 -0.3002  0.0490
 5093TIP3    H136770   1.894   5.997   1.715  0.0771  0.7142  0.4119
 5093TIP3    H236771   1.995   6.109   1.732  1.4978 -0.4858  0.1228
 5094TIP3   OH236772   0.235   1.294  13.717  0.1553  0.0824 -0.7330
 5094TIP3    H136773   0.205   1.206  13.739  0.0150  0.0558 -1.0227
 5094TIP3    H236774   0.167   1.352  13.751  1.0753  0.1961  0.9929
 5095TIP3   OH236775   5.862   5.686  15.125  0.1121 -0.3646 -0.1393
 5095TIP3    H136776   5.879   5.779  15.111 -2.0906 -0.1354 -1.8572
 5095TIP3    H236777   5.883   5.645  15.041 -0.3336 -1.2021  0.1461
 5096TIP3   OH236778   1.396   2.599   1.038 -0.6725  0.1744  0.2568
 5096TIP3    H136779   1.447   2.680   1.037  0.1956 -0.3089 -2.7363
 5096TIP3    H236780   1.305   2.628   1.040 -0.3629  1.2415 -0.3917
 5097TIP3   OH236781   2.204   0.765  11.028 -0.6751 -0.0210 -0.0536
 5097TIP3    H136782   2.248   0.680  11.028 -3.6871 -1.7555  0.1448
 5097TIP3    H236783   2.143   0.760  11.102 -2.6018  1.2805 -1.4535
 5098TIP3   OH236784   5.590   4.683  15.317 -0.0648  0.3046 -0.3898
 5098TIP3    H136785   5.685   4.673  15.316 -0.1912 -1.3214  0.2828
 5098TIP3    H236786   5.575   4.768  15.357  1.0969  0.0053  0.7436
 5099TIP3   OH236787   4.699   1.526  11.257 -0.1160 -0.3163  0.6188
 5099TIP3    H136788   4.787   1.563  11.244  0.1061 -1.4589 -1.7842
 5099TIP3    H236789   4.714   1.432  11.262 -1.1856 -0.5176  0.2621
 5100TIP3   OH236790   6.099   4.030  13.162 -0.1836 -0.3219 -0.5048
 5100TIP3    H136791   6.081   4.123  13.180  1.4138 -0.2847  1.0818
 5100TIP3    H236792   6.037   3.983  13.217  0.1760 -0.1864  0.0234
 5101TIP3   OH236793   1.383   5.177  16.493  0.2398  0.3274  0.3152
 5101TIP3    H136794   1.478   5.175  16.487  0.1846 -0.9124 -0.5141
 5101TIP3    H236795   1.354   5.217  16.411  0.0425  0.4580  0.4480
 5102TIP3   OH236796   4.685   5.731  14.737  0.8744 -0.8370 -0.1572
 5102TIP3    H136797   4.685   5.673  14.661  0.1494 -1.0409 -0.0021
 5102TIP3    H236798   4.726   5.680  14.806  0.1074 -1.2240  0.0187
 5103TIP3   OH236799   6.765   4.822  12.589  0.1754  0.0449 -0.3065
 5103TIP3    H136800   6.714   4.757  12.541 -0.4902  0.1936  0.1981
 5103TIP3    H236801   6.848   4.827  12.540 -0.6747  0.6043 -1.7660
 5104TIP3   OH236802   5.178   6.074  13.315  0.2432 -0.0324 -0.0935
 5104TIP3    H136803   5.252   6.101  13.369  0.9813 -0.8748 -0.6556
 5104TIP3    H236804   5.210   6.081  13.225 -1.4253  2.7662 -0.5980
 5105TIP3   OH236805   6.327   3.342   0.236  0.2341 -0.2505  0.8868
 5105TIP3    H136806   6.282   3.378   0.313 -1.3379 -0.3553  0.0463
 5105TIP3    H236807   6.298   3.251   0.232  0.8030 -0.4189  0.5301
 5106TIP3   OH236808   6.056   5.838   0.513 -0.4372  0.4253 -0.0896
 5106TIP3    H136809   6.136   5.891   0.506  0.2165 -0.6314 -1.1161
 5106TIP3    H236810   6.085   5.758   0.556 -0.9711  0.1068 -0.3168
 5107TIP3   OH236811   5.686   0.028   5.313 -0.3804  0.8436  0.2101
 5107TIP3    H136812   5.685   0.110   5.264 -0.1581 -0.1469 -1.5272
 5107TIP3    H236813   5.597  -0.006   5.305  0.0840 -0.1267 -0.9343
 5108TIP3   OH236814   6.188   3.318  15.483  0.2867 -0.0188  0.5868
 5108TIP3    H136815   6.107   3.341  15.529 -0.7310 -2.2466  0.0328
 5108TIP3    H236816   6.255   3.314  15.551 -0.0615  1.7036  1.0722
 5109TIP3   OH236817   1.357   0.767   1.039 -0.0015  0.1456 -0.4484
 5109TIP3    H136818   1.401   0.822   0.974  1.7945 -0.2577  0.3529
 5109TIP3    H236819   1.279   0.735   0.995 -0.3477  2.1631 -1.4190
 5110TIP3   OH236820   2.901   5.990  13.751  0.5857  0.7921 -0.0762
 5110TIP3    H136821   2.950   5.914  13.722  0.9356  1.2176 -0.6209
 5110TIP3    H236822   2.809   5.963  13.745  0.7298  0.1501  0.5161
 5111TIP3   OH236823   3.054   1.230   3.450 -0.4399  0.4334  0.2514
 5111TIP3    H136824   2.976   1.214   3.504  0.6797  0.8309  2.0616
 5111TIP3    H236825   3.081   1.318   3.474  2.8567 -1.0572  2.8000
 5112TIP3   OH236826   4.110   3.777   4.895  0.7503 -0.0839  0.3408
 5112TIP3    H136827   4.182   3.813   4.843  1.8692  1.6120  2.8903
 5112TIP3    H236828   4.111   3.828   4.976 -0.8226 -2.6617  2.1143
 5113TIP3   OH236829   2.767   6.775   4.661 -0.1988 -0.1053 -0.1931
 5113TIP3    H136830   2.762   6.859   4.614  1.8930 -0.9949 -2.2176
 5113TIP3    H236831   2.737   6.710   4.597  1.6279 -1.2435  0.0285
 5114TIP3   OH236832   3.613   5.291  16.244 -0.8297 -0.0241  0.3417
 5114TIP3    H136833   3.561   5.264  16.169 -2.0697  0.6476  0.9176
 5114TIP3    H236834   3.606   5.219  16.306  1.1563 -1.0971 -0.5884
 5115TIP3   OH236835   5.131   4.533   0.665 -0.0773 -0.4319 -0.0881
 5115TIP3    H136836   5.093   4.496   0.744 -3.1352  0.5947 -0.9238
 5115TIP3    H236837   5.169   4.616   0.693 -0.5021 -0.4176  0.4623
 5116TIP3   OH236838   4.212   3.790  12.147 -0.6108 -0.6004 -0.2090
 5116TIP3    H136839   4.286   3.839  12.109  0.0768 -0.3494  1.3889
 5116TIP3    H236840   4.167   3.854  12.202 -1.2163 -1.1210 -0.0867
 5117TIP3   OH236841   4.359   6.302  14.709 -0.5622  0.0999 -0.2465
 5117TIP3    H136842   4.305   6.355  14.768 -0.6726  0.4460 -0.6550
 5117TIP3    H236843   4.347   6.341  14.623  0.0827 -0.0244 -0.4022
 5118TIP3   OH236844   6.114   6.759   5.518 -0.0449 -0.0190 -0.0704
 5118TIP3    H136845   6.136   6.678   5.566 -0.1364 -0.1462 -0.2422
 5118TIP3    H236846   6.036   6.791   5.562 -1.2572 -1.1491 -1.3033
 5119TIP3   OH236847   6.313   1.681  13.143 -0.3735  0.2544  0.2873
 5119TIP3    H136848   6.392   1.687  13.089 -0.4556 -1.3177 -0.0542
 5119TIP3    H236849   6.261   1.758  13.118 -0.5156 -0.5145 -2.0873
 5120TIP3   OH236850   3.031   3.708  14.855  0.6869 -0.2925  0.2638
 5120TIP3    H136851   2.947   3.713  14.811  0.2143 -1.0717  1.0518
 5120TIP3    H236852   3.042   3.794  14.896  1.6005  0.8183 -2.1328
 5121TIP3   OH236853   2.380   4.974   6.009  0.4798  0.2524  0.8156
 5121TIP3    H136854   2.474   4.994   6.008  0.4895  0.2468 -1.0499
 5121TIP3    H236855   2.353   4.982   5.918 -1.1415 -0.6713  1.1842
 5122TIP3   OH236856   6.846   1.068   0.880  0.3778 -0.1283  0.1789
 5122TIP3    H136857   6.927   1.111   0.909  0.0801  0.2753  0.4268
 5122TIP3    H236858   6.811   1.025   0.958  0.5792 -0.6780 -0.0285
 5123TIP3   OH236859   4.292   1.290  14.957  0.3316  0.0461 -0.4436
 5123TIP3    H136860   4.231   1.337  14.900  0.4796  1.1756  0.2965
 5123TIP3    H236861   4.336   1.228  14.899 -1.2135 -0.5151 -1.0755
 5124TIP3   OH236862   4.850   6.585   3.537  0.5085 -0.8104  0.0826
 5124TIP3    H136863   4.760   6.571   3.507  0.8006 -0.1556 -1.1538
 5124TIP3    H236864   4.841   6.648   3.609 -0.0832 -1.4151  0.5608
 5125TIP3   OH236865   2.299   5.297  13.384  0.4510 -0.6325 -0.3674
 5125TIP3    H136866   2.307   5.303  13.479  1.2193  1.0836 -0.4930
 5125TIP3    H236867   2.340   5.214  13.361 -0.5745 -1.5117  0.8574
 5126TIP3   OH236868   5.947   0.235   5.529 -0.0790  0.4906 -0.3715
 5126TIP3    H136869   5.907   0.230   5.442 -0.0682  0.9108 -0.4014
 5126TIP3    H236870   5.932   0.148   5.567 -1.0458  0.6378 -0.3762
 5127TIP3   OH236871   6.113   3.400  13.677 -0.0501  0.3116  0.2766
 5127TIP3    H136872   6.038   3.415  13.735  1.1358  1.4571  1.6291
 5127TIP3    H236873   6.156   3.323  13.714  0.5967  0.9275  0.8630
 5128TIP3   OH236874   0.395   4.009  15.897  0.0029  0.2993  0.7389
 5128TIP3    H136875   0.455   4.082  15.908  0.3141  0.0585  0.6474
 5128TIP3    H236876   0.427   3.964  15.818 -2.7208  2.5693 -1.9420
 5129TIP3   OH236877   4.071   0.317  12.149 -0.4339 -0.5138 -0.4612
 5129TIP3    H136878   4.036   0.228  12.142 -2.8920  0.3009  0.2986
 5129TIP3    H236879   4.096   0.340  12.059 -2.2905 -1.0617 -1.1654
 5130TIP3   OH236880   3.992   5.954  14.902  0.0806  0.6510  0.0965
 5130TIP3    H136881   4.050   5.893  14.857 -0.8815  0.5614 -1.0879
 5130TIP3    H236882   3.909   5.948  14.854 -0.7655  1.1260  1.4247
 5131TIP3   OH236883   3.973   4.651   4.953  0.0494 -0.1730  0.2398
 5131TIP3    H136884   4.060   4.688   4.965 -0.9756  1.7245  2.7206
 5131TIP3    H236885   3.953   4.665   4.860  2.6140 -1.3641 -0.5718
 5132TIP3   OH236886   2.924   3.609  16.141  0.5638  0.2612 -0.1504
 5132TIP3    H136887   2.949   3.549  16.212  2.1247 -0.1159 -0.9667
 5132TIP3    H236888   2.941   3.696  16.176  1.3766  0.0742 -0.0584
 5133TIP3   OH236889   3.933   3.313  11.665 -0.5400  0.6842  0.2621
 5133TIP3    H136890   3.898   3.242  11.720 -0.0319  1.2411  1.3470
 5133TIP3    H236891   4.006   3.348  11.715  2.4529 -1.1899 -2.4624
 5134TIP3   OH236892   1.269   6.299  17.197 -0.0094  0.1429 -0.3721
 5134TIP3    H136893   1.290   6.351  17.119  2.9898  1.4703  1.1725
 5134TIP3    H236894   1.327   6.222  17.190  0.9779  0.7249  0.9089
 5135TIP3   OH236895   1.683   4.477  11.628 -0.1021 -0.2719 -0.2281
 5135TIP3    H136896   1.674   4.554  11.571 -1.5124 -0.1221  0.1654
 5135TIP3    H236897   1.593   4.452  11.649  0.3647 -1.3505  0.5735
 5136TIP3   OH236898   3.491   4.526  15.030 -0.3541 -0.0699  0.0998
 5136TIP3    H136899   3.498   4.619  15.053 -0.1735  0.1948 -0.9761
 5136TIP3    H236900   3.580   4.499  15.010 -0.5503 -0.1815 -0.6557
 5137TIP3   OH236901   1.759   0.621  11.214 -0.5198 -0.2344 -0.2069
 5137TIP3    H136902   1.691   0.593  11.153  0.2539  0.4845 -1.4267
 5137TIP3    H236903   1.796   0.540  11.248 -1.3854 -0.6330 -0.1843
 5138TIP3   OH236904   5.485   2.010  14.813  0.4202 -0.0938  0.4552
 5138TIP3    H136905   5.528   1.926  14.801  0.5091  0.0761 -0.5423
 5138TIP3    H236906   5.556   2.074  14.805  0.4702  0.0586  1.8998
 5139TIP3   OH236907   0.717   5.804  11.339 -0.2189 -0.6712  0.3217
 5139TIP3    H136908   0.678   5.720  11.315 -0.5821 -0.1611 -0.9410
 5139TIP3    H236909   0.794   5.781  11.392 -1.1471 -1.7398  1.2591
 5140TIP3   OH236910   1.180   1.104   6.119 -0.1949  0.0318 -0.0656
 5140TIP3    H136911   1.218   1.190   6.101  1.0232 -0.8284 -1.9218
 5140TIP3    H236912   1.252   1.053   6.155 -0.5875 -0.5525 -0.0977
 5141TIP3   OH236913   6.666   1.096   5.972 -0.8518  0.6587  0.2324
 5141TIP3    H136914   6.614   1.058   6.043 -0.8098  0.9453  0.4151
 5141TIP3    H236915   6.650   1.037   5.898 -1.0105  0.4405  0.4360
 5142TIP3   OH236916   0.743   3.491   5.196 -0.1348  0.7058  0.1904
 5142TIP3    H136917   0.677   3.560   5.193 -1.4145 -0.4994 -0.2035
 5142TIP3    H236918   0.703   3.417   5.150  1.0376 -0.4332  0.9409
 5143TIP3   OH236919   6.125   2.010  13.931  0.4153  0.3641 -0.1990
 5143TIP3    H136920   6.138   1.931  13.983 -0.2817 -0.3945 -1.1299
 5143TIP3    H236921   6.194   2.007  13.865  1.4872  1.4842  0.8364
 5144TIP3   OH236922   1.318   5.840  16.539 -0.0310  0.1723  0.3990
 5144TIP3    H136923   1.231   5.866  16.509  0.6379 -0.3439 -2.2366
 5144TIP3    H236924   1.374   5.915  16.518  0.3982  0.0215  0.9654
 5145TIP3   OH236925   2.544   0.327   2.252  0.1626 -0.6893  0.2716
 5145TIP3    H136926   2.562   0.421   2.254 -0.2905 -0.6050  0.4255
 5145TIP3    H236927   2.576   0.295   2.336 -1.9055 -0.2552  1.2829
 5146TIP3   OH236928   3.665   2.983  14.189  0.0798  0.1639  0.1120
 5146TIP3    H136929   3.586   3.018  14.148 -0.4819  0.1837  1.1705
 5146TIP3    H236930   3.723   2.964  14.116 -0.5892  0.9090 -0.6414
 5147TIP3   OH236931   4.977   4.392   3.912 -0.2264 -0.2263  0.0390
 5147TIP3    H136932   4.914   4.414   3.981  0.3866  0.6155  0.3475
 5147TIP3    H236933   4.932   4.326   3.859  0.0124 -2.4212  2.3611
 5148TIP3   OH236934   6.694   0.365  15.151 -0.4532  0.3745 -0.6432
 5148TIP3    H136935   6.776   0.381  15.196 -0.2472  0.3530 -1.0051
 5148TIP3    H236936   6.633   0.428  15.190 -0.7962 -0.9243  1.0044
 5149TIP3   OH236937   0.904   4.806   6.780 -0.8119  0.2893 -0.3076
 5149TIP3    H136938   0.914   4.901   6.774  0.8435  0.1800  0.1074
 5149TIP3    H236939   0.915   4.774   6.690  3.5835  0.1843  0.0654
 5150TIP3   OH236940   6.063   1.838   4.360  0.3948 -0.2840  0.3531
 5150TIP3    H136941   6.072   1.928   4.391 -1.0669 -0.3557  1.0956
 5150TIP3    H236942   6.142   1.793   4.391  0.3301  0.3494  1.4809
 5151TIP3   OH236943   5.833   4.122  10.421  0.7634 -0.0006  0.5550
 5151TIP3    H136944   5.776   4.173  10.364  4.1041  1.7260 -1.5250
 5151TIP3    H236945   5.833   4.170  10.504 -1.5535 -0.6970  1.0411
 5152TIP3   OH236946   1.724   1.714  15.064 -0.2137 -0.0582  0.5894
 5152TIP3    H136947   1.818   1.730  15.070 -0.3037  1.2746 -0.8690
 5152TIP3    H236948   1.701   1.742  14.975 -1.7031 -1.9568  0.3315
 5153TIP3   OH236949   2.421   3.458   1.783  0.0530 -0.1687  0.6032
 5153TIP3    H136950   2.464   3.485   1.864 -0.9799 -0.1396  1.1582
 5153TIP3    H236951   2.427   3.534   1.726 -1.3286  0.6677  1.5325
 5154TIP3   OH236952   4.481   4.254  11.096  0.7900  0.1251  0.6457
 5154TIP3    H136953   4.456   4.182  11.153 -0.4145  0.2287  0.2859
 5154TIP3    H236954   4.398   4.290  11.065  1.3886  0.0902 -1.1576
 5155TIP3   OH236955   0.622   6.143   1.607  0.2430 -0.4671 -0.4195
 5155TIP3    H136956   0.701   6.184   1.643 -0.0341 -1.9364  2.1049
 5155TIP3    H236957   0.628   6.052   1.635 -1.1984 -1.2090 -2.2873
 5156TIP3   OH236958   0.161   4.561  16.970 -0.1045 -0.1256 -0.3685
 5156TIP3    H136959   0.236   4.591  17.021 -0.5713  0.6385 -0.1144
 5156TIP3    H236960   0.085   4.602  17.013 -0.5062  0.5754 -1.7171
 5157TIP3   OH236961   1.785   3.326   0.395 -0.4808 -0.5536  0.2091
 5157TIP3    H136962   1.710   3.287   0.440 -2.1587  0.1253 -1.8152
 5157TIP3    H236963   1.777   3.297   0.304  0.3344  1.4299 -0.5743
 5158TIP3   OH236964   0.923   3.209  12.668 -0.3018  0.2945 -0.6420
 5158TIP3    H136965   1.015   3.185  12.659 -0.4084 -1.2624  1.6167
 5158TIP3    H236966   0.878   3.125  12.677 -1.4863  1.1138  1.6966
 5159TIP3   OH236967   5.790   0.801   0.022 -0.5753 -0.4580 -0.0156
 5159TIP3    H136968   5.772   0.887  -0.016  0.1037 -0.0816  0.5005
 5159TIP3    H236969   5.875   0.811   0.064 -0.5059 -1.3798  0.0738
 5160TIP3   OH236970   2.736   3.610   0.060 -0.0034  0.4326  0.0653
 5160TIP3    H136971   2.649   3.613   0.022  0.0039  0.6450  0.0650
 5160TIP3    H236972   2.793   3.648  -0.007  0.1547 -0.1059 -0.1124
 5161TIP3   OH236973   2.877   0.636  16.497 -0.2964  1.0179 -0.0858
 5161TIP3    H136974   2.884   0.541  16.507  1.2245  1.0616 -0.4913
 5161TIP3    H236975   2.786   0.652  16.471 -1.4520 -0.0428  2.9102
 5162TIP3   OH236976   6.385   3.241  10.151 -0.4493 -0.0171  0.3909
 5162TIP3    H136977   6.342   3.324  10.170 -0.5675 -0.2666  1.2340
 5162TIP3    H236978   6.476   3.264  10.134 -1.0621  0.6672 -2.5605
 5163TIP3   OH236979   3.112   6.219  14.469  0.1200 -0.0073 -0.2218
 5163TIP3    H136980   3.153   6.139  14.435 -1.2376 -0.8071 -0.0530
 5163TIP3    H236981   3.104   6.276  14.392 -1.2221 -1.0636 -0.9205
 5164TIP3   OH236982   2.900   6.782   4.905 -0.2360  0.1224  0.1424
 5164TIP3    H136983   2.980   6.758   4.858 -1.5170  0.0461 -2.1619
 5164TIP3    H236984   2.835   6.794   4.836 -1.3733  3.7470  1.6015
 5165TIP3   OH236985   2.741   2.217  14.076 -0.2553 -0.6486  0.1835
 5165TIP3    H136986   2.735   2.138  14.022 -1.2637 -1.1985  1.0732
 5165TIP3    H236987   2.834   2.225  14.097  0.3178 -0.0139 -2.1772
 5166TIP3   OH236988   5.231   2.392  14.162 -0.2924  0.9640  0.4856
 5166TIP3    H136989   5.261   2.468  14.113 -0.8061  0.3794 -0.7699
 5166TIP3    H236990   5.246   2.318  14.104 -2.1464  0.4075  0.6449
 5167TIP3   OH236991   5.383   5.125   5.435 -0.5968 -0.1733  0.2532
 5167TIP3    H136992   5.329   5.048   5.418  0.2693 -0.6362 -0.5140
 5167TIP3    H236993   5.404   5.119   5.528  0.8859 -1.8512 -0.1272
 5168TIP3   OH236994   0.327   6.254  15.458 -0.0441  0.5881 -0.5358
 5168TIP3    H136995   0.351   6.289  15.373  0.2075  1.7553 -0.0081
 5168TIP3    H236996   0.265   6.183  15.439  0.8940  0.0560 -1.7305
 5169TIP3   OH236997   5.315   5.025   1.572  0.4328 -0.7347  0.7062
 5169TIP3    H136998   5.320   5.065   1.659  0.5310  3.4530 -1.0056
 5169TIP3    H236999   5.233   5.057   1.535  1.2225 -0.9397 -1.3671
 5170TIP3   OH237000   2.744   4.648  15.477  0.1589 -0.0707 -1.3205
 5170TIP3    H137001   2.735   4.555  15.459  0.8066 -0.2412 -0.8056
 5170TIP3    H237002   2.668   4.670  15.531  1.8752 -1.1590  1.7640
 5171TIP3   OH237003   0.368   0.895  12.791  0.1663 -0.3963 -0.2135
 5171TIP3    H137004   0.359   0.963  12.858  1.9464  0.0236 -0.3496
 5171TIP3    H237005   0.345   0.814  12.836 -1.7164  0.2252  0.0269
 5172TIP3   OH237006   6.707   5.807   5.218  0.1699  0.4045 -0.5589
 5172TIP3    H137007   6.616   5.808   5.249 -0.7361  0.6373 -3.0271
 5172TIP3    H237008   6.704   5.754   5.138  1.8643  1.7841 -1.5982
 5173TIP3   OH237009   2.788   3.175  11.547  0.5608 -0.2408  0.2047
 5173TIP3    H137010   2.846   3.104  11.574  2.2932  0.2449 -1.8858
 5173TIP3    H237011   2.798   3.178  11.452 -1.2783  1.3078  0.0056
 5174TIP3   OH237012   6.795   4.025  10.657 -0.0557 -0.0578  0.0559
 5174TIP3    H137013   6.882   3.988  10.674 -0.0747 -0.6226 -0.9649
 5174TIP3    H237014   6.795   4.041  10.562 -0.1648  2.2879  0.3770
 5175TIP3   OH237015   3.669   0.422   3.286  0.3117  0.2748  0.1671
 5175TIP3    H137016   3.593   0.434   3.343 -0.7112  0.8285 -1.2814
 5175TIP3    H237017   3.743   0.455   3.338 -0.2061 -1.3540  2.0587
 5176TIP3   OH237018   4.855   6.348  13.327  0.3140 -0.4686  0.1448
 5176TIP3    H137019   4.886   6.257  13.332  1.2727 -0.1164  0.7982
 5176TIP3    H237020   4.788   6.346  13.258 -1.3722 -2.1424  1.6798
 5177TIP3   OH237021   0.014   3.398   0.411 -0.1665 -0.0725 -0.5918
 5177TIP3    H137022   0.097   3.438   0.386  0.1690 -1.2123 -1.3226
 5177TIP3    H237023  -0.047   3.472   0.415  0.4805  0.5491 -1.7135
 5178TIP3   OH237024   4.907   4.039   4.410  0.0182 -0.8608 -0.1865
 5178TIP3    H137025   4.812   4.051   4.417  0.1177 -0.7637  1.3921
 5178TIP3    H237026   4.922   4.019   4.318 -1.5998 -1.4869 -0.3422
 5179TIP3   OH237027   0.114   4.963   3.098 -0.2416  0.0211 -0.1535
 5179TIP3    H137028   0.088   5.045   3.139  0.5859  0.3413 -0.2554
 5179TIP3    H237029   0.042   4.903   3.116 -0.1185  0.2974  1.3481
 5180TIP3   OH237030   3.236   6.352   1.128 -0.6413  0.2668 -0.2354
 5180TIP3    H137031   3.165   6.290   1.144 -0.1989 -0.0731  0.4604
 5180TIP3    H237032   3.290   6.311   1.060 -0.3045 -0.1573  0.2813
 5181TIP3   OH237033   4.551   3.335   3.592  0.2677  0.0294 -0.0880
 5181TIP3    H137034   4.582   3.408   3.538 -1.1617  0.0536 -0.9501
 5181TIP3    H237035   4.517   3.377   3.671 -0.0312  0.2686 -0.3359
 5182TIP3   OH237036   2.907   2.028   3.075 -0.5650  0.3895 -0.2753
 5182TIP3    H137037   2.966   1.989   3.139 -0.1972 -1.4247 -1.6128
 5182TIP3    H237038   2.846   2.080   3.126 -0.7101 -1.5284  1.6215
 5183TIP3   OH237039   4.401   0.575  16.599 -0.1901 -0.2702 -0.0238
 5183TIP3    H137040   4.419   0.483  16.618 -0.0687 -0.2856 -0.2105
 5183TIP3    H237041   4.418   0.584  16.505  0.8733  0.1897  0.1855
 5184TIP3   OH237042   1.796   2.274   2.090  0.5878 -0.2422  0.0096
 5184TIP3    H137043   1.779   2.355   2.138 -0.8366  0.0721 -0.9738
 5184TIP3    H237044   1.881   2.288   2.048  1.3830 -0.1376  1.5705
 5185TIP3   OH237045   6.670   1.462   1.285 -0.5851  0.4153  0.3041
 5185TIP3    H137046   6.664   1.529   1.353  1.6702  1.4353 -0.3819
 5185TIP3    H237047   6.744   1.407   1.312 -0.5047  0.0404 -0.6307
 5186TIP3   OH237048   2.345   6.448  13.436  0.0314  0.0183  0.0073
 5186TIP3    H137049   2.364   6.430  13.528  0.2990 -1.3490 -0.2967
 5186TIP3    H237050   2.260   6.408  13.421  0.9738 -1.7703 -0.8771
 5187TIP3   OH237051   3.252   0.296  12.737 -0.3802 -0.1194 -0.0329
 5187TIP3    H137052   3.205   0.302  12.653  1.3535 -0.1419 -1.0561
 5187TIP3    H237053   3.240   0.205  12.765 -0.9942 -0.1047 -0.2159
 5188TIP3   OH237054   3.398   5.875  14.884  0.2580  0.3412 -0.5806
 5188TIP3    H137055   3.329   5.811  14.902  0.0949  0.6241 -0.1913
 5188TIP3    H237056   3.382   5.946  14.946  0.8804  0.4276 -0.5114
 5189TIP3   OH237057   1.123   3.918   1.972 -0.5584  0.4784  0.3611
 5189TIP3    H137058   1.193   3.941   2.033  0.8829  0.6494 -1.2533
 5189TIP3    H237059   1.080   3.843   2.011  2.2903 -1.3907  0.2385
 5190TIP3   OH237060   3.123   4.296  15.515 -0.9991 -0.2929  0.4524
 5190TIP3    H137061   3.090   4.359  15.451 -3.0268  1.1024  2.6780
 5190TIP3    H237062   3.146   4.349  15.591  2.3145 -1.7540  0.6358
 5191TIP3   OH237063   3.544   3.301   5.517 -0.0879  0.6930 -0.9909
 5191TIP3    H137064   3.599   3.316   5.593 -0.5360 -0.1552 -0.4847
 5191TIP3    H237065   3.554   3.380   5.464  1.2739  0.7260 -0.7126
 5192TIP3   OH237066   2.515   2.033  17.064  1.1418 -0.4941  0.2012
 5192TIP3    H137067   2.524   1.969  17.135 -0.7938 -0.7149  0.3003
 5192TIP3    H237068   2.425   2.063  17.071  1.1331  0.0144 -1.7328
 5193TIP3   OH237069   4.115   3.577   4.639 -0.1745  0.0009 -0.4807
 5193TIP3    H137070   4.165   3.641   4.588 -0.0706 -1.1915 -1.9386
 5193TIP3    H237071   4.148   3.492   4.609 -0.7238 -0.7602  0.9820
 5194TIP3   OH237072   5.094   4.709   3.313  0.2679 -0.3167  0.6363
 5194TIP3    H137073   5.164   4.755   3.268 -0.8324  0.7502 -0.0539
 5194TIP3    H237074   5.105   4.732   3.405  0.6079  0.1477  0.4815
 5195TIP3   OH237075   6.735   6.579  15.689  0.1172 -0.4612  0.0801
 5195TIP3    H137076   6.766   6.669  15.678  1.0987 -1.0710 -3.2875
 5195TIP3    H237077   6.808   6.524  15.657 -0.1828 -2.5622  2.6285
 5196TIP3   OH237078   0.864   2.904   4.624  0.2924  0.2131 -0.2937
 5196TIP3    H137079   0.941   2.930   4.574 -0.3783  0.8510 -1.0186
 5196TIP3    H237080   0.894   2.902   4.715  1.1676  0.4191 -0.5708
 5197TIP3   OH237081   0.395   0.829   0.178 -0.3021  0.2950 -0.9620
 5197TIP3    H137082   0.375   0.735   0.178  2.0611 -0.2821 -1.4516
 5197TIP3    H237083   0.482   0.834   0.217 -0.3698  2.3112 -0.9951
 5198TIP3   OH237084   3.144   2.293  15.693  0.2520  0.7592 -0.3071
 5198TIP3    H137085   3.078   2.253  15.750  3.1477 -3.9050  0.2914
 5198TIP3    H237086   3.120   2.263  15.605  2.2300 -2.5852  0.1041
 5199TIP3   OH237087   2.730   1.863   4.177  0.0351 -0.4507 -0.2238
 5199TIP3    H137088   2.752   1.914   4.256 -0.5874  1.1403 -1.0441
 5199TIP3    H237089   2.645   1.824   4.197  0.4911 -1.1853  0.3862
 5200TIP3   OH237090   2.100   4.527  12.718  0.6241  0.2028 -0.1898
 5200TIP3    H137091   2.035   4.547  12.651 -0.5562  0.4373  0.9735
 5200TIP3    H237092   2.166   4.474  12.673 -1.3296 -1.6864 -1.0182
 5201TIP3   OH237093   3.351   2.156  15.459  0.1195 -0.5893  0.1580
 5201TIP3    H137094   3.378   2.115  15.377 -0.1193 -0.6904  0.1296
 5201TIP3    H237095   3.266   2.117  15.479  0.3896 -0.8999  0.6971
 5202TIP3   OH237096   3.640   6.178   0.794  0.1577  0.2362 -0.0451
 5202TIP3    H137097   3.590   6.214   0.720  1.1295  1.9755  0.0999
 5202TIP3    H237098   3.696   6.111   0.754 -0.4041  0.1055 -0.6364
 5203TIP3   OH237099   0.850   0.793  15.552  0.0348 -0.0529 -0.8175
 5203TIP3    H137100   0.931   0.819  15.595 -0.1590 -1.2599  0.3580
 5203TIP3    H237101   0.874   0.783  15.460  1.4116 -0.9903 -0.3985
 5204TIP3   OH237102   1.116   1.007  11.244 -0.1666  1.0112  0.0775
 5204TIP3    H137103   1.037   1.061  11.237 -0.1592  1.0212  0.0702
 5204TIP3    H237104   1.091   0.936  11.303 -0.2083  0.9649  0.0030
 5205TIP3   OH237105   2.681   0.614  13.808 -0.1744 -0.7524 -0.0362
 5205TIP3    H137106   2.774   0.625  13.788 -0.4897  0.0991 -1.1389
 5205TIP3    H237107   2.678   0.536  13.863  1.1247 -1.2016 -0.5472
 5206TIP3   OH237108   3.214   0.781  16.445  0.0994 -0.1870 -0.2281
 5206TIP3    H137109   3.129   0.764  16.404 -0.5586 -0.5280  1.2176
 5206TIP3    H237110   3.260   0.698  16.439 -0.7220 -0.7956  1.3222
 5207TIP3   OH237111   3.535   1.218   5.970 -0.3670  1.0147  0.4398
 5207TIP3    H137112   3.561   1.162   5.896  1.5210 -0.6154  2.2089
 5207TIP3    H237113   3.593   1.294   5.963 -2.1813  2.3280 -1.3366
 5208TIP3   OH237114   0.467   6.700   3.935 -0.0001  0.0304 -0.6310
 5208TIP3    H137115   0.496   6.789   3.953 -1.7124  0.3924  0.5797
 5208TIP3    H237116   0.429   6.705   3.847 -0.7103  0.6705 -0.2935
 5209TIP3   OH237117   0.918   4.064   2.916  0.2523 -0.5377 -0.2993
 5209TIP3    H137118   0.942   4.060   3.009 -0.9046  1.2946  0.1274
 5209TIP3    H237119   0.913   4.158   2.897 -0.3569 -0.8955 -2.0040
 5210TIP3   OH237120   5.207   3.086  16.449 -0.1228  0.6675 -0.2453
 5210TIP3    H137121   5.300   3.082  16.425 -0.3196 -0.9791 -0.8741
 5210TIP3    H237122   5.165   3.135  16.379 -0.1719 -1.2672 -1.6529
 5211TIP3   OH237123   3.344   4.359   4.109 -0.0296  0.3776  0.2714
 5211TIP3    H137124   3.393   4.279   4.127  1.3178  0.6861 -1.7360
 5211TIP3    H237125   3.361   4.415   4.185  2.7787  0.4727 -0.3333
 5212TIP3   OH237126   1.613   5.215  11.620 -0.4754 -0.4368  0.0621
 5212TIP3    H137127   1.557   5.268  11.563 -0.4457 -1.1661 -0.6584
 5212TIP3    H237128   1.575   5.128  11.617 -1.8849 -0.0365  3.0578
 5213TIP3   OH237129   0.105   4.327  16.509  0.4411 -0.5262  0.0427
 5213TIP3    H137130   0.137   4.280  16.587 -0.8029 -0.6770  0.4832
 5213TIP3    H237131   0.045   4.266  16.467 -0.7284  0.4214  0.2837
 5214TIP3   OH237132   2.964   2.570  14.875  0.4084 -0.2830  0.2189
 5214TIP3    H137133   2.962   2.606  14.964  1.2583 -0.5293  0.3480
 5214TIP3    H237134   3.018   2.492  14.882 -1.0772 -1.3933 -0.1427
 5215TIP3   OH237135   3.127   5.191   3.112 -0.2384  0.0827  0.1034
 5215TIP3    H137136   3.214   5.183   3.152 -1.0879 -1.1063  1.8950
 5215TIP3    H237137   3.139   5.159   3.023  1.5589  1.8789 -0.3647
 5216TIP3   OH237138   4.514   1.427  16.343  0.2965 -0.0667 -0.0908
 5216TIP3    H137139   4.527   1.437  16.249  0.1045 -0.3128 -0.1449
 5216TIP3    H237140   4.490   1.514  16.374 -0.8982 -0.2385 -0.4752
 5217TIP3   OH237141   5.189   2.411   4.819 -0.0825  1.7628  0.3412
 5217TIP3    H137142   5.151   2.343   4.763  0.9240  2.1476 -0.8617
 5217TIP3    H237143   5.282   2.412   4.795  0.2270  2.4642  1.5021
 5218TIP3   OH237144   6.589   2.419   3.610 -0.0176 -0.2695 -0.3179
 5218TIP3    H137145   6.621   2.508   3.599 -0.0967 -0.2483 -0.3841
 5218TIP3    H237146   6.588   2.383   3.521  3.4180 -1.5481  0.0095
 5219TIP3   OH237147   4.451   6.595  15.274  0.4120 -0.4482  0.9192
 5219TIP3    H137148   4.486   6.612  15.361 -1.2701  1.7244  1.2780
 5219TIP3    H237149   4.360   6.569  15.289 -0.2796  1.1366 -0.1549
 5220TIP3   OH237150   0.576   5.490  14.839 -0.1421  0.2663  0.3032
 5220TIP3    H137151   0.624   5.569  14.815 -0.8183  1.7227  3.2119
 5220TIP3    H237152   0.626   5.418  14.802  1.7079  1.9552 -0.6236
 5221TIP3   OH237153   3.763   6.190  12.249 -0.6461 -0.2931 -0.4014
 5221TIP3    H137154   3.811   6.252  12.303 -2.2094  0.2337  0.4415
 5221TIP3    H237155   3.794   6.207  12.160  0.2621  0.4454  0.0361
 5222TIP3   OH237156   4.272   6.131   2.368 -0.2361 -0.0658  0.2352
 5222TIP3    H137157   4.238   6.157   2.453  0.9331 -1.2468  1.1018
 5222TIP3    H237158   4.217   6.058   2.341  0.5100 -0.8755  0.8505
 5223TIP3   OH237159   4.777   0.352  15.902 -0.6404 -0.1246  0.0842
 5223TIP3    H137160   4.859   0.360  15.853 -0.9636 -0.6247 -0.5575
 5223TIP3    H237161   4.759   0.440  15.934 -0.1420  0.0984 -0.2328
 5224TIP3   OH237162   1.845   4.975  14.704  0.2846  0.1382  0.8613
 5224TIP3    H137163   1.914   5.015  14.757  0.6815  0.4940  0.1017
 5224TIP3    H237164   1.893   4.925  14.637 -0.1898  0.4526  0.2780
 5225TIP3   OH237165   1.934   2.723  13.835 -0.5843  0.2435 -0.5281
 5225TIP3    H137166   2.010   2.766  13.795 -0.6023  2.5957  1.7371
 5225TIP3    H237167   1.955   2.718  13.928 -1.6531 -2.6206 -0.3372
 5226TIP3   OH237168   3.679   4.719  13.113 -0.5036 -0.0768  0.2738
 5226TIP3    H137169   3.671   4.746  13.022 -0.1857  0.2451  0.3357
 5226TIP3    H237170   3.752   4.656  13.113 -0.0052  0.4894  0.4160
 5227TIP3   OH237171   1.170   5.594   4.919 -0.2445 -0.3621  0.4551
 5227TIP3    H137172   1.079   5.599   4.890  0.4919 -1.8795 -2.5590
 5227TIP3    H237173   1.168   5.622   5.010 -3.9038 -1.4435  0.8697
 5228TIP3   OH237174   1.293   5.046  15.092 -0.1000  0.1142  0.1862
 5228TIP3    H137175   1.256   4.984  15.154 -1.0344  0.7352  0.2728
 5228TIP3    H237176   1.258   5.131  15.119 -1.3874  0.2846 -1.7663
 5229TIP3   OH237177   0.109   6.690   0.624  0.1549 -0.2056 -0.2806
 5229TIP3    H137178   0.158   6.759   0.580  1.9229 -1.0185  0.3015
 5229TIP3    H237179   0.131   6.610   0.575 -1.4758 -0.4659 -0.6565
 5230TIP3   OH237180   6.198   6.307  16.695  0.3033  0.1401 -0.1574
 5230TIP3    H137181   6.265   6.249  16.731 -1.0131 -0.3242  1.6616
 5230TIP3    H237182   6.245   6.387  16.673  1.8723 -1.0062 -1.2495
 5231TIP3   OH237183   6.234   4.725  12.220 -0.1840 -0.1418  0.4161
 5231TIP3    H137184   6.250   4.700  12.311  1.5763  0.5079  0.3319
 5231TIP3    H237185   6.179   4.655  12.185  0.2498 -1.1136  1.6023
 5232TIP3   OH237186   2.651   5.669  11.894 -0.2418  0.4124 -0.0252
 5232TIP3    H137187   2.730   5.703  11.935  0.9680 -0.7035 -1.3410
 5232TIP3    H237188   2.590   5.742  11.894  1.6223  2.0484 -1.1274
 5233TIP3   OH237189   5.983   0.176   0.158  0.3676 -0.4378 -0.5166
 5233TIP3    H137190   5.962   0.224   0.238 -0.6692  3.0628 -2.6441
 5233TIP3    H237191   5.956   0.235   0.087  1.2813 -3.2794 -3.4831
 5234TIP3   OH237192   4.022   0.849  15.176  0.4012 -0.1497  0.0930
 5234TIP3    H137193   4.106   0.880  15.209  0.4776  0.6429 -0.7824
 5234TIP3    H237194   4.039   0.828  15.084 -0.5476  0.9366 -0.3630
 5235TIP3   OH237195   2.787   2.306  16.060  0.1977 -0.3872  0.2395
 5235TIP3    H137196   2.745   2.353  15.989 -0.8403 -0.2089  0.9530
 5235TIP3    H237197   2.722   2.303  16.130  0.3387 -2.5899  0.3555
 5236TIP3   OH237198   3.565   3.971  11.175  0.1742  0.5604 -0.2098
 5236TIP3    H137199   3.576   4.001  11.085 -0.1837 -0.8872 -0.7690
 5236TIP3    H237200   3.538   3.879  11.166  1.7605 -0.1255  1.3991
 5237TIP3   OH237201   5.819   1.595  12.039  0.5498 -0.0486  0.0864
 5237TIP3    H137202   5.740   1.572  12.088  0.6549  0.0173  0.2866
 5237TIP3    H237203   5.823   1.690  12.043 -0.5544  0.1475 -1.7712
 5238TIP3   OH237204   3.351   5.287  13.927 -0.1955  0.7035  0.0917
 5238TIP3    H137205   3.320   5.222  13.991  0.1272  0.7750  0.3258
 5238TIP3    H237206   3.443   5.299  13.949 -0.1121  0.8144 -0.3202
 5239TIP3   OH237207   2.368   6.504   5.078 -0.1703  0.1569  0.3102
 5239TIP3    H137208   2.384   6.556   5.157 -0.2099  1.3037 -0.4119
 5239TIP3    H237209   2.415   6.551   5.009 -0.8905 -0.3145 -0.5223
 5240TIP3   OH237210   1.686   3.117  14.706  0.5089  0.4446 -0.1418
 5240TIP3    H137211   1.737   3.121  14.625 -1.2898  0.6855 -1.3233
 5240TIP3    H237212   1.686   3.207  14.739  1.4474  0.2999  0.2936
 5241TIP3   OH237213   3.031   6.810  16.611  0.4376  1.0934 -0.2257
 5241TIP3    H137214   3.073   6.868  16.675  0.6667 -0.5579  1.2155
 5241TIP3    H237215   3.000   6.736  16.663  3.0551 -1.7144 -2.2780
 5242TIP3   OH237216   0.713   3.025   4.441 -0.2517 -0.3867 -0.0649
 5242TIP3    H137217   0.687   3.103   4.489 -1.3726 -0.9840  0.3297
 5242TIP3    H237218   0.766   2.975   4.503  0.3099 -0.0390 -0.2567
 5243TIP3   OH237219   5.538   2.618  13.361  0.1589 -0.3261 -0.0124
 5243TIP3    H137220   5.527   2.597  13.453 -0.8043  0.6095  0.0962
 5243TIP3    H237221   5.458   2.663  13.336  0.5697 -0.2091 -1.2097
 5244TIP3   OH237222   5.338   6.162  14.297  0.3719  0.7123 -0.3122
 5244TIP3    H137223   5.333   6.249  14.258 -0.6908  1.9316  2.3118
 5244TIP3    H237224   5.247   6.138  14.316  0.8272  0.4653  1.8425
 5245TIP3   OH237225   2.724   2.718  15.226  0.1085 -0.8464 -0.5282
 5245TIP3    H137226   2.725   2.813  15.240 -3.0646 -0.9610  1.4913
 5245TIP3    H237227   2.806   2.700  15.181  0.4111  2.9676 -1.8820
 5246TIP3   OH237228   1.900   1.495   6.541 -0.5370 -0.2841  0.0260
 5246TIP3    H137229   1.875   1.419   6.593 -1.1437  0.5240  0.9630
 5246TIP3    H237230   1.995   1.501   6.552 -0.4824 -0.9102 -0.0730
 5247TIP3   OH237231   5.461   3.762  11.597 -0.1981 -0.1074  0.3442
 5247TIP3    H137232   5.476   3.851  11.629  3.3909 -1.0034  1.6534
 5247TIP3    H237233   5.430   3.713  11.674 -1.5266 -0.1860 -0.2114
 5248TIP3   OH237234   0.181   4.421   0.690  0.4428  0.5457 -0.1712
 5248TIP3    H137235   0.158   4.477   0.616  0.8014  1.0040  0.0568
 5248TIP3    H237236   0.151   4.470   0.767 -2.9522 -1.3186 -0.0703
 5249TIP3   OH237237   0.852   5.245   5.093 -0.2401 -0.1153  1.1879
 5249TIP3    H137238   0.875   5.328   5.135  1.7261  1.4605 -2.5584
 5249TIP3    H237239   0.936   5.201   5.078 -0.9994 -1.3340  0.3242
 5250TIP3   OH237240   6.384   5.754  14.034  0.1001  0.3324  0.6760
 5250TIP3    H137241   6.309   5.786  14.085  0.0040 -0.8908  1.3401
 5250TIP3    H237242   6.398   5.821  13.967 -1.7307  0.4914  0.3948
 5251TIP3   OH237243   4.504   4.460  15.357  0.2958 -0.1965  0.0040
 5251TIP3    H137244   4.507   4.531  15.293 -2.1124  0.4924  0.5404
 5251TIP3    H237245   4.562   4.489  15.427 -0.8578  1.4769  0.3528
 5252TIP3   OH237246   4.653   4.728   5.024 -0.1699  0.7232 -0.0094
 5252TIP3    H137247   4.619   4.709   4.937  0.4032 -0.0404 -0.0723
 5252TIP3    H237248   4.585   4.696   5.084 -0.0320  0.1547 -0.1539
 5253TIP3   OH237249   5.250   4.437   5.543  0.5476 -0.3823  0.5463
 5253TIP3    H137250   5.328   4.461   5.494 -0.0569  2.2570  0.7368
 5253TIP3    H237251   5.248   4.498   5.617 -2.6239  0.9595 -0.4802
 5254TIP3   OH237252   6.357   0.549   1.227 -0.5135  0.7857  0.3065
 5254TIP3    H137253   6.355   0.456   1.249 -1.4929  0.4306 -1.1129
 5254TIP3    H237254   6.425   0.585   1.283  0.4180 -0.9303  0.3686
 5255TIP3   OH237255   4.016   6.099  11.087  0.4399  0.0775 -0.1731
 5255TIP3    H137256   4.045   6.134  11.003  0.6975  1.5942  0.5057
 5255TIP3    H237257   4.036   6.169  11.150  1.6430 -1.5936  1.3997
 5256TIP3   OH237258   4.370   0.031  13.419 -0.1072 -0.1464 -0.4946
 5256TIP3    H137259   4.433   0.039  13.348  1.4705 -0.1246  0.8527
 5256TIP3    H237260   4.399   0.095  13.484 -0.3920 -1.4329  0.9615
 5257TIP3   OH237261   3.094   4.758   0.690  0.2224  0.1740 -0.2334
 5257TIP3    H137262   3.152   4.754   0.767  2.3008 -1.4152 -1.7543
 5257TIP3    H237263   3.044   4.677   0.694 -1.6062  1.2901  0.7715
 5258TIP3   OH237264   2.651   1.310   0.920  0.1283  0.1421  0.4858
 5258TIP3    H137265   2.659   1.342   1.010  1.9257 -1.5314  0.9971
 5258TIP3    H237266   2.659   1.215   0.928  0.1618 -0.0562 -1.4494
 5259TIP3   OH237267   0.652   6.368  12.337 -0.1162  0.5298 -0.6685
 5259TIP3    H137268   0.586   6.369  12.406 -0.5885  1.3765 -1.1135
 5259TIP3    H237269   0.686   6.458  12.335  0.1805  0.4121 -1.2616
 5260TIP3   OH237270   5.611   1.024  15.451  0.0229 -0.2902 -0.3737
 5260TIP3    H137271   5.632   1.097  15.508 -0.4374 -0.4888  0.0605
 5260TIP3    H237272   5.682   1.021  15.387 -0.2236  0.8664 -0.7243
 5261TIP3   OH237273   1.314   5.772  17.182 -0.0192  0.0796  0.1968
 5261TIP3    H137274   1.364   5.720  17.120 -1.7537 -0.1848 -1.0491
 5261TIP3    H237275   1.334   5.863  17.159 -0.1173 -0.0222 -0.2886
 5262TIP3   OH237276   4.954   1.248   3.202  0.3111  0.1019 -0.2607
 5262TIP3    H137277   4.913   1.305   3.137  2.5433 -2.5498 -4.3741
 5262TIP3    H237278   5.048   1.260   3.190  0.8915 -0.1335  3.0416
 5263TIP3   OH237279   2.954   2.981   5.146 -0.7669 -0.3235 -0.0572
 5263TIP3    H137280   2.977   3.068   5.113 -1.4546 -0.6779 -1.5581
 5263TIP3    H237281   2.950   2.992   5.241 -1.4041  1.4316 -0.2398
 5264TIP3   OH237282   4.394   2.299   0.778 -0.0774  0.0601 -0.2275
 5264TIP3    H137283   4.415   2.208   0.797 -1.6054  0.1141  2.1981
 5264TIP3    H237284   4.299   2.300   0.767 -0.1590  1.4276  0.3330
 5265TIP3   OH237285   5.298   1.414  15.968 -0.1793 -0.4147  0.3698
 5265TIP3    H137286   5.275   1.485  15.908  2.6740  0.4144  0.0644
 5265TIP3    H237287   5.222   1.356  15.969 -1.3252  0.9205 -1.9882
 5266TIP3   OH237288   5.198   5.457  15.738  0.2496  0.1999 -0.1874
 5266TIP3    H137289   5.274   5.413  15.777  2.4073  2.5540 -1.4470
 5266TIP3    H237290   5.158   5.506  15.810  0.5982 -0.1589  0.2576
 5267TIP3   OH237291   5.245   2.628   3.896  0.1452  0.3370  0.4222
 5267TIP3    H137292   5.231   2.651   3.988  2.7733  1.0011  0.7352
 5267TIP3    H237293   5.235   2.533   3.893  2.8987 -0.1114  2.1041
 5268TIP3   OH237294   6.189   0.662   4.098  0.0628 -0.7268  0.1193
 5268TIP3    H137295   6.132   0.602   4.049 -1.3514  0.6380 -0.0150
 5268TIP3    H237296   6.129   0.729   4.131  1.3304 -0.3427  1.7554
 5269TIP3   OH237297   5.001   0.342   4.353 -0.5485  0.4738  0.2165
 5269TIP3    H137298   4.946   0.283   4.405 -1.1261  0.6072 -0.2296
 5269TIP3    H237299   4.968   0.429   4.373  1.0320  0.7755  1.7424
 5270TIP3   OH237300   6.811   0.910   2.478  0.3450  0.1036 -0.4178
 5270TIP3    H137301   6.818   0.880   2.568 -0.4972 -0.4622 -0.5250
 5270TIP3    H237302   6.884   0.868   2.433  1.2717  1.0678  0.1651
 5271TIP3   OH237303   0.585   5.724   3.550 -0.1110  0.0245 -0.6952
 5271TIP3    H137304   0.507   5.753   3.597  1.3359 -0.8702  2.5935
 5271TIP3    H237305   0.563   5.636   3.520 -0.9780  0.5040 -1.5221
 5272TIP3   OH237306   3.200   3.119  15.364  0.4558  0.1751 -0.6465
 5272TIP3    H137307   3.156   3.204  15.353 -3.7404 -1.8194 -0.9740
 5272TIP3    H237308   3.228   3.095  15.276  0.4457  0.6413 -0.7812
 5273TIP3   OH237309   3.006   6.014   6.431 -0.3063 -0.0056 -0.2225
 5273TIP3    H137310   2.980   6.002   6.523 -0.0305 -0.4994 -0.2070
 5273TIP3    H237311   2.982   6.105   6.412 -2.2942 -0.4966 -0.2940
 5274TIP3   OH237312   1.911   0.254   2.711  0.2986 -0.2692  0.4361
 5274TIP3    H137313   1.991   0.279   2.665 -0.8697  1.7618 -0.6350
 5274TIP3    H237314   1.841   0.292   2.658 -1.3117 -1.1400  1.8824
 5275TIP3   OH237315   5.947   2.690  11.425  0.2694  0.0741 -0.2247
 5275TIP3    H137316   5.881   2.630  11.391  0.9853  0.6113 -2.7427
 5275TIP3    H237317   5.898   2.768  11.450 -0.1586  0.2212 -1.4579
 5276TIP3   OH237318   0.765   5.709  13.706  0.2166  0.0656  0.1592
 5276TIP3    H137319   0.731   5.619  13.702 -1.2305  0.6432 -1.9095
 5276TIP3    H237320   0.785   5.732  13.616  0.9129  1.7263  0.6928
 5277TIP3   OH237321   1.964   2.665   1.377 -0.2748 -0.7724  0.0200
 5277TIP3    H137322   2.012   2.655   1.459  2.4541  0.5805 -1.2809
 5277TIP3    H237323   1.923   2.751   1.382 -2.7724 -1.9316  1.1348
 5278TIP3   OH237324   1.603   6.486   3.614  0.5898 -0.1875 -0.5536
 5278TIP3    H137325   1.615   6.396   3.583  3.7135 -0.5967  1.3425
 5278TIP3    H237326   1.531   6.520   3.562 -0.1893 -3.5053 -1.9318
 5279TIP3   OH237327   4.586   0.244  17.054 -0.1393 -0.3390 -0.4987
 5279TIP3    H137328   4.538   0.269  17.133  1.0165  1.9325 -0.4361
 5279TIP3    H237329   4.551   0.301  16.986  0.0829 -1.0841 -1.2583
 5280TIP3   OH237330   6.048   1.437  16.620  0.1458 -0.4885  0.5836
 5280TIP3    H137331   5.994   1.513  16.596  0.3470 -0.3252  0.6402
 5280TIP3    H237332   6.101   1.420  16.543 -0.6677 -1.2535  0.1781
 5281TIP3   OH237333   3.555   0.383  12.349 -0.3753 -0.0656 -0.7528
 5281TIP3    H137334   3.553   0.454  12.414  0.2945 -0.2876 -0.4741
 5281TIP3    H237335   3.637   0.336  12.369  0.5786  0.6939 -2.6485
 5282TIP3   OH237336   5.587   5.618  13.535 -0.0131 -0.5132  0.3011
 5282TIP3    H137337   5.569   5.532  13.497  1.0370 -0.0474 -1.3624
 5282TIP3    H237338   5.595   5.601  13.629 -0.2223 -2.1522  0.0662
 5283TIP3   OH237339   6.334   4.629  15.603 -0.6848  0.6387  0.4244
 5283TIP3    H137340   6.331   4.619  15.699 -1.4220  0.8957  0.4364
 5283TIP3    H237341   6.391   4.704  15.589 -0.1079  0.2417  0.6356
 5284TIP3   OH237342   2.193   4.571   4.684 -0.3864 -0.5074 -0.9034
 5284TIP3    H137343   2.188   4.654   4.637  0.6786  0.7892  1.1041
 5284TIP3    H237344   2.254   4.518   4.633 -1.9029 -0.5295 -2.7945
 5285TIP3   OH237345   1.876   3.251  12.139 -0.5994 -0.3966 -0.7216
 5285TIP3    H137346   1.938   3.182  12.113  1.7205  0.5996  1.7057
 5285TIP3    H237347   1.912   3.330  12.098 -0.3584  0.1543  0.5258
 5286TIP3   OH237348   2.499   2.990  17.048 -0.2790  0.0738 -0.3443
 5286TIP3    H137349   2.517   2.907  17.005 -0.6750  0.6456 -1.6954
 5286TIP3    H237350   2.585   3.029  17.064  0.0308 -1.4341  2.1626
 5287TIP3   OH237351   1.156   2.646  14.794  0.2831  0.4662 -0.7166
 5287TIP3    H137352   1.170   2.554  14.816 -0.4350  0.4621 -0.2238
 5287TIP3    H237353   1.132   2.645  14.701 -0.4344  0.0725 -0.5362
 5288TIP3   OH237354   0.142   1.332  14.371  0.0303  0.4724 -0.3933
 5288TIP3    H137355   0.189   1.253  14.398  0.3431  0.3034 -1.3927
 5288TIP3    H237356   0.113   1.371  14.453 -0.6874 -1.0060  0.1057
 5289TIP3   OH237357   5.690   3.479   4.503  0.3882  0.2274 -0.2767
 5289TIP3    H137358   5.726   3.446   4.421  1.0573  1.5303 -0.5296
 5289TIP3    H237359   5.623   3.415   4.527  1.5052 -1.2114 -0.8170
 5290TIP3   OH237360   3.349   1.260  13.083 -0.0122  0.4338  0.0081
 5290TIP3    H137361   3.317   1.170  13.091  1.7036 -0.2888 -0.6947
 5290TIP3    H237362   3.418   1.266  13.149  1.0797  0.6336 -1.1091
 5291TIP3   OH237363   2.934   6.442  10.763 -0.0092  0.6018  0.0839
 5291TIP3    H137364   2.911   6.379  10.831 -0.8400  2.1050  1.2500
 5291TIP3    H237365   3.030   6.442  10.762  0.0606 -2.0427 -1.3030
 5292TIP3   OH237366   6.308   4.308   5.420  0.3813 -0.0376 -0.0291
 5292TIP3    H137367   6.317   4.216   5.446 -0.6328 -0.4433 -1.0429
 5292TIP3    H237368   6.265   4.349   5.496 -1.7441 -1.0245 -0.6064
 5293TIP3   OH237369   1.011   4.851   1.760 -0.1204 -0.2426  0.2872
 5293TIP3    H137370   1.030   4.944   1.764  0.0831 -0.3166  2.1223
 5293TIP3    H237371   1.005   4.824   1.852 -0.2029 -2.0317 -0.2028
 5294TIP3   OH237372   6.437   6.030   5.647  0.3309  0.1238  0.0634
 5294TIP3    H137373   6.410   5.950   5.693 -1.1005 -0.2585 -1.3362
 5294TIP3    H237374   6.415   6.101   5.707 -0.3434 -0.4288  0.4896
 5295TIP3   OH237375   4.550   1.944  12.568 -0.2263  0.3955  0.8395
 5295TIP3    H137376   4.586   1.868  12.522 -0.0228 -0.1613  1.8772
 5295TIP3    H237377   4.526   2.005  12.498 -1.4550 -1.0715 -0.1138
 5296TIP3   OH237378   2.821   3.676  14.661  0.1000 -0.4224 -0.2538
 5296TIP3    H137379   2.815   3.590  14.703  0.4723 -0.1066  0.4628
 5296TIP3    H237380   2.890   3.665  14.595 -0.2899 -0.8441 -0.5952
 5297TIP3   OH237381   4.815   6.382   5.358  0.1643  0.3417 -0.2969
 5297TIP3    H137382   4.791   6.439   5.285 -0.5670 -0.2461 -0.5314
 5297TIP3    H237383   4.759   6.412   5.430 -0.7785 -0.5358 -0.6301
 5298TIP3   OH237384   5.846   0.347  17.155 -0.2781  0.0801 -0.3451
 5298TIP3    H137385   5.816   0.271  17.106 -0.1145  0.7227 -1.4862
 5298TIP3    H237386   5.790   0.419  17.125 -0.0940  0.5135  0.3261
 5299TIP3   OH237387   6.304   0.298   2.856 -0.2530 -0.0755 -0.3867
 5299TIP3    H137388   6.266   0.255   2.933 -0.7018  0.0491 -0.5376
 5299TIP3    H237389   6.381   0.344   2.890 -0.8712  0.5988  0.1331
 5300TIP3   OH237390   0.791   0.330   5.258  0.5541 -0.0465 -0.5801
 5300TIP3    H137391   0.803   0.259   5.195  0.5542  0.2402 -0.9041
 5300TIP3    H237392   0.700   0.357   5.247  0.4270 -0.2878 -0.1488
 5301TIP3   OH237393   0.063   3.341  10.711 -0.2042 -0.9148  0.0981
 5301TIP3    H137394   0.008   3.335  10.633 -0.0237 -2.9686  0.0523
 5301TIP3    H237395   0.150   3.315  10.680 -0.4406 -3.3178  1.2148
 5302TIP3   OH237396   5.434   5.230   6.437 -0.3201 -0.1261  0.1215
 5302TIP3    H137397   5.492   5.265   6.370 -2.1795 -0.7003 -1.9219
 5302TIP3    H237398   5.458   5.138   6.446  0.6794  0.2103  1.1470
 5303TIP3   OH237399   4.190   4.850   3.674  0.1012  0.2154  0.1987
 5303TIP3    H137400   4.169   4.915   3.606 -1.1699 -0.0471  0.3124
 5303TIP3    H237401   4.171   4.896   3.756 -1.0903 -0.3681  0.2716
 5304TIP3   OH237402   5.735   2.558  14.665 -0.4191  0.7244 -0.1662
 5304TIP3    H137403   5.830   2.559  14.668 -0.3830  2.3452 -0.6091
 5304TIP3    H237404   5.714   2.542  14.573 -0.5509  0.8479 -0.1596
 5305TIP3   OH237405   0.679   5.758  16.626  0.4379  0.1339  0.3392
 5305TIP3    H137406   0.683   5.699  16.551 -1.0935 -1.0925  1.1602
 5305TIP3    H237407   0.614   5.719  16.684  0.4618  1.8622  1.6193
 5306TIP3   OH237408   3.445   0.101  16.538 -0.2073  1.2508 -0.2066
 5306TIP3    H137409   3.481   0.176  16.586  1.0437  0.7877 -0.3872
 5306TIP3    H237410   3.522   0.056  16.503 -0.9166 -0.2929  0.1534
 5307TIP3   OH237411   5.123   0.473  14.530  0.0689 -0.2264  0.1826
 5307TIP3    H137412   5.122   0.566  14.508  0.8292  0.1823  1.7367
 5307TIP3    H237413   5.213   0.445  14.513  0.2236 -0.3068  1.0983
 5308TIP3   OH237414   5.852   2.973  14.274 -0.1371  0.2049  0.5485
 5308TIP3    H137415   5.879   2.883  14.258  0.7249  0.5545 -0.0326
 5308TIP3    H237416   5.836   2.977  14.368  2.1942  0.0463  1.0071
 5309TIP3   OH237417   0.631   3.887   0.419  0.4744 -0.5767  0.3657
 5309TIP3    H137418   0.609   3.954   0.485 -0.1363 -1.0364  0.6470
 5309TIP3    H237419   0.726   3.885   0.418  0.6389  2.3354 -1.7260
 5310TIP3   OH237420   0.897   2.837   4.063  0.8547  0.0844  0.0451
 5310TIP3    H137421   0.817   2.863   4.109  0.1661  0.0222 -1.0813
 5310TIP3    H237422   0.924   2.756   4.107  1.0837  0.8104  1.3172
 5311TIP3   OH237423   0.852   4.461  11.143 -0.2771 -0.5671 -0.1992
 5311TIP3    H137424   0.827   4.394  11.206 -1.2075  0.6059  0.7428
 5311TIP3    H237425   0.915   4.516  11.190 -0.1860 -0.2830 -0.6465
 5312TIP3   OH237426   5.744   0.402  13.012 -0.5822 -0.2920 -0.1422
 5312TIP3    H137427   5.655   0.367  13.006 -1.4670  1.8375 -0.3392
 5312TIP3    H237428   5.779   0.365  13.093 -1.9957 -0.4337  0.4317
 5313TIP3   OH237429   3.377   2.826   4.921  0.6783  0.8764 -0.2107
 5313TIP3    H137430   3.366   2.920   4.909  0.6066  1.0693  1.2402
 5313TIP3    H237431   3.315   2.803   4.990 -1.2338 -0.7415 -2.2938
 5314TIP3   OH237432   1.242   5.672   4.042  0.1624 -0.5323  0.1640
 5314TIP3    H137433   1.216   5.698   4.130 -1.2120 -0.3805 -0.2618
 5314TIP3    H237434   1.160   5.660   3.995  0.8281  1.9434 -1.8603
 5315TIP3   OH237435   0.500   1.937  10.738  0.3451 -0.4291  0.2935
 5315TIP3    H137436   0.492   1.843  10.756  2.0746 -0.8011 -0.6774
 5315TIP3    H237437   0.469   1.947  10.648  1.5844 -0.3402 -0.1358
 5316TIP3   OH237438   2.273   1.768  15.849 -0.1802 -0.5446  0.6853
 5316TIP3    H137439   2.316   1.853  15.853 -0.7240  0.0297 -2.5758
 5316TIP3    H237440   2.186   1.784  15.886 -0.2547  0.3416  0.1718
 5317TIP3   OH237441   5.323   4.077  12.425 -0.2396  0.4005  0.2044
 5317TIP3    H137442   5.345   4.022  12.501  2.8336 -0.7793 -1.4005
 5317TIP3    H237443   5.379   4.154  12.434  0.2301  0.2041 -0.8657
 5318TIP3   OH237444   6.627   4.280   2.674  0.4203 -0.7256 -0.4303
 5318TIP3    H137445   6.691   4.213   2.699  0.7829 -0.6003 -0.9900
 5318TIP3    H237446   6.671   4.363   2.691 -0.6245 -0.5676  1.8198
 5319TIP3   OH237447   6.639   0.213  12.992  0.1137  0.1505 -0.1279
 5319TIP3    H137448   6.563   0.244  13.040 -0.1110 -0.6984  0.0830
 5319TIP3    H237449   6.641   0.119  13.008  0.7777  0.0488 -0.7373
 5320TIP3   OH237450   1.378   2.978   4.500  0.1487  0.0711 -0.6838
 5320TIP3    H137451   1.396   3.049   4.562 -0.5860 -1.5602  1.5370
 5320TIP3    H237452   1.427   2.903   4.535 -1.4599 -1.2882 -1.2394
 5321TIP3   OH237453   6.161   1.488  10.424 -0.7465 -0.4218  0.4791
 5321TIP3    H137454   6.081   1.540  10.412  1.0978  2.4561 -0.5037
 5321TIP3    H237455   6.164   1.431  10.347 -0.6330  1.3386 -0.9101
 5322TIP3   OH237456   6.488   5.529   4.005  0.3038 -0.2335 -0.0814
 5322TIP3    H137457   6.484   5.543   3.911  1.0854 -0.7778 -0.2076
 5322TIP3    H237458   6.505   5.616   4.042  1.5078 -0.2360 -0.5738
 5323TIP3   OH237459   2.594   1.295   6.342 -0.4535 -0.3545 -0.5414
 5323TIP3    H137460   2.622   1.383   6.315  1.3096 -1.1598 -1.4983
 5323TIP3    H237461   2.597   1.297   6.438  1.4960  0.0668 -0.5788
 5324TIP3   OH237462   0.023   1.789  12.741 -0.3830 -0.1340 -0.3481
 5324TIP3    H137463   0.049   1.697  12.751 -0.1426 -0.2347 -1.7085
 5324TIP3    H237464  -0.052   1.800  12.799  0.3436 -0.8536  0.7721
 5325TIP3   OH237465   0.015   5.988   4.288 -0.4855 -0.1489  0.0229
 5325TIP3    H137466   0.027   6.070   4.335 -1.9346 -1.5249  3.1255
 5325TIP3    H237467  -0.069   5.997   4.243  0.0556  0.5421 -0.8778
 5326TIP3   OH237468   1.837   1.718  10.856 -0.7266 -0.1866  0.4866
 5326TIP3    H137469   1.863   1.634  10.819 -0.5219 -0.2429  0.7508
 5326TIP3    H237470   1.909   1.778  10.833 -0.9030 -0.0640  0.2401
 5327TIP3   OH237471   3.588   6.020  15.861 -0.5065 -0.5642 -0.3445
 5327TIP3    H137472   3.535   5.953  15.904 -0.2365 -1.3616 -1.2090
 5327TIP3    H237473   3.676   5.982  15.857  0.0259  0.5205  0.5953
 5328TIP3   OH237474   6.778   5.037  13.517 -0.0489  0.0868 -0.6046
 5328TIP3    H137475   6.802   4.948  13.491 -0.0303 -0.4676  1.1754
 5328TIP3    H237476   6.683   5.034  13.530  0.1184 -0.0762  0.7704
 5329TIP3   OH237477   6.583   0.149   2.009 -0.4860 -0.1503  0.1975
 5329TIP3    H137478   6.530   0.214   2.054 -1.9017 -0.5249 -0.8536
 5329TIP3    H237479   6.664   0.195   1.987 -1.5235  1.3254 -0.6902
 5330TIP3   OH237480   4.733   1.065   3.340  0.2655  0.7119  0.1885
 5330TIP3    H137481   4.691   1.119   3.408  0.7050 -0.2541  1.2679
 5330TIP3    H237482   4.789   1.127   3.292  0.8420  1.2280  1.4628
 5331TIP3   OH237483   6.207   4.075  17.148  0.4068 -0.1596 -0.1112
 5331TIP3    H137484   6.150   4.011  17.106  0.5598 -0.4928  0.1831
 5331TIP3    H237485   6.286   4.076  17.094 -0.3669  1.2478 -1.2655
 5332TIP3   OH237486   1.552   1.453   4.508  0.5077 -0.3754 -0.2146
 5332TIP3    H137487   1.465   1.416   4.497  0.1891 -0.9729  3.0446
 5332TIP3    H237488   1.606   1.379   4.537  2.1316  0.0025 -2.0517
 5333TIP3   OH237489   5.250   5.227  15.410  0.0373 -0.1005  0.8250
 5333TIP3    H137490   5.173   5.246  15.465  0.3322  1.6380  0.6993
 5333TIP3    H237491   5.317   5.199  15.473 -0.5279 -1.1369  0.9911
 5334TIP3   OH237492   4.297   0.757   2.295  0.3280 -0.2262 -0.1574
 5334TIP3    H137493   4.289   0.690   2.362 -1.1271  2.0861  2.1870
 5334TIP3    H237494   4.236   0.729   2.226  2.9769 -3.4357 -1.4767
 5335TIP3   OH237495   4.001   6.220   2.719 -0.5105  0.3036 -0.1608
 5335TIP3    H137496   4.013   6.310   2.689  1.8602  0.1293  0.0195
 5335TIP3    H237497   4.090   6.190   2.738 -1.2732 -2.0025  0.0287
 5336TIP3   OH237498   6.292   2.072   1.885 -0.3521 -0.6273 -0.0815
 5336TIP3    H137499   6.298   2.159   1.845  3.1670 -1.3129 -1.4393
 5336TIP3    H237500   6.318   2.012   1.815 -0.3678 -2.5475  1.4752
 5337TIP3   OH237501   4.049   4.815  10.859 -0.5700 -0.3165 -0.3849
 5337TIP3    H137502   4.088   4.745  10.911 -0.9480  0.3539  0.8322
 5337TIP3    H237503   4.066   4.895  10.909 -1.5862  0.2513 -0.9105
 5338TIP3   OH237504   3.233   1.115  16.108  0.0383 -0.2286  0.1798
 5338TIP3    H137505   3.213   1.204  16.077 -2.3849 -0.7118  0.1334
 5338TIP3    H237506   3.171   1.100  16.179  0.0623 -2.0513 -0.1317
 5339TIP3   OH237507   4.849   0.519   5.937  0.4579  0.5098  0.1014
 5339TIP3    H137508   4.910   0.469   5.991  1.5394 -0.7179 -2.1324
 5339TIP3    H237509   4.885   0.608   5.937  1.3227  0.1677  0.1132
 5340TIP3   OH237510   1.402   6.185   4.017  0.4256 -0.2212 -0.1760
 5340TIP3    H137511   1.313   6.201   4.048 -0.2630 -3.1112 -0.3394
 5340TIP3    H237512   1.425   6.264   3.969 -2.7659 -0.0381 -1.6766
 5341TIP3   OH237513   2.802   1.428  15.698 -0.1589  0.2145  0.6594
 5341TIP3    H137514   2.758   1.345  15.678 -0.0141  0.2825  0.0521
 5341TIP3    H237515   2.894   1.412  15.676 -0.1342  0.5393  0.5298
 5342TIP3   OH237516   2.085   1.012   2.352  0.3450  0.3753 -0.8034
 5342TIP3    H137517   2.051   0.930   2.318  0.2199  0.4803 -0.9295
 5342TIP3    H237518   2.052   1.079   2.293  0.3166  0.5337 -0.6098
 5343TIP3   OH237519   1.814   5.435  10.801 -0.0910  0.4211 -0.1956
 5343TIP3    H137520   1.860   5.495  10.742  0.8557 -0.4988 -0.4334
 5343TIP3    H237521   1.772   5.371  10.743  0.2583 -0.0792  0.0961
 5344TIP3   OH237522   2.371   1.768   0.166  0.6303  0.6121 -0.1473
 5344TIP3    H137523   2.276   1.769   0.157  0.4468  1.0109  1.5238
 5344TIP3    H237524   2.400   1.693   0.114 -0.7128 -0.2875  0.3616
 5345TIP3   OH237525   4.270   4.892   5.477 -0.3138 -0.5516  0.1659
 5345TIP3    H137526   4.177   4.904   5.456 -0.1649 -0.2083 -0.2921
 5345TIP3    H237527   4.269   4.838   5.556 -0.9244  0.2634  0.7325
 5346TIP3   OH237528   6.099   1.662  12.042 -0.4466  0.4062  0.2002
 5346TIP3    H137529   6.159   1.588  12.029 -1.4889 -0.3620 -0.5081
 5346TIP3    H237530   6.014   1.628  12.012 -0.9791  1.8488  0.0255
 5347TIP3   OH237531   1.075   2.329  14.523  0.5670  0.1602  0.1015
 5347TIP3    H137532   1.073   2.248  14.472 -0.3963  0.4061 -0.2776
 5347TIP3    H237533   1.073   2.398  14.457 -2.0569  0.4961  0.4258
 5348TIP3   OH237534   0.973   4.522  15.127  0.6319 -0.0155 -0.4960
 5348TIP3    H137535   1.040   4.587  15.153  0.2351 -0.3410  1.5256
 5348TIP3    H237536   0.999   4.442  15.173  0.3929 -0.9687 -1.9544
 5349TIP3   OH237537   0.075   4.868   4.741  0.5700  0.3923 -0.2403
 5349TIP3    H137538   0.013   4.803   4.775  0.4230  0.9959  0.7092
 5349TIP3    H237539   0.021   4.929   4.692  0.2376  1.3775  1.2680
 5350TIP3   OH237540   2.408   1.992  15.702  0.0167 -0.2427  0.3629
 5350TIP3    H137541   2.395   2.025  15.613 -0.2500 -2.4069 -0.4568
 5350TIP3    H237542   2.495   1.951  15.699  0.4283  0.5256  1.4034
 5351TIP3   OH237543   2.669   2.719   2.766 -0.0045 -0.2330 -0.1398
 5351TIP3    H137544   2.598   2.655   2.772  1.4011 -1.8227  0.2984
 5351TIP3    H237545   2.633   2.789   2.712 -1.4433 -1.5970 -1.0584
 5352TIP3   OH237546   1.394   5.375  13.510  0.0042 -0.7177 -0.0591
 5352TIP3    H137547   1.393   5.417  13.424  1.2487  1.3774  0.8680
 5352TIP3    H237548   1.481   5.334  13.516 -0.3701 -1.5327 -0.0817
 5353TIP3   OH237549   1.628   5.121  15.994  0.4239 -0.6382  0.3866
 5353TIP3    H137550   1.566   5.191  15.975 -0.0845 -0.6833  1.7624
 5353TIP3    H237551   1.611   5.098  16.086  0.9314 -2.2009  0.1233
 5354TIP3   OH237552   4.479   0.716  15.854  0.3635 -0.2414  0.4711
 5354TIP3    H137553   4.424   0.646  15.818  0.0562 -0.7011  1.7763
 5354TIP3    H237554   4.419   0.772  15.902  0.9318 -0.3712  1.3494
 5355TIP3   OH237555   0.121   3.171  15.937  0.2047  0.3228  0.5399
 5355TIP3    H137556   0.148   3.144  16.025  0.0078  0.6262  0.6966
 5355TIP3    H237557   0.169   3.112  15.878  0.9988  0.6662  0.8169
 5356TIP3   OH237558   5.900   4.463   3.946  0.0496  0.6282 -0.8874
 5356TIP3    H137559   5.824   4.438   3.999  0.3839 -0.5159 -0.9144
 5356TIP3    H237560   5.957   4.511   4.006  0.8857 -1.5042  0.1387
 5357TIP3   OH237561   3.534   2.605   0.659  0.1261 -0.1200 -0.1910
 5357TIP3    H137562   3.622   2.619   0.625  0.1801 -0.1219 -0.0511
 5357TIP3    H237563   3.489   2.689   0.647 -0.0408 -0.2978 -0.8275
 5358TIP3   OH237564   6.257   1.590   2.748  0.1477  0.4661  0.0446
 5358TIP3    H137565   6.250   1.500   2.782  3.5377  0.3026  0.6813
 5358TIP3    H237566   6.288   1.580   2.659 -0.6853  1.0265 -0.3194
 5359TIP3   OH237567   1.070   0.134  16.596  0.2557 -0.0115 -0.4074
 5359TIP3    H137568   1.082   0.039  16.591 -1.7635 -0.3750  0.6606
 5359TIP3    H237569   0.980   0.145  16.626  0.6905  2.2409  0.2276
 5360TIP3   OH237570   3.690   3.147  12.650 -0.4068  0.0546 -0.2457
 5360TIP3    H137571   3.669   3.181  12.563 -1.8693 -0.1447  0.0156
 5360TIP3    H237572   3.661   3.215  12.711 -0.7816 -0.4485  0.1517
 5361TIP3   OH237573   3.554   0.535  14.844  0.0216 -0.3846 -0.0874
 5361TIP3    H137574   3.516   0.585  14.771 -0.1714 -1.7871 -0.9847
 5361TIP3    H237575   3.499   0.456  14.850 -0.9007  0.3483  2.5554
 5362TIP3   OH237576   2.950   4.961  15.092  0.4046 -0.0307  0.4857
 5362TIP3    H137577   2.866   4.993  15.126  0.1211 -0.9988  0.7331
 5362TIP3    H237578   2.967   4.882  15.142  0.0158 -1.4724 -1.5220
 5363TIP3   OH237579   5.131   2.957   3.050 -0.6866 -0.3424  0.6127
 5363TIP3    H137580   5.152   2.866   3.028 -2.1504 -0.7216  0.7096
 5363TIP3    H237581   5.127   2.958   3.145 -0.6205 -0.1473  0.6145
 5364TIP3   OH237582   4.068   5.890   5.248  0.0835  0.1915 -0.0336
 5364TIP3    H137583   4.077   5.933   5.163  0.9887 -0.1992 -0.1478
 5364TIP3    H237584   3.992   5.834   5.238  1.1600 -1.1517 -1.1885
 5365TIP3   OH237585   4.517   1.345   5.108 -0.1917  0.1233 -0.0019
 5365TIP3    H137586   4.463   1.266   5.111  0.5045 -0.3419  1.0578
 5365TIP3    H237587   4.602   1.317   5.143  0.1966  1.2401 -0.0107
 5366TIP3   OH237588   0.899   3.934  13.864  0.5251  0.1167  0.6251
 5366TIP3    H137589   0.848   3.915  13.943  2.5134 -3.9151  1.2086
 5366TIP3    H237590   0.940   4.018  13.882 -1.3401  0.7022  2.5973
 5367TIP3   OH237591   2.848   4.000  14.270  0.1308 -0.1053 -0.1278
 5367TIP3    H137592   2.901   4.054  14.211  0.3793 -0.0644  0.1324
 5367TIP3    H237593   2.760   4.037  14.264  0.0538 -0.3964 -0.8370
 5368TIP3   OH237594   1.973   2.037  11.482  0.3444 -0.1967  0.5757
 5368TIP3    H137595   1.934   1.996  11.404 -0.3323  2.6994 -0.7679
 5368TIP3    H237596   2.044   1.978  11.507  0.4190 -1.3999 -2.0852
 5369TIP3   OH237597   4.932   0.954   2.421  0.1360  0.6837  0.4346
 5369TIP3    H137598   4.940   0.979   2.513  0.2833 -0.0883  0.6348
 5369TIP3    H237599   4.865   0.886   2.420  1.7742 -1.0039  0.3158
 5370TIP3   OH237600   4.676   6.244  17.090  0.1352 -0.4299  0.1020
 5370TIP3    H137601   4.691   6.333  17.123  2.5539 -0.6680 -0.1811
 5370TIP3    H237602   4.626   6.201  17.160 -0.2271  0.8613  0.6657
 5371TIP3   OH237603   2.007   4.210  14.105 -0.5211  0.3260  0.1452
 5371TIP3    H137604   1.969   4.145  14.045 -1.5568  0.3319  0.7621
 5371TIP3    H237605   1.983   4.178  14.192  0.1906  0.7918  0.5213
 5372TIP3   OH237606   0.250   1.421  13.473  0.0975 -0.3116  0.6698
 5372TIP3    H137607   0.221   1.386  13.557 -3.1396 -0.2335 -0.2693
 5372TIP3    H237608   0.233   1.515  13.480 -0.3124 -0.3252 -0.0945
 5373TIP3   OH237609   5.614   0.272   5.157  0.0349 -0.2266  0.4686
 5373TIP3    H137610   5.652   0.322   5.085 -1.1161  2.0496  1.3374
 5373TIP3    H237611   5.521   0.297   5.157 -0.8570 -3.1355  0.4022
 5374TIP3   OH237612   2.334   3.059   4.352 -0.0952  0.8322 -0.3639
 5374TIP3    H137613   2.395   3.111   4.299  0.4351 -0.8249 -1.4965
 5374TIP3    H237614   2.247   3.090   4.327  0.2089  1.1692 -1.0339
 5375TIP3   OH237615   6.599   4.280  14.167 -0.2883 -0.0353  0.1176
 5375TIP3    H137616   6.566   4.326  14.244 -0.5186  0.2731 -0.1582
 5375TIP3    H237617   6.666   4.339  14.131  2.2852 -1.6469  1.9530
 5376TIP3   OH237618   4.545   1.820   2.051 -0.9737 -0.2741 -0.3238
 5376TIP3    H137619   4.575   1.906   2.079  0.9266 -0.6405 -1.1056
 5376TIP3    H237620   4.506   1.836   1.965  1.4393 -0.4538 -1.5350
 5377TIP3   OH237621   6.518   6.154   3.335  0.4430 -0.1325 -0.0155
 5377TIP3    H137622   6.467   6.229   3.306  0.7167  0.9436  2.1225
 5377TIP3    H237623   6.608   6.186   3.340  0.8289 -1.0781 -0.6096
 5378TIP3   OH237624   3.204   6.658   3.090 -0.2301 -0.5604  0.6276
 5378TIP3    H137625   3.116   6.637   3.057 -0.4144 -1.2331  1.5185
 5378TIP3    H237626   3.198   6.750   3.117 -0.4367 -0.3798 -0.0031
 5379TIP3   OH237627   3.556   2.025  14.440  0.6634 -0.9534 -0.1266
 5379TIP3    H137628   3.476   1.989  14.477 -0.5987  1.7601 -0.0022
 5379TIP3    H237629   3.530   2.058  14.354  0.8316  2.4226  0.9686
 5380TIP3   OH237630   0.416   1.132  14.514 -0.0516  0.2184  0.1807
 5380TIP3    H137631   0.454   1.107  14.599 -1.3941 -0.3141  0.6436
 5380TIP3    H237632   0.490   1.129  14.454  0.2952 -2.9945  0.5971
 5381TIP3   OH237633   0.080   3.115  13.678 -0.2453 -0.3425 -0.0311
 5381TIP3    H137634   0.138   3.176  13.633 -0.0444 -0.1440  0.4815
 5381TIP3    H237635   0.012   3.171  13.717 -0.8112 -0.5794 -0.6706
 5382TIP3   OH237636   0.577   2.864   5.302 -0.0970  0.4062 -0.3628
 5382TIP3    H137637   0.516   2.818   5.359 -1.4721  0.2683 -1.8620
 5382TIP3    H237638   0.588   2.805   5.227  0.8812  1.0096 -0.7147
 5383TIP3   OH237639   1.526   2.096  15.616 -0.0645 -0.0706  0.0261
 5383TIP3    H137640   1.544   2.190  15.615  1.9344 -0.4150 -0.4693
 5383TIP3    H237641   1.514   2.074  15.708  0.5069  0.4898  0.2355
 5384TIP3   OH237642   0.408   2.746  17.188 -0.2699  0.6457  0.7210
 5384TIP3    H137643   0.324   2.701  17.191 -1.2904  2.2222 -1.2906
 5384TIP3    H237644   0.401   2.813  17.256 -0.3219  0.2696  1.0871
 5385TIP3   OH237645   4.601   5.680  12.763  0.2080 -0.0334  0.1991
 5385TIP3    H137646   4.600   5.701  12.856 -0.6720 -2.4446  0.8267
 5385TIP3    H237647   4.689   5.645  12.747 -0.2931 -1.6085  0.6938
 5386TIP3   OH237648   0.371   0.105   0.992 -0.4460  0.0164  0.0137
 5386TIP3    H137649   0.366   0.018   0.952 -1.6149 -0.2188  0.6158
 5386TIP3    H237650   0.464   0.124   0.995 -0.1275 -1.4003  0.2114
 5387TIP3   OH237651   3.818   2.794  10.800 -0.2637 -0.1788  0.4026
 5387TIP3    H137652   3.844   2.844  10.878 -0.2604 -0.6056  0.6740
 5387TIP3    H237653   3.757   2.853  10.754  1.6802  1.1347 -0.6301
 5388TIP3   OH237654   4.338   5.424  10.603 -0.3096  0.0825  0.3168
 5388TIP3    H137655   4.326   5.503  10.656 -1.2071 -1.4803  2.6275
 5388TIP3    H237656   4.338   5.352  10.667  0.0414 -1.8439 -1.7128
 5389TIP3   OH237657   1.037   6.267   5.504 -0.2652 -0.6884 -0.1044
 5389TIP3    H137658   1.023   6.355   5.471  1.1979 -0.6278 -0.6434
 5389TIP3    H237659   1.080   6.221   5.432 -1.2522 -1.9381  0.0711
 5390TIP3   OH237660   5.188   0.645   4.724 -0.1463  0.3175  0.3516
 5390TIP3    H137661   5.257   0.710   4.736  0.9055 -0.7912  0.4947
 5390TIP3    H237662   5.208   0.576   4.787 -0.2158 -0.9700 -0.9801
 5391TIP3   OH237663   3.958   3.037  12.233 -0.0868 -0.0049 -0.0244
 5391TIP3    H137664   3.890   3.066  12.173 -2.1336  1.3533  2.7185
 5391TIP3    H237665   3.931   2.949  12.260 -0.0564  0.0307  0.1229
 5392TIP3   OH237666   1.182   2.931  14.439 -0.0544 -0.0569  0.1772
 5392TIP3    H137667   1.124   2.982  14.496 -1.3484 -0.3058 -0.8785
 5392TIP3    H237668   1.232   2.997  14.390 -0.5993  0.1821 -0.0589
 5393TIP3   OH237669   3.980   6.041  13.330 -0.6374  0.4287 -0.3762
 5393TIP3    H137670   3.905   6.033  13.388  0.0848 -1.8244  0.3630
 5393TIP3    H237671   4.056   6.034  13.389  0.1089 -0.4931 -1.4078
 5394TIP3   OH237672   4.819   0.453   1.337 -0.0592 -0.1316 -0.5350
 5394TIP3    H137673   4.727   0.470   1.316  0.4941  0.3755 -2.8111
 5394TIP3    H237674   4.855   0.414   1.257  1.8618  0.2875  0.0832
 5395TIP3   OH237675   5.083   2.744  14.378  0.5618  0.4737 -0.1546
 5395TIP3    H137676   5.132   2.771  14.300  2.1595 -0.9374  0.3003
 5395TIP3    H237677   5.151   2.715  14.440 -0.7544  0.2995  1.2507
 5396TIP3   OH237678   2.427   2.691  16.625 -0.3431  0.1816  0.5599
 5396TIP3    H137679   2.393   2.676  16.713  0.2702  1.2071  0.9906
 5396TIP3    H237680   2.522   2.683  16.634 -0.3432 -0.8861 -0.2585
 5397TIP3   OH237681   0.580   3.218  10.508  0.2843  0.2351 -0.5035
 5397TIP3    H137682   0.523   3.264  10.447 -0.2247  0.2250 -0.0397
 5397TIP3    H237683   0.626   3.287  10.555 -1.3492  0.3514  1.0327
 5398TIP3   OH237684   0.521   1.686   1.094 -0.8245 -0.5035 -0.8028
 5398TIP3    H137685   0.604   1.733   1.104 -1.6539  1.0055 -0.7185
 5398TIP3    H237686   0.454   1.751   1.114 -2.0723 -1.4620 -1.6839
 5399TIP3   OH237687   4.357   2.077  16.984 -0.5879  0.4554 -0.5089
 5399TIP3    H137688   4.387   2.160  17.021 -1.9183  0.6782  0.1081
 5399TIP3    H237689   4.268   2.067  17.016  0.1420 -2.1461  1.0164
 5400TIP3   OH237690   2.986   0.878  10.643 -0.5812  0.4033 -0.4056
 5400TIP3    H137691   3.070   0.920  10.622 -0.4425  0.4910  0.3036
 5400TIP3    H237692   2.928   0.950  10.666 -1.3457  0.4978 -2.4365
 5401TIP3   OH237693   6.839   5.535   3.210 -0.7126  0.4564 -0.0665
 5401TIP3    H137694   6.914   5.549   3.151 -0.9967  1.5101 -0.1987
 5401TIP3    H237695   6.877   5.494   3.287 -0.0146  0.8568 -0.1882
 5402TIP3   OH237696   0.933   5.446   2.694  0.5673 -0.3912 -0.0972
 5402TIP3    H137697   0.942   5.357   2.727 -0.4353 -0.3248  0.4156
 5402TIP3    H237698   0.949   5.502   2.770  0.4648 -0.1642 -0.2383
 5403TIP3   OH237699   0.247   3.788   1.666  0.8158  0.5878 -0.0447
 5403TIP3    H137700   0.268   3.726   1.735  0.4869  1.3676  0.7710
 5403TIP3    H237701   0.275   3.745   1.585  0.6695 -0.5730  0.5144
 5404TIP3   OH237702   4.734   0.176   2.053  0.2245 -0.5918 -0.4255
 5404TIP3    H137703   4.648   0.218   2.051  0.6458  0.3445  0.2765
 5404TIP3    H237704   4.790   0.233   2.000  0.6727 -0.5544  0.0762
 5405TIP3   OH237705   4.934   0.618   5.457  0.2250 -0.0023  0.7111
 5405TIP3    H137706   4.880   0.669   5.517 -0.7342 -0.9329  0.6637
 5405TIP3    H237707   5.007   0.588   5.511 -0.5545 -0.7175  1.4037
 5406TIP3   OH237708   3.404   1.688   2.673  0.3496 -0.2152 -0.7615
 5406TIP3    H137709   3.455   1.718   2.748  0.3857 -2.8903  0.4088
 5406TIP3    H237710   3.459   1.708   2.597  1.6103  0.0233  0.1721
 5407TIP3   OH237711   0.519   0.755  16.859  0.3953 -0.0861 -0.4480
 5407TIP3    H137712   0.435   0.798  16.847  0.3840 -0.6426 -2.9716
 5407TIP3    H237713   0.499   0.661  16.857  0.9044 -0.2469  0.7429
 5408TIP3   OH237714   3.800   5.339   0.562 -0.0091  0.4147  0.5255
 5408TIP3    H137715   3.844   5.409   0.610  0.5449  0.1577  0.4008
 5408TIP3    H237716   3.832   5.258   0.605 -0.0657  0.2138  0.1902
 5409TIP3   OH237717   4.121   2.565  14.185 -0.3371 -0.0633  0.0396
 5409TIP3    H137718   4.180   2.580  14.259 -1.1213  0.7129  0.5182
 5409TIP3    H237719   4.164   2.495  14.135 -0.0054 -0.9099  1.4432
 5410TIP3   OH237720   0.448   3.400  10.376 -0.6940 -0.1146 -0.0817
 5410TIP3    H137721   0.379   3.404  10.311  0.2300 -0.5242 -1.1178
 5410TIP3    H237722   0.444   3.485  10.420 -1.5098  0.0587 -0.4708
 5411TIP3   OH237723   1.603   1.674   0.458  0.6393  0.4787  0.3863
 5411TIP3    H137724   1.643   1.696   0.374  2.9209 -1.5911  0.8156
 5411TIP3    H237725   1.563   1.589   0.444 -1.3460  1.3121  0.7254
 5412TIP3   OH237726   4.433   5.516   3.073  0.3598  0.0127  0.1426
 5412TIP3    H137727   4.355   5.499   3.127 -0.8145  1.7665 -0.9026
 5412TIP3    H237728   4.480   5.432   3.072 -1.6669 -1.2026  0.5918
 5413TIP3   OH237729   3.377   1.373   2.209  0.5022 -0.1300  0.2799
 5413TIP3    H137730   3.309   1.306   2.209 -1.8084  2.0268  0.0983
 5413TIP3    H237731   3.358   1.427   2.286 -0.1502  2.4480 -1.5316
 5414TIP3   OH237732   6.508   4.107   0.437 -0.2607  0.8611  0.1287
 5414TIP3    H137733   6.465   4.104   0.522 -0.6320  1.1030 -0.0479
 5414TIP3    H237734   6.601   4.092   0.457 -0.1179  2.3746  0.7547
 5415TIP3   OH237735   3.165   0.301   3.173  0.1994 -0.2934 -0.3670
 5415TIP3    H137736   3.168   0.331   3.264  0.8294 -1.9748  0.2014
 5415TIP3    H237737   3.164   0.382   3.121 -0.0165  0.6938  1.1138
 5416TIP3   OH237738   1.525   0.166  17.054 -0.6368  0.0666 -0.6270
 5416TIP3    H137739   1.530   0.216  17.135  1.2198  0.3520 -0.8827
 5416TIP3    H237740   1.431   0.159  17.036 -0.9988  2.7947 -0.1865
 5417TIP3   OH237741   0.076   1.758   5.318 -0.1333  0.0421  0.3249
 5417TIP3    H137742   0.161   1.716   5.305 -0.3017 -0.3410  0.4543
 5417TIP3    H237743   0.095   1.832   5.377  0.5129  1.3708 -1.4642
 5418TIP3   OH237744   1.001   2.489   0.186 -0.0201  0.1034 -0.0071
 5418TIP3    H137745   0.973   2.580   0.176  0.5444  0.5570  2.0709
 5418TIP3    H237746   1.095   2.491   0.165 -0.1430 -0.1461 -0.6051
 5419TIP3   OH237747   5.749   4.812  13.860 -0.0931  0.2405 -0.3568
 5419TIP3    H137748   5.717   4.902  13.866  1.5990  0.8416  0.5011
 5419TIP3    H237749   5.710   4.767  13.935  0.9903  0.9663  0.6889
 5420TIP3   OH237750   0.622   3.601   0.659 -0.1902 -0.4119 -0.3194
 5420TIP3    H137751   0.546   3.634   0.708 -1.5648 -2.6126 -0.7884
 5420TIP3    H237752   0.685   3.673   0.659 -1.4214  0.7563  1.9285
 5421TIP3   OH237753   2.666   6.116   3.952 -0.1534  0.2037 -0.0577
 5421TIP3    H137754   2.703   6.140   3.867  0.8123 -0.1639  0.2517
 5421TIP3    H237755   2.618   6.035   3.935 -0.0261  0.1702 -0.2651
 5422TIP3   OH237756   0.691   2.018   5.534 -0.6428 -0.3978  0.1085
 5422TIP3    H137757   0.767   1.970   5.568  0.9470  2.1455  0.4075
 5422TIP3    H237758   0.728   2.076   5.468 -2.6257 -0.1922 -0.8938
 5423TIP3   OH237759   2.936   3.481   0.323 -0.1376 -0.0544 -0.5315
 5423TIP3    H137760   2.923   3.573   0.300 -0.8264 -0.0243 -0.0550
 5423TIP3    H237761   2.929   3.434   0.240 -0.5111  0.2529 -0.6765
 5424TIP3   OH237762   1.939   3.094   6.669  0.0787  0.2054  0.8807
 5424TIP3    H137763   1.879   3.097   6.743 -0.0826  2.3804  0.7462
 5424TIP3    H237764   1.883   3.105   6.592  0.3842 -0.6420  0.5243
 5425TIP3   OH237765   0.032   5.516  15.424  0.1673 -0.0506  0.4325
 5425TIP3    H137766   0.058   5.504  15.515  1.0067 -0.6076  0.1312
 5425TIP3    H237767   0.059   5.606  15.403 -0.8343  0.3950  0.9785
 5426TIP3   OH237768   6.005   6.112   4.861  0.0818 -0.0093 -0.0747
 5426TIP3    H137769   6.092   6.072   4.859 -0.6706 -1.7130 -2.2485
 5426TIP3    H237770   5.946   6.044   4.830 -2.0334  1.2200  0.9648
 5427TIP3   OH237771   0.252   0.333  15.095 -0.2191 -0.4772 -0.5765
 5427TIP3    H137772   0.172   0.280  15.101 -0.3926 -0.1523  0.2336
 5427TIP3    H237773   0.240   0.386  15.017 -0.6712 -0.6478 -0.6274
 5428TIP3   OH237774   4.221   6.692   5.870  0.1515 -0.2984 -0.1711
 5428TIP3    H137775   4.251   6.604   5.848 -0.4924 -0.2991 -1.1010
 5428TIP3    H237776   4.125   6.687   5.864  0.1555  0.8167 -1.6810
 5429TIP3   OH237777   5.427   3.575   5.160 -0.4021  0.1606  0.2093
 5429TIP3    H137778   5.483   3.503   5.189  0.3635 -0.2024 -1.9381
 5429TIP3    H237779   5.338   3.544   5.175 -0.1070 -1.5741 -1.2654
 5430TIP3   OH237780   0.159   2.527  14.349 -0.8547 -0.0017  0.3241
 5430TIP3    H137781   0.101   2.460  14.311  0.7818 -2.1057  1.3492
 5430TIP3    H237782   0.238   2.522  14.296 -0.6224  0.9822  0.5703
 5431TIP3   OH237783   6.267   3.505  10.263 -0.7841 -0.5173 -0.1796
 5431TIP3    H137784   6.348   3.473  10.303 -0.0457  1.5743  0.1380
 5431TIP3    H237785   6.225   3.557  10.332 -1.3557  0.1030 -0.9768
 5432TIP3   OH237786   5.901   5.606   4.100  0.2703  0.6723 -0.0668
 5432TIP3    H137787   5.962   5.538   4.071  0.4662  1.6949 -2.2423
 5432TIP3    H237788   5.954   5.686   4.105 -0.3649  1.0644  0.5136
 5433TIP3   OH237789   0.246   2.225  15.072  0.2903 -0.3112  0.0230
 5433TIP3    H137790   0.275   2.229  15.163 -0.2099 -0.1895  0.1830
 5433TIP3    H237791   0.159   2.185  15.077 -1.2809  2.8013 -0.0075
 5434TIP3   OH237792   1.169   3.907   0.783  0.1274 -0.1434 -0.1196
 5434TIP3    H137793   1.225   3.837   0.748 -0.4784 -1.4077  1.3449
 5434TIP3    H237794   1.195   3.917   0.874 -1.5386 -0.2863  0.4142
 5435TIP3   OH237795   2.178   2.494   0.115 -0.1532  0.1745  0.1803
 5435TIP3    H137796   2.186   2.442   0.195  0.9466 -0.5940 -0.4164
 5435TIP3    H237797   2.095   2.466   0.076 -0.7618  0.6447  1.0984
 5436TIP3   OH237798   3.063   3.440  14.109 -0.0038  0.4276 -0.0026
 5436TIP3    H137799   2.985   3.458  14.055 -0.3911  0.0763  0.4302
 5436TIP3    H237800   3.136   3.475  14.058 -0.5259  1.4926 -0.0567
 5437TIP3   OH237801   6.704   3.455   2.516 -0.6035  0.5563 -0.1864
 5437TIP3    H137802   6.764   3.411   2.576 -0.2618  2.2059  0.7669
 5437TIP3    H237803   6.752   3.459   2.433  0.3289  1.1850  0.3613
 5438TIP3   OH237804   0.073   2.466  10.376 -0.3923  0.1399 -0.2823
 5438TIP3    H137805   0.023   2.471  10.457 -0.2730 -1.8051 -0.0367
 5438TIP3    H237806   0.023   2.407  10.320  1.2298 -1.3635 -0.2670
 5439TIP3   OH237807   3.368   0.944   2.560 -0.3647  0.2909  0.0910
 5439TIP3    H137808   3.364   0.951   2.465  0.5020 -0.5314 -0.0235
 5439TIP3    H237809   3.288   0.897   2.584 -2.2035  3.1634  0.1226
 5440TIP3   OH237810   5.659   5.097  13.871 -0.2089  0.0283  0.1106
 5440TIP3    H137811   5.720   5.162  13.837  0.9399 -1.5697 -1.0368
 5440TIP3    H237812   5.605   5.073  13.796 -0.6564 -0.3070  0.5352
 5441TIP3   OH237813   1.784   4.333  11.264  0.2359  0.2735 -0.0858
 5441TIP3    H137814   1.697   4.363  11.290  0.0750  1.3688 -1.7339
 5441TIP3    H237815   1.772   4.242  11.240 -0.1892  0.0717  0.8518
 5442TIP3   OH237816   5.921   6.793  14.482 -0.2270 -0.4179  0.3858
 5442TIP3    H137817   6.002   6.748  14.460 -0.2479  0.0418 -0.6835
 5442TIP3    H237818   5.948   6.884  14.500 -0.5051 -0.2666  0.0389
 5443TIP3   OH237819   5.284   3.195   3.812  0.8736  0.6069 -0.5083
 5443TIP3    H137820   5.366   3.232   3.846  2.6412  0.0866 -3.7251
 5443TIP3    H237821   5.266   3.246   3.733 -0.3307 -1.1191 -1.4162
 5444TIP3   OH237822   5.860   2.011  16.849 -0.1135  0.8308 -0.6202
 5444TIP3    H137823   5.902   1.959  16.917  1.1906  0.6153 -1.5601
 5444TIP3    H237824   5.774   1.971  16.837  0.3498 -0.2664 -0.3669
 5445TIP3   OH237825   0.058   3.550  11.390 -0.2555 -0.3683 -0.2013
 5445TIP3    H137826   0.076   3.600  11.470  0.0549  0.7554 -0.9579
 5445TIP3    H237827   0.105   3.596  11.321 -0.7073 -1.1924 -1.0885
 5446TIP3   OH237828   2.177   3.186  10.885  0.1900 -0.8888 -0.1307
 5446TIP3    H137829   2.119   3.167  10.811  0.0701  0.9326 -0.5383
 5446TIP3    H237830   2.157   3.276  10.909  2.1964 -0.5034  0.3015
 5447TIP3   OH237831   2.327   1.223  12.338  0.1821  0.4089 -0.1134
 5447TIP3    H137832   2.419   1.244  12.357  0.2037  2.1930 -1.8511
 5447TIP3    H237833   2.284   1.308  12.333 -0.7263 -0.1270 -3.1204
 5448TIP3   OH237834   0.442   2.182  14.358  0.1259 -0.4815  0.7502
 5448TIP3    H137835   0.348   2.166  14.355  0.1732 -0.5691 -0.9279
 5448TIP3    H237836   0.454   2.241  14.432 -1.2203 -0.5723  1.0627
 5449TIP3   OH237837   0.702   0.925  10.671  0.1333 -0.6271 -0.1190
 5449TIP3    H137838   0.776   0.902  10.615  0.9519 -0.7596  0.9938
 5449TIP3    H237839   0.650   0.845  10.676  0.5377 -0.8780  0.0474
 5450TIP3   OH237840   6.009   3.400  12.679  0.1761  0.5148  0.1418
 5450TIP3    H137841   5.978   3.488  12.703  1.3503  1.0534 -0.2601
 5450TIP3    H237842   6.103   3.410  12.666  0.6111 -1.1465  1.6140
 5451TIP3   OH237843   6.761   6.282   3.284  0.1553  0.6491  0.1742
 5451TIP3    H137844   6.816   6.213   3.246 -0.8843  0.2105 -0.5895
 5451TIP3    H237845   6.767   6.354   3.221  1.3910  1.3654  1.0644
 5452TIP3   OH237846   4.427   0.873   6.609  0.6870  0.2536 -0.5875
 5452TIP3    H137847   4.401   0.822   6.531  2.9123  2.3364 -2.8736
 5452TIP3    H237848   4.469   0.808   6.666 -2.5488 -1.6845 -0.1423
 5453TIP3   OH237849   1.993   1.523   4.384 -0.2293 -0.3069  0.4027
 5453TIP3    H137850   1.921   1.585   4.370 -0.3814 -0.6941 -0.6144
 5453TIP3    H237851   2.072   1.578   4.388 -0.2480 -0.0880 -1.4515
 5454TIP3   OH237852   0.682   6.258  15.026 -0.3795  0.2110  0.2847
 5454TIP3    H137853   0.630   6.290  14.953  1.2703  0.4656 -0.8262
 5454TIP3    H237854   0.733   6.333  15.054 -1.2892  0.2325  2.0191
 5455TIP3   OH237855   0.816   4.807   0.617  0.1185 -0.7739 -0.2686
 5455TIP3    H137856   0.817   4.742   0.547 -2.3651 -0.7727 -0.3918
 5455TIP3    H237857   0.801   4.756   0.697  0.3087 -0.5295 -0.0729
 5456TIP3   OH237858   3.275   0.503  12.432  0.3113 -0.2527 -0.4220
 5456TIP3    H137859   3.348   0.481  12.374  0.5517  1.5932 -0.8990
 5456TIP3    H237860   3.317   0.526  12.515  0.1517 -0.5931 -0.2463
 5457TIP3   OH237861   1.999   1.949  15.339  0.6919 -0.1152 -0.2523
 5457TIP3    H137862   1.982   1.900  15.420  0.9389 -0.1445 -0.2191
 5457TIP3    H237863   1.911   1.967  15.304  0.5867 -0.1701 -0.0194
 5458TIP3   OH237864   0.081   2.387  13.875 -0.0834 -0.5355 -0.3307
 5458TIP3    H137865   0.167   2.405  13.914  0.5865  0.1413 -2.0462
 5458TIP3    H237866   0.091   2.301  13.834 -0.0992 -0.2850 -0.8620
 5459TIP3   OH237867   6.410   4.140  13.694  0.3560 -0.3368  0.0854
 5459TIP3    H137868   6.354   4.201  13.741 -1.2593 -1.1529 -0.7120
 5459TIP3    H237869   6.499   4.166  13.719 -0.2937  1.7290  0.4931
 5460TIP3   OH237870   0.235   6.072   2.041  0.3195 -0.1934  0.8372
 5460TIP3    H137871   0.283   6.020   2.106 -0.2600 -1.6554  0.1416
 5460TIP3    H237872   0.179   6.130   2.092  0.7855 -0.4452  1.6417
 5461TIP3   OH237873   5.393   4.507   3.262  0.2534 -0.2462 -0.0878
 5461TIP3    H137874   5.368   4.428   3.310  1.0030 -0.5022 -0.1087
 5461TIP3    H237875   5.310   4.543   3.231 -0.1296 -0.7956  0.2789
 5462TIP3   OH237876   1.924   2.663   0.925 -0.3953  0.3687 -0.1819
 5462TIP3    H137877   1.987   2.670   0.996  0.6042  0.3660 -1.0393
 5462TIP3    H237878   1.944   2.737   0.867 -1.2477  0.4288 -0.4171
 5463TIP3   OH237879   4.749   4.827   3.198  0.4126  0.1962 -0.2948
 5463TIP3    H137880   4.755   4.921   3.215  1.7291  0.2994 -1.1785
 5463TIP3    H237881   4.781   4.817   3.108  1.2277 -1.2067  0.1269
 5464TIP3   OH237882   6.323   1.460  12.339  0.1824 -0.1496 -0.2260
 5464TIP3    H137883   6.248   1.428  12.289  0.0081  1.3107 -0.9448
 5464TIP3    H237884   6.340   1.548  12.305  1.5930 -0.0493  0.6192
 5465TIP3   OH237885   3.220   4.228   2.710  0.2171  0.1946 -0.5847
 5465TIP3    H137886   3.204   4.191   2.797 -0.5191  0.5811 -0.5487
 5465TIP3    H237887   3.285   4.297   2.724 -0.9214  1.1993 -0.1066
 5466TIP3   OH237888   2.287   4.444  15.063 -0.0552  0.3100 -0.6087
 5466TIP3    H137889   2.299   4.464  14.971  0.7074 -0.8092 -0.7660
 5466TIP3    H237890   2.357   4.492  15.108  0.7953 -0.6859 -0.8277
 5467TIP3   OH237891   1.345   3.956   3.548  0.5434 -0.0990  0.1830
 5467TIP3    H137892   1.361   3.913   3.464  0.6922  1.3443 -0.5541
 5467TIP3    H237893   1.334   4.049   3.527  1.7074  0.4781  1.8826
 5468TIP3   OH237894   5.654   2.193   4.891  0.3728  0.2944  0.4436
 5468TIP3    H137895   5.734   2.211   4.842  0.3709  0.3611  0.4639
 5468TIP3    H237896   5.614   2.279   4.903  0.1337  0.2221  0.1521
 5469TIP3   OH237897   5.143   0.493  11.751 -0.2501 -0.1468 -0.3791
 5469TIP3    H137898   5.196   0.414  11.754  0.4831  0.3089 -1.0606
 5469TIP3    H237899   5.137   0.514  11.658 -0.7453  0.4031 -0.2283
 5470TIP3   OH237900   4.755   5.150   5.920  0.4658  0.0360 -0.1482
 5470TIP3    H137901   4.784   5.076   5.974  0.7724 -0.9242 -1.5727
 5470TIP3    H237902   4.809   5.223   5.949 -0.0389 -0.1990  1.4937
 5471TIP3   OH237903   4.242   2.723  15.247 -0.1494  0.5662 -0.6002
 5471TIP3    H137904   4.166   2.684  15.202  0.5216 -1.6230  0.0279
 5471TIP3    H237905   4.206   2.797  15.295 -2.3523 -1.5546  1.2779
 5472TIP3   OH237906   2.588   0.825  17.088 -0.2509 -0.0623 -0.1707
 5472TIP3    H137907   2.593   0.790  17.177 -0.6191  1.2105  0.3608
 5472TIP3    H237908   2.638   0.762  17.036  0.2279 -0.6709  0.9694
 5473TIP3   OH237909   6.698   5.870   0.657  0.1705 -0.4082 -0.5086
 5473TIP3    H137910   6.655   5.796   0.699 -0.2177 -0.7681 -1.5180
 5473TIP3    H237911   6.639   5.944   0.670 -0.1226 -0.6020 -0.7363
 5474TIP3   OH237912   4.720   6.408   0.414 -0.4758  0.6279  0.5177
 5474TIP3    H137913   4.699   6.374   0.327 -1.5841  2.9436 -0.1882
 5474TIP3    H237914   4.668   6.353   0.473 -0.2825 -0.5000 -0.3200
 5475TIP3   OH237915   4.816   5.051  16.048 -0.1007 -0.2623  0.2144
 5475TIP3    H137916   4.822   5.131  15.996 -0.5685 -1.7177 -2.1862
 5475TIP3    H237917   4.736   5.062  16.099  0.5213  1.3187  0.9127
 5476TIP3   OH237918   3.782   3.711  14.519 -0.4517  0.5341 -0.4087
 5476TIP3    H137919   3.713   3.736  14.457 -1.8185 -0.5858  0.5950
 5476TIP3    H237920   3.737   3.659  14.585  1.0680  1.2222  1.2421
 5477TIP3   OH237921   4.919   0.218  16.285  0.4398 -0.4820 -0.6971
 5477TIP3    H137922   4.982   0.262  16.227 -4.0460  1.9264 -4.5119
 5477TIP3    H237923   4.881   0.289  16.336 -0.3144 -1.5739  0.2936
 5478TIP3   OH237924   6.604   1.013  14.824 -0.1406 -0.1048 -0.5042
 5478TIP3    H137925   6.671   1.049  14.765  0.9244  1.2424  1.4172
 5478TIP3    H237926   6.552   1.089  14.850 -0.8001 -0.7365  0.0473
 5479TIP3   OH237927   6.075   0.937   1.351  0.3322 -0.3762 -0.0280
 5479TIP3    H137928   6.006   0.934   1.285  0.6692  1.0048 -0.4571
 5479TIP3    H237929   6.104   0.846   1.359 -2.3479 -1.2252  1.0436
 5480TIP3   OH237930   1.294   3.170   2.801  0.1643 -0.0165 -0.1039
 5480TIP3    H137931   1.242   3.248   2.821 -0.6503 -0.5594 -0.0228
 5480TIP3    H237932   1.262   3.142   2.716 -0.3240 -0.8681  0.3443
 5481TIP3   OH237933   4.693   4.522   4.423 -0.0690 -0.2088 -0.3305
 5481TIP3    H137934   4.621   4.584   4.418 -0.9281 -1.1706 -0.2352
 5481TIP3    H237935   4.769   4.575   4.449 -0.6260  0.8897 -0.8633
 5482TIP3   OH237936   0.247   4.896  14.327 -0.2194 -0.1819  0.2844
 5482TIP3    H137937   0.243   4.847  14.244 -0.6170  1.3771 -0.6626
 5482TIP3    H237938   0.169   4.952  14.324 -0.4847 -0.4161  1.9502
 5483TIP3   OH237939   6.695   3.517  16.619 -0.3135  0.0906 -0.2940
 5483TIP3    H137940   6.756   3.444  16.613  0.5987  0.8230 -0.1605
 5483TIP3    H237941   6.749   3.591  16.645 -1.4006  0.5871  0.6227
 5484TIP3   OH237942   5.838   1.462   2.961  0.4713  1.0871  0.4441
 5484TIP3    H137943   5.857   1.427   2.874 -1.0378  0.7117  0.2292
 5484TIP3    H237944   5.886   1.406   3.021  0.1416  0.2448 -0.0612
 5485TIP3   OH237945   3.851   1.496   5.407 -0.3071 -0.2758 -0.1132
 5485TIP3    H137946   3.794   1.522   5.479  0.1774  1.7113 -0.3969
 5485TIP3    H237947   3.910   1.570   5.394  0.9863 -1.4232 -1.2032
 5486TIP3   OH237948   6.625   1.071   1.162 -0.0647 -0.4153 -0.4497
 5486TIP3    H137949   6.536   1.057   1.194 -0.5152  0.2263 -1.3932
 5486TIP3    H237950   6.625   1.161   1.130  0.8748 -0.4735 -0.6354
 5487TIP3   OH237951   0.968   2.113   2.715  0.1209  0.0302 -0.3483
 5487TIP3    H137952   0.908   2.125   2.788  0.5757 -0.8594  0.1988
 5487TIP3    H237953   0.922   2.053   2.656  1.2371 -2.4697  1.1124
 5488TIP3   OH237954   1.318   4.416  16.446  0.0606  0.2307 -0.3795
 5488TIP3    H137955   1.253   4.485  16.435 -0.5022 -0.5031 -2.1102
 5488TIP3    H237956   1.371   4.443  16.521 -0.5467  2.1889 -0.6215
 5489TIP3   OH237957   1.191   4.838  13.989  0.0073  0.5394 -0.3943
 5489TIP3    H137958   1.248   4.908  14.021  2.0376 -1.4925  0.7131
 5489TIP3    H237959   1.103   4.876  13.991  0.8484  2.6120  1.4795
 5490TIP3   OH237960   0.371   1.454   1.542  0.4455  0.0827 -0.3537
 5490TIP3    H137961   0.433   1.462   1.470  0.9838 -0.4616  0.0391
 5490TIP3    H237962   0.426   1.448   1.620 -0.0969 -0.6050 -0.0178
 5491TIP3   OH237963   6.433   3.330  14.553 -0.5213  0.2413 -0.4248
 5491TIP3    H137964   6.410   3.420  14.530 -0.2802  0.0945 -1.2520
 5491TIP3    H237965   6.375   3.276  14.500 -1.0822 -0.1049  0.5006
 5492TIP3   OH237966   0.834   3.907  15.890 -0.7318  0.2549 -0.1462
 5492TIP3    H137967   0.905   3.843  15.892  1.0643  2.0857  2.9377
 5492TIP3    H237968   0.835   3.942  15.801  2.1759  0.1195 -0.2342
 5493TIP3   OH237969   5.058   3.664   0.836 -0.9985 -0.3820 -0.4261
 5493TIP3    H137970   5.135   3.720   0.828 -1.1871 -0.1576 -0.7002
 5493TIP3    H237971   5.061   3.631   0.926 -0.2958 -0.7985 -0.5986
 5494TIP3   OH237972   1.547   3.055   1.594  0.2920 -0.1054  0.1604
 5494TIP3    H137973   1.510   2.993   1.656  0.9740 -0.8635 -0.1770
 5494TIP3    H237974   1.481   3.063   1.525 -0.0838  0.0597  0.5379
 5495TIP3   OH237975   5.890   0.992   6.430  0.1963 -0.2873  0.0345
 5495TIP3    H137976   5.848   0.955   6.352  1.0283 -0.1638 -0.4833
 5495TIP3    H237977   5.896   1.085   6.412 -0.2176 -0.1517  0.5489
 5496TIP3   OH237978   1.102   0.646   4.956  0.3088 -0.4273  0.5645
 5496TIP3    H137979   1.101   0.553   4.934  0.1062 -0.4793  0.7984
 5496TIP3    H237980   1.045   0.654   5.032 -1.9050  0.2905 -1.0414
 5497TIP3   OH237981   5.164   6.215  15.544  0.0356 -0.3540 -0.0856
 5497TIP3    H137982   5.089   6.200  15.602 -1.1551  0.4978 -1.3120
 5497TIP3    H237983   5.145   6.299  15.502  1.7834 -0.0372 -0.3159
 5498TIP3   OH237984   6.543   1.009   0.479 -0.0624 -0.3704  0.4035
 5498TIP3    H137985   6.543   1.087   0.424  3.3023 -1.4310 -1.3910
 5498TIP3    H237986   6.583   1.038   0.562  0.4577 -0.0142  0.0318
 5499TIP3   OH237987   2.024   6.632   3.190  0.0106  0.2693 -0.1008
 5499TIP3    H137988   2.094   6.657   3.250  0.8665 -1.6308 -0.2049
 5499TIP3    H237989   1.944   6.660   3.233  0.7414  1.0619  0.7974
 5500TIP3   OH237990   1.564   5.151  14.808 -0.7577  0.0853  0.0340
 5500TIP3    H137991   1.618   5.201  14.869 -0.4576 -2.9218  2.4885
 5500TIP3    H237992   1.621   5.081  14.778 -2.4057 -1.5536  0.5050
 5501TIP3   OH237993   6.274   3.782  10.582 -0.7619 -0.2292 -0.2555
 5501TIP3    H137994   6.281   3.866  10.536 -1.0288 -0.4656 -0.7373
 5501TIP3    H237995   6.209   3.732  10.532 -1.6232 -0.2183  0.8008
 5502TIP3   OH237996   6.015   4.659   2.333 -0.2963 -0.5935 -0.3237
 5502TIP3    H137997   5.999   4.565   2.334  0.6993 -0.8260  2.5892
 5502TIP3    H237998   6.074   4.674   2.407  0.0934  2.2504 -1.0926
 5503TIP3   OH237999   0.787   3.014  14.670  0.2320  0.1186 -0.3797
 5503TIP3    H138000   0.874   3.019  14.710  0.6317  1.7265 -1.3684
 5503TIP3    H238001   0.801   2.967  14.588 -0.5662 -3.0708  1.1440
 5504TIP3   OH238002   1.778   5.965  14.557 -0.1533 -0.0554 -0.5651
 5504TIP3    H138003   1.712   5.987  14.623 -1.9116  0.7052 -2.4732
 5504TIP3    H238004   1.832   6.043  14.550 -1.7912  1.0516 -2.0082
 5505TIP3   OH238005   6.572   1.097  15.428 -0.0719  0.1545  0.6021
 5505TIP3    H138006   6.488   1.102  15.474 -1.4150 -1.5886 -1.5132
 5505TIP3    H238007   6.564   1.161  15.357 -0.1454 -0.9126 -0.3721
 5506TIP3   OH238008   0.088   2.541  12.598  0.1535  0.2645 -0.0903
 5506TIP3    H138009   0.089   2.596  12.676  0.0308 -0.8428  0.7208
 5506TIP3    H238010   0.163   2.483  12.609 -1.8851 -2.3712  1.0783
 5507TIP3   OH238011   1.419   3.553  16.599  0.7993 -0.1758 -0.1073
 5507TIP3    H138012   1.335   3.520  16.568  0.1943  0.5759  0.6808
 5507TIP3    H238013   1.418   3.536  16.693  1.9608 -1.0647 -0.2357
 5508TIP3   OH238014   0.257   1.423  11.430 -0.0690 -0.0899  0.1841
 5508TIP3    H138015   0.342   1.383  11.447  0.0181 -0.0123 -0.0631
 5508TIP3    H238016   0.197   1.379  11.490 -0.3234 -1.8909 -1.2786
 5509TIP3   OH238017   6.602   4.714   6.076  0.1724  0.0935  0.1365
 5509TIP3    H138018   6.653   4.779   6.124 -1.8090  1.0616  1.0353
 5509TIP3    H238019   6.544   4.675   6.141  0.0460 -1.3015 -0.7489
 5510TIP3   OH238020   1.156   3.059   0.148  0.2244 -0.1700  0.3574
 5510TIP3    H138021   1.071   3.057   0.105  0.4915 -0.1355 -0.1731
 5510TIP3    H238022   1.220   3.065   0.077  0.7570 -1.6792  0.6702
 5511TIP3   OH238023   5.633   0.443   3.578  0.4213  0.5097 -0.4186
 5511TIP3    H138024   5.669   0.386   3.646 -1.3137  1.5515  1.4919
 5511TIP3    H238025   5.601   0.520   3.625 -1.8345  0.8082 -2.2303
 5512TIP3   OH238026   6.215   1.812   4.936 -0.1363  0.1411 -0.5444
 5512TIP3    H138027   6.223   1.871   5.010  0.0989  0.1262 -0.5577
 5512TIP3    H238028   6.166   1.737   4.970  0.8504 -0.3263 -0.1295
 5513TIP3   OH238029   5.608   3.893  16.544 -0.6879  0.3995 -0.1686
 5513TIP3    H138030   5.684   3.928  16.498 -0.7222  0.4396 -0.1939
 5513TIP3    H238031   5.534   3.914  16.488 -0.8128  1.0486  0.2252
 5514TIP3   OH238032   4.477   4.767   4.369  0.0789 -0.8636  0.4202
 5514TIP3    H138033   4.510   4.854   4.345  1.2568 -0.5185  2.9633
 5514TIP3    H238034   4.450   4.728   4.286 -0.3306  1.8507 -0.8261
 5515TIP3   OH238035   5.719   6.798   3.987 -0.1742 -0.2504 -0.1673
 5515TIP3    H138036   5.637   6.794   3.938 -0.2512 -1.6963  0.0271
 5515TIP3    H238037   5.774   6.731   3.945  0.1969 -0.6501  0.9222
 5516TIP3   OH238038   6.029   6.282  13.880  0.1859 -0.2380 -0.4496
 5516TIP3    H138039   6.010   6.372  13.850 -0.3630  0.1643  1.0177
 5516TIP3    H238040   6.097   6.251  13.820  2.0199  1.9709  0.3431
 5517TIP3   OH238041   2.660   0.562  14.197 -0.4797  0.0825 -1.0256
 5517TIP3    H138042   2.654   0.509  14.118  0.7792 -2.4296  0.4465
 5517TIP3    H238043   2.596   0.525  14.257  0.1760  0.4387 -0.0723
 5518TIP3   OH238044   2.971   1.171   1.432  0.5728  1.0436  0.2356
 5518TIP3    H138045   2.902   1.180   1.498  0.1645  0.0455 -0.0372
 5518TIP3    H238046   2.926   1.186   1.349  0.3868 -0.8272 -0.0442
 5519TIP3   OH238047   5.232   2.045  14.550  0.0136 -0.2401  0.4680
 5519TIP3    H138048   5.263   2.015  14.636  1.3519 -0.0435  0.0785
 5519TIP3    H238049   5.138   2.058  14.562  0.0266 -1.0429  1.6638
 5520TIP3   OH238050   6.195   3.636   3.214  0.1599 -0.0978 -0.2139
 5520TIP3    H138051   6.211   3.678   3.298 -0.1041  0.3469 -0.3778
 5520TIP3    H238052   6.100   3.643   3.202  0.1060 -0.8173 -0.2102
 5521TIP3   OH238053   5.361   6.102  16.307  0.0014  0.5973 -0.1417
 5521TIP3    H138054   5.388   6.020  16.266 -0.4108  1.7394 -2.8838
 5521TIP3    H238055   5.283   6.128  16.259 -1.3102  1.4587  2.2747
 5522TIP3   OH238056   0.193   1.460  12.074  0.1772  0.3704  0.0305
 5522TIP3    H138057   0.112   1.452  12.023  0.1108  0.2462  0.1526
 5522TIP3    H238058   0.163   1.484  12.162  0.2386 -0.1463  0.1949
 5523TIP3   OH238059   3.975   6.008  13.740  0.0649  0.1534  0.3995
 5523TIP3    H138060   4.049   5.981  13.795 -0.3295  3.3847  2.7751
 5523TIP3    H238061   4.013   6.067  13.675 -0.2923  1.7148  1.5428
 5524TIP3   OH238062   3.679   6.364   1.478 -0.0470  0.1964 -0.2735
 5524TIP3    H138063   3.609   6.428   1.490 -0.7356 -0.4450 -0.8057
 5524TIP3    H238064   3.639   6.292   1.429  0.4652 -1.0783  1.0972
 5525TIP3   OH238065   3.872   5.210   2.826 -0.7870  0.4123 -0.7142
 5525TIP3    H138066   3.867   5.151   2.901 -0.9888  1.2390 -0.0672
 5525TIP3    H238067   3.964   5.208   2.799 -1.2228 -2.2702 -2.4179
 5526TIP3   OH238068   6.016   5.152   0.800  0.0754  0.6193 -0.5702
 5526TIP3    H138069   5.987   5.097   0.727 -0.0491 -0.4156  0.2255
 5526TIP3    H238070   5.938   5.163   0.855  0.2868  0.9552 -0.3292
 5527TIP3   OH238071   6.444   2.667  17.118 -0.1729 -0.0377  0.6262
 5527TIP3    H138072   6.445   2.687  17.025 -1.3489 -1.2987  0.3105
 5527TIP3    H238073   6.356   2.689  17.147  0.1921  0.3903  1.4691
 5528TIP3   OH238074   3.095   0.186  15.797 -0.4146 -0.4721  0.0094
 5528TIP3    H138075   3.141   0.265  15.824  2.6165 -2.2214  0.4031
 5528TIP3    H238076   3.002   0.207  15.810  0.2864  2.6673  0.8916
 5529TIP3   OH238077   4.365   1.189   4.855 -0.2583 -0.0622  0.2670
 5529TIP3    H138078   4.458   1.193   4.877 -0.1557  0.2673 -0.2217
 5529TIP3    H238079   4.358   1.233   4.771 -1.0521  1.0798  0.9026
 5530TIP3   OH238080   3.799   0.141  13.360  0.2103 -0.0213  0.0943
 5530TIP3    H138081   3.774   0.209  13.421 -0.0003 -0.9846  1.1185
 5530TIP3    H238082   3.800   0.060  13.413  0.5403 -0.7934 -1.0483
 5531TIP3   OH238083   4.778   0.033  16.604 -0.1219 -0.0822 -0.0363
 5531TIP3    H138084   4.826   0.093  16.545  0.3431 -0.8213 -0.4320
 5531TIP3    H238085   4.687   0.042  16.578  0.0546 -0.2348 -0.7353
 5532TIP3   OH238086   1.485   1.047  15.300  0.0489 -0.0488  0.4385
 5532TIP3    H138087   1.491   1.065  15.206 -1.3191 -0.7425  0.1878
 5532TIP3    H238088   1.492   0.952  15.307  0.2922  0.0108  1.0513
 5533TIP3   OH238089   5.482   0.925  17.091 -0.0583 -0.3144 -0.0304
 5533TIP3    H138090   5.543   0.973  17.146  0.0269 -0.0692 -0.3378
 5533TIP3    H238091   5.447   0.857  17.148  0.5395 -0.4895  0.1371
 5534TIP3   OH238092   6.775   1.112   5.312  0.4634  0.5184 -0.5913
 5534TIP3    H138093   6.792   1.079   5.400 -2.6858  1.7540  0.6132
 5534TIP3    H238094   6.771   1.034   5.257  2.9358 -0.2539  0.1802
 5535TIP3   OH238095   2.310   5.467  13.702  0.0721 -0.0450 -0.8933
 5535TIP3    H138096   2.241   5.527  13.674 -1.2099  0.0771  2.2275
 5535TIP3    H238097   2.386   5.524  13.717 -0.1685  0.3042 -0.9866
 5536TIP3   OH238098   1.844   4.815   1.295  0.3351  0.2974 -0.0789
 5536TIP3    H138099   1.932   4.813   1.258  0.4307 -0.9063  0.1773
 5536TIP3    H238100   1.798   4.883   1.246  1.6133  1.4585  0.2748
 5537TIP3   OH238101   3.353   1.156   2.999 -0.3946  0.8403 -0.0664
 5537TIP3    H138102   3.316   1.111   2.922  0.2642 -1.9596  1.1266
 5537TIP3    H238103   3.444   1.171   2.977  0.4384 -2.1327  0.9092
 5538TIP3   OH238104   0.247   4.489   3.818  0.3422 -0.0323  0.0872
 5538TIP3    H138105   0.309   4.423   3.848  0.6867  0.3120  0.1316
 5538TIP3    H238106   0.167   4.440   3.801  1.0443 -0.7255 -1.3669
 5539TIP3   OH238107   0.672   6.730  12.958  0.0375 -0.1845 -0.1406
 5539TIP3    H138108   0.657   6.705  13.049 -1.0212  0.2778 -0.1760
 5539TIP3    H238109   0.688   6.824  12.962 -1.8077  0.1773 -0.5984
 5540TIP3   OH238110   2.672   3.628  15.200  0.0261 -0.0506  0.9207
 5540TIP3    H138111   2.743   3.684  15.232 -0.9444  0.8560  1.5506
 5540TIP3    H238112   2.665   3.650  15.107  0.7995 -0.4159  0.7658
 5541TIP3   OH238113   4.307   4.598   0.829 -0.3288 -0.0506  0.1576
 5541TIP3    H138114   4.390   4.646   0.839 -0.0397 -0.6206  0.5870
 5541TIP3    H238115   4.281   4.577   0.919 -2.2560  2.2792  0.2345
 5542TIP3   OH238116   0.070   6.316   5.210 -0.5101 -0.2581 -0.2737
 5542TIP3    H138117   0.087   6.275   5.295 -0.1133  1.3263  0.4486
 5542TIP3    H238118  -0.025   6.329   5.208 -0.4255  0.5241  0.3420
 5543TIP3   OH238119   6.326   4.764   3.939 -0.3653  0.4431  0.1511
 5543TIP3    H138120   6.397   4.708   3.909  0.3265  1.5776 -0.4311
 5543TIP3    H238121   6.316   4.743   4.031 -0.5689 -1.0821 -0.2024
 5544TIP3   OH238122   0.220   0.226   2.542 -0.2418 -0.0770 -0.1890
 5544TIP3    H138123   0.238   0.288   2.612 -1.6193 -1.7900  1.7875
 5544TIP3    H238124   0.222   0.279   2.462  0.1925  2.1775  1.2421
 5545TIP3   OH238125   0.996   4.841  16.617  0.1362 -0.3724  0.0649
 5545TIP3    H138126   1.023   4.749  16.609 -1.2491 -0.7437 -0.6657
 5545TIP3    H238127   1.054   4.888  16.557  0.9222 -0.7349  0.5197
 5546TIP3   OH238128   5.475   0.411   5.584  0.2451  0.1161 -0.5560
 5546TIP3    H138129   5.435   0.418   5.670  0.4575  0.4289 -0.4806
 5546TIP3    H238130   5.568   0.430   5.599 -0.2243  3.5987 -1.3496
 5547TIP3   OH238131   1.133   3.358   1.517 -0.2289 -0.5805 -0.4919
 5547TIP3    H138132   1.196   3.424   1.487  1.1065 -1.9338 -0.7804
 5547TIP3    H238133   1.115   3.382   1.608 -0.5377  0.7379 -0.8824
 5548TIP3   OH238134   6.810   0.199   4.828 -0.4383  0.2017  0.1434
 5548TIP3    H138135   6.771   0.112   4.818 -1.1999  0.6042 -0.5400
 5548TIP3    H238136   6.737   0.256   4.851  0.0616  0.6581  0.6348
 5549TIP3   OH238137   0.785   0.952  11.206 -0.0930  0.0848 -0.0416
 5549TIP3    H138138   0.797   1.043  11.178  1.2734 -0.2647 -0.6620
 5549TIP3    H238139   0.787   0.956  11.301  0.2355  0.6744 -0.0661
 5550TIP3   OH238140   5.985   3.863   5.068  0.0133  0.0827  0.0499
 5550TIP3    H138141   5.929   3.941   5.067  4.0292  3.3387 -1.0277
 5550TIP3    H238142   5.959   3.814   4.990 -1.9141  0.8811  0.1359
 5551TIP3   OH238143   5.043   5.287  12.294 -0.7007  0.5295  0.5622
 5551TIP3    H138144   5.128   5.253  12.267 -0.9962  0.7173 -0.6950
 5551TIP3    H238145   5.003   5.317  12.212 -2.3005 -0.2806  1.0007
 5552TIP3   OH238146   1.308   2.460   6.473  0.1937  0.0578 -0.5292
 5552TIP3    H138147   1.346   2.537   6.515 -0.0647  0.3761 -0.8742
 5552TIP3    H238148   1.322   2.389   6.536  1.2454  0.1888 -0.6039
 5553TIP3   OH238149   1.341   4.990   1.128 -0.7912  0.4396 -0.0782
 5553TIP3    H138150   1.344   4.943   1.211 -2.2268  0.6987  0.1434
 5553TIP3    H238151   1.394   5.069   1.143 -0.2764  0.0341  0.2770
 5554TIP3   OH238152   1.465   4.548  15.069  0.2230  0.1669  0.3839
 5554TIP3    H138153   1.547   4.562  15.021  0.0657 -0.9285 -0.2612
 5554TIP3    H238154   1.461   4.619  15.132  0.9232  1.1081 -0.5927
 5555TIP3   OH238155   6.319   2.210   5.942  0.1167  0.5710  0.3172
 5555TIP3    H138156   6.245   2.219   6.003 -0.5809 -0.6767 -0.3018
 5555TIP3    H238157   6.361   2.129   5.967  0.0295  0.2173 -0.6231
 5556TIP3   OH238158   0.177   2.183  13.515  0.0364 -0.5511 -0.6719
 5556TIP3    H138159   0.219   2.229  13.588 -0.8578 -1.2189  0.3029
 5556TIP3    H238160   0.212   2.225  13.436  1.4772 -0.1973  0.1195
 5557TIP3   OH238161   2.148   5.640   2.563  0.2092  0.8508  0.4282
 5557TIP3    H138162   2.225   5.647   2.619  0.5399  1.5819 -0.0803
 5557TIP3    H238163   2.183   5.617   2.477 -0.1546  1.0009  0.2346
 5558TIP3   OH238164   0.775   2.590  13.688 -0.6596  0.4332  0.0414
 5558TIP3    H138165   0.708   2.639  13.640 -1.1659  0.8248  1.1097
 5558TIP3    H238166   0.830   2.658  13.727 -0.0202  0.1165 -0.3086
 5559TIP3   OH238167   4.426   5.430  13.058  0.0802  0.2413 -0.0652
 5559TIP3    H138168   4.445   5.362  12.994  0.0657  0.5222 -0.3729
 5559TIP3    H238169   4.339   5.463  13.033  0.2522  0.6345 -0.1560
 5560TIP3   OH238170   2.607   1.193   5.479 -0.1082 -0.2548 -0.1945
 5560TIP3    H138171   2.702   1.186   5.481  0.1689  2.2060 -0.8706
 5560TIP3    H238172   2.576   1.103   5.471  2.2540 -1.0063 -2.4202
 5561TIP3   OH238173   1.504   2.568   4.443  0.3005 -0.0063  0.5491
 5561TIP3    H138174   1.528   2.650   4.402 -1.9518  1.0019  1.0735
 5561TIP3    H238175   1.525   2.580   4.536 -2.2899  1.0536  1.0936
 5562TIP3   OH238176   1.663   1.515   3.486  0.0467  0.0132 -0.0280
 5562TIP3    H138177   1.648   1.421   3.480  0.2203 -0.0279  0.1742
 5562TIP3    H238178   1.641   1.538   3.576 -2.5759  0.6393 -0.7477
 5563TIP3   OH238179   0.156   0.191  15.887  0.3419 -0.4472 -0.4803
 5563TIP3    H138180   0.176   0.154  15.801 -0.1266 -0.3833 -0.6201
 5563TIP3    H238181   0.063   0.214  15.882  0.2691 -0.6065  0.1036
 5564TIP3   OH238182   1.752   5.967   2.830  0.1557 -0.3519  0.1722
 5564TIP3    H138183   1.671   5.919   2.811  0.6062 -1.5071  1.0653
 5564TIP3    H238184   1.745   5.990   2.923  0.0539  1.1382 -0.1834
 5565TIP3   OH238185   6.636   6.393   0.365 -0.4184 -0.3696  0.3731
 5565TIP3    H138186   6.568   6.326   0.373 -1.4097  0.5276 -0.2906
 5565TIP3    H238187   6.617   6.437   0.282 -0.0043  0.9653  0.9575
 5566TIP3   OH238188   6.242   3.245   1.763 -0.2367 -0.3028 -0.8339
 5566TIP3    H138189   6.295   3.177   1.722 -2.7889 -3.6928  0.9240
 5566TIP3    H238190   6.174   3.265   1.698  0.2661  0.2951 -1.1864
 5567TIP3   OH238191   1.998   0.650   0.167 -0.2425 -0.3419  0.0500
 5567TIP3    H138192   1.997   0.597   0.088  0.1441 -1.0421  0.5098
 5567TIP3    H238193   2.091   0.664   0.186 -0.2630 -2.0477  1.6076
 5568TIP3   OH238194   6.310   1.167  16.435 -0.1341  0.4325 -0.2432
 5568TIP3    H138195   6.256   1.241  16.462 -0.9925 -0.4149  0.4203
 5568TIP3    H238196   6.361   1.200  16.361 -2.8957  0.7448 -2.1383
 5569TIP3   OH238197   5.701   1.838   2.852 -0.2116  0.2663 -0.3993
 5569TIP3    H138198   5.794   1.828   2.833  0.0515 -0.0009  0.8988
 5569TIP3    H238199   5.699   1.882   2.938 -1.2636 -0.7378  0.1173
 5570TIP3   OH238200   0.295   5.909   0.643  0.3110 -0.6543 -0.0350
 5570TIP3    H138201   0.234   5.888   0.714 -0.6651 -0.6448 -0.8486
 5570TIP3    H238202   0.333   5.824   0.618  0.2543 -0.7301  0.1337
 5571TIP3   OH238203   6.777   5.318   2.512 -0.2557 -0.2092 -0.4159
 5571TIP3    H138204   6.692   5.362   2.524 -0.2239 -0.0389 -0.7997
 5571TIP3    H238205   6.776   5.247   2.576 -0.3200  0.3338  0.2012
 5572TIP3   OH238206   5.882   5.100   4.304  0.4423 -0.1449 -0.5229
 5572TIP3    H138207   5.969   5.120   4.337  1.9018 -2.2136 -2.7392
 5572TIP3    H238208   5.883   5.132   4.213 -0.7611 -1.0430 -0.8814
 5573TIP3   OH238209   4.392   4.674  16.392  0.3231  0.1230  0.1879
 5573TIP3    H138210   4.319   4.720  16.432 -0.2484 -1.2696  0.8021
 5573TIP3    H238211   4.455   4.743  16.372 -1.0889  1.3333 -0.2476
 5574TIP3   OH238212   1.240   4.021  13.267 -0.1359 -0.1336  0.3243
 5574TIP3    H138213   1.248   3.954  13.199  1.4823  0.0072  0.3449
 5574TIP3    H238214   1.217   4.100  13.219  1.2878  0.0328 -0.1272
 5575TIP3   OH238215   0.814   3.874   2.620  0.1112  0.3127  0.5975
 5575TIP3    H138216   0.886   3.936   2.626 -0.2758  1.0380 -1.6093
 5575TIP3    H238217   0.813   3.846   2.529 -0.9919 -1.4328  1.0883
 5576TIP3   OH238218   1.492   1.463   1.834 -0.7018  0.4800 -0.1504
 5576TIP3    H138219   1.570   1.411   1.818 -0.1750  1.5302 -1.1911
 5576TIP3    H238220   1.419   1.407   1.805 -0.4010 -0.6717  1.2418
 5577TIP3   OH238221   3.346   0.692  15.591  0.4803  0.4144 -0.1191
 5577TIP3    H138222   3.376   0.654  15.674  0.1715 -0.2178 -0.2845
 5577TIP3    H238223   3.422   0.685  15.533  0.6956  0.8554  0.1088
 5578TIP3   OH238224   2.697   4.366   5.709 -0.6634 -0.2243 -0.4265
 5578TIP3    H138225   2.657   4.380   5.623 -0.4179 -0.1919 -0.5376
 5578TIP3    H238226   2.656   4.432   5.765  2.0492  2.6404 -1.4409
 5579TIP3   OH238227   3.773   2.508   4.249 -0.3356  0.1927  0.3575
 5579TIP3    H138228   3.789   2.414   4.255  0.1902  0.1761 -0.9260
 5579TIP3    H238229   3.678   2.515   4.234 -0.3587 -0.1359  0.3371
 5580TIP3   OH238230   1.639   5.641   1.650 -0.1171 -0.0816  0.7831
 5580TIP3    H138231   1.566   5.597   1.606  1.0812 -0.2507 -1.1345
 5580TIP3    H238232   1.704   5.572   1.662  0.6640  0.5593  0.3171
 5581TIP3   OH238233   0.864   4.501  12.575  0.1867  0.0024  0.1243
 5581TIP3    H138234   0.933   4.557  12.611 -1.0611  1.0012  1.0391
 5581TIP3    H238235   0.866   4.422  12.629 -1.8538  1.5972  2.7441
 5582TIP3   OH238236   5.797   6.024   0.243  0.4891  0.9261 -0.6071
 5582TIP3    H138237   5.809   6.058   0.331  1.6751  0.6200 -0.6375
 5582TIP3    H238238   5.707   6.048   0.220 -0.1724  0.1913  1.0288
 5583TIP3   OH238239   2.891   5.181  13.393  0.3350  0.0959 -0.2297
 5583TIP3    H138240   2.973   5.144  13.428 -0.6343 -2.0921 -0.0976
 5583TIP3    H238241   2.866   5.248  13.457  1.2486 -0.2588  0.5225
 5584TIP3   OH238242   0.974   3.647   5.688 -0.3119 -0.1787 -1.1527
 5584TIP3    H138243   1.060   3.644   5.731 -0.5910 -1.6513 -0.6299
 5584TIP3    H238244   0.928   3.719   5.730  0.2465 -0.1468 -0.5893
 5585TIP3   OH238245   4.174   3.487  11.719 -0.0577 -0.3952  0.1937
 5585TIP3    H138246   4.197   3.507  11.628 -4.0341  0.8972 -0.7228
 5585TIP3    H238247   4.159   3.572  11.760 -2.5324 -1.0029  0.7064
 5586TIP3   OH238248   2.087   1.179  14.164 -0.7376 -0.1281 -0.9671
 5586TIP3    H138249   2.114   1.105  14.110 -0.2816 -0.2881 -0.5235
 5586TIP3    H238250   2.164   1.236  14.167  0.0005 -1.1449  1.2633
 5587TIP3   OH238251   5.307   0.243  12.655  0.4136 -0.2588  0.2403
 5587TIP3    H138252   5.266   0.159  12.677 -1.1005  0.6025  0.8167
 5587TIP3    H238253   5.327   0.282  12.740 -1.3779  1.1428  0.0576
 5588TIP3   OH238254   2.553   0.640  12.847  0.3917 -0.1911 -0.0925
 5588TIP3    H138255   2.592   0.593  12.920 -1.5812  1.5080  2.2302
 5588TIP3    H238256   2.615   0.710  12.827 -0.8473  2.1006  3.1320
 5589TIP3   OH238257   2.987   4.571  12.786  0.3478  0.2164 -0.2336
 5589TIP3    H138258   3.043   4.589  12.861 -2.4064 -0.1383  2.0742
 5589TIP3    H238259   2.946   4.655  12.765  0.3700  0.1063 -0.7461
 5590TIP3   OH238260   0.414   3.968  12.393 -0.0246 -0.0620  0.7761
 5590TIP3    H138261   0.508   3.958  12.403 -0.0156 -1.2617 -0.1953
 5590TIP3    H238262   0.403   4.050  12.345  0.4072  0.8503  2.1721
 5591TIP3   OH238263   2.463   5.638  16.850  0.0282  0.6705 -0.0765
 5591TIP3    H138264   2.413   5.610  16.927  0.0343  2.2981  0.5614
 5591TIP3    H238265   2.508   5.559  16.820 -1.7886 -0.5276  0.1884
 5592TIP3   OH238266   2.456   1.463   7.160 -0.7617  0.2321  0.1407
 5592TIP3    H138267   2.503   1.482   7.079  0.2293 -0.6887  0.4857
 5592TIP3    H238268   2.372   1.508   7.150  0.0034  1.5181 -0.6744
 5593TIP3   OH238269   1.039   4.664  12.723  0.1992 -0.1236 -0.4597
 5593TIP3    H138270   0.991   4.747  12.724 -1.6810 -1.1514  0.7669
 5593TIP3    H238271   1.128   4.688  12.696  0.0305  2.4625  0.9719
 5594TIP3   OH238272   1.051   1.104   1.290 -0.3468 -0.5039  0.6819
 5594TIP3    H138273   1.122   1.163   1.315  0.2656 -1.5678  1.5367
 5594TIP3    H238274   1.095   1.025   1.261 -1.1230 -0.1625 -1.6335
 5595TIP3   OH238275   5.484   5.138   5.710 -0.6450  0.3613 -0.0277
 5595TIP3    H138276   5.535   5.202   5.661 -0.5737  1.2308  1.1384
 5595TIP3    H238277   5.528   5.054   5.694  1.1674  1.0802  0.9354
 5596TIP3   OH238278   1.524   0.230   1.933  0.1482  0.1374 -0.2453
 5596TIP3    H138279   1.485   0.172   1.868 -0.2550 -1.1506  1.1031
 5596TIP3    H238280   1.452   0.255   1.991  0.3243  1.9712 -0.7444
 5597TIP3   OH238281   0.026   2.340  15.385 -0.6332 -0.1933 -0.3150
 5597TIP3    H138282  -0.029   2.284  15.330 -0.4237 -2.1192  1.3099
 5597TIP3    H238283   0.115   2.307  15.371 -0.2808  0.8284 -0.5513
 5598TIP3   OH238284   0.089   3.068  14.500  0.1032  0.0014  0.2257
 5598TIP3    H138285   0.079   2.993  14.441 -0.1824  0.4366 -0.2869
 5598TIP3    H238286   0.001   3.104  14.509  0.3081  0.5442  0.1139
 5599TIP3   OH238287   5.743   0.248  12.091 -0.7140 -0.0943  0.5128
 5599TIP3    H138288   5.728   0.309  12.163 -1.7211 -1.1037  1.1844
 5599TIP3    H238289   5.777   0.169  12.133 -2.4544 -1.1266  0.0546
 5600TIP3   OH238290   5.640   6.600  15.479 -0.0983 -0.7737 -0.2941
 5600TIP3    H138291   5.619   6.511  15.507 -0.5770 -0.2686  1.0222
 5600TIP3    H238292   5.656   6.648  15.560 -0.8804  0.5970 -0.9060
 5601TIP3   OH238293   1.074   0.326   5.000 -0.1192 -0.0561 -0.1546
 5601TIP3    H138294   1.169   0.327   4.988 -0.2380  1.4060 -1.4315
 5601TIP3    H238295   1.041   0.275   4.926 -0.4495  2.1345 -1.6043
 5602TIP3   OH238296   6.714   1.455  14.199 -0.4013  0.3437  0.4214
 5602TIP3    H138297   6.733   1.536  14.152  1.2148 -0.5177 -0.4671
 5602TIP3    H238298   6.759   1.387  14.150 -1.1908 -1.0301  1.5155
 5603TIP3   OH238299   6.058   4.535   3.561  0.1363 -0.3692  0.2424
 5603TIP3    H138300   6.030   4.616   3.605 -1.9787 -1.1202  0.3834
 5603TIP3    H238301   6.029   4.466   3.620  2.3967 -1.2643  0.3840
 5604TIP3   OH238302   5.268   4.766  11.037 -0.3714 -0.0813  0.2829
 5604TIP3    H138303   5.182   4.785  11.073 -0.1880  1.3009  0.0568
 5604TIP3    H238304   5.263   4.792  10.945  0.5477  0.9655  0.5018
 5605TIP3   OH238305   1.498   1.517  13.674  0.2203  0.4464  0.1851
 5605TIP3    H138306   1.514   1.471  13.592  2.6014  1.1407  0.1946
 5605TIP3    H238307   1.560   1.478  13.736 -0.6937  0.7822  1.3552
 5606TIP3   OH238308   0.393   0.246   5.843 -0.9035  0.1618 -0.4107
 5606TIP3    H138309   0.347   0.326   5.870 -1.1482 -0.1910  0.2570
 5606TIP3    H238310   0.395   0.192   5.922  0.0664 -0.1162 -0.6165
 5607TIP3   OH238311   1.796   0.323   5.174  0.1113  0.1267 -0.0631
 5607TIP3    H138312   1.786   0.387   5.245  1.6689  1.4768 -0.9985
 5607TIP3    H238313   1.890   0.319   5.159 -0.1044 -1.1316 -1.1859
 5608TIP3   OH238314   1.897   0.135  16.823  0.2989  0.2521  0.2930
 5608TIP3    H138315   1.857   0.112  16.907 -0.3252  0.6775  0.1101
 5608TIP3    H238316   1.840   0.096  16.757  1.1351 -0.6428  0.0603
 5609TIP3   OH238317   1.971   6.836  14.706  0.5765  0.2982  0.0269
 5609TIP3    H138318   1.887   6.883  14.705 -0.1011 -0.8409  0.7445
 5609TIP3    H238319   1.946   6.744  14.694  1.9135  0.1448 -2.0760
 5610TIP3   OH238320   5.793   0.239  13.487 -0.5246 -0.2569  0.6033
 5610TIP3    H138321   5.791   0.291  13.567  0.0271 -0.8144  0.9898
 5610TIP3    H238322   5.810   0.302  13.417  0.9851 -0.0233  1.1577
 5611TIP3   OH238323   3.565   6.689   1.838 -0.0549 -0.5620  0.8585
 5611TIP3    H138324   3.640   6.732   1.880  1.3170 -1.8609 -0.1702
 5611TIP3    H238325   3.577   6.596   1.857 -0.6164 -0.9360 -0.5296
 5612TIP3   OH238326   1.714   3.277   3.181 -0.1106  0.0855  0.1801
 5612TIP3    H138327   1.699   3.371   3.180  1.5943  0.3932 -0.9382
 5612TIP3    H238328   1.704   3.250   3.090 -0.9319 -0.9002  0.5378
 5613TIP3   OH238329   0.752   1.220  13.380  0.7699 -0.7314  0.3641
 5613TIP3    H138330   0.666   1.239  13.345  0.4398 -0.4906  1.2774
 5613TIP3    H238331   0.750   1.126  13.399  1.2402 -1.0396 -1.0100
 5614TIP3   OH238332   4.555   0.262   3.662  0.8825 -0.1971  0.2071
 5614TIP3    H138333   4.592   0.218   3.585 -0.1119 -0.4166 -0.1658
 5614TIP3    H238334   4.526   0.347   3.630  1.3672  0.1113  0.5727
 5615TIP3   OH238335   3.242   6.544   1.334 -0.4904 -0.0464  0.4550
 5615TIP3    H138336   3.198   6.521   1.416 -0.5484  0.6612  0.6305
 5615TIP3    H238337   3.234   6.465   1.280  0.7473 -1.0033  1.6116
 5616TIP3   OH238338   6.430   6.688   3.488 -0.8850  0.2360 -0.4130
 5616TIP3    H138339   6.520   6.715   3.507 -0.8685  0.9980 -1.4474
 5616TIP3    H238340   6.398   6.651   3.570  0.2223  0.3638  0.1003
 5617TIP3   OH238341   3.564   3.852  15.375 -0.7402 -0.2434 -0.2836
 5617TIP3    H138342   3.649   3.830  15.337 -0.0255 -1.6720  1.9452
 5617TIP3    H238343   3.571   3.945  15.397  0.6546 -0.5603  0.7316
 5618TIP3   OH238344   3.313   3.686  12.379  0.5264  0.0884 -0.0520
 5618TIP3    H138345   3.218   3.680  12.368  0.3069  1.3530  0.9666
 5618TIP3    H238346   3.335   3.775  12.350  1.5343 -0.4455 -1.0247
 5619TIP3   OH238347   0.298   5.221  15.684  0.1594  0.3080 -0.1059
 5619TIP3    H138348   0.370   5.204  15.623 -0.9148 -0.4736 -1.2033
 5619TIP3    H238349   0.298   5.145  15.743  0.3458  0.3889 -0.0042
 5620TIP3   OH238350   4.482   5.964   0.595 -0.5146  0.4109 -0.1584
 5620TIP3    H138351   4.455   5.889   0.649  2.2433 -0.2645  0.4653
 5620TIP3    H238352   4.478   6.039   0.655 -0.6543  0.2673  0.0140
 5621TIP3   OH238353   1.668   3.042   0.422  0.5867 -0.2838 -0.2790
 5621TIP3    H138354   1.651   2.954   0.454  1.2647  0.1230  1.2807
 5621TIP3    H238355   1.761   3.042   0.399  1.1437  0.5702  1.7471
 5622TIP3   OH238356   6.828   0.170  13.884 -0.7813  0.1683  0.1154
 5622TIP3    H138357   6.888   0.179  13.809 -0.0481 -0.7689  0.5781
 5622TIP3    H238358   6.743   0.198  13.849 -0.1256  1.3674 -0.5972
 5623TIP3   OH238359   2.871   5.338   2.894  0.4582 -0.6454  0.4151
 5623TIP3    H138360   2.816   5.415   2.881  2.0495  0.4370 -0.1440
 5623TIP3    H238361   2.847   5.307   2.982 -2.8505 -1.8092 -0.7112
 5624TIP3   OH238362   3.905   2.467  13.801 -0.4173  0.2652  0.1300
 5624TIP3    H138363   3.809   2.468  13.808 -0.4273 -0.9404  0.4347
 5624TIP3    H238364   3.929   2.376  13.818  0.7723  0.5011 -0.1937
 5625TIP3   OH238365   3.278   4.456   5.620  0.3502 -0.6339  0.2900
 5625TIP3    H138366   3.299   4.463   5.713  1.6251 -0.0250 -0.0236
 5625TIP3    H238367   3.205   4.517   5.607  1.6335  0.9825  0.4750
 5626TIP3   OH238368   1.822   1.177  12.721  0.4953 -0.1742  0.8493
 5626TIP3    H138369   1.771   1.218  12.791 -1.2943  3.0310 -2.0533
 5626TIP3    H238370   1.912   1.178  12.754 -0.3578  0.4652  3.3767
 5627TIP3   OH238371   5.756   0.911   3.407 -0.7571  0.2415 -0.0759
 5627TIP3    H138372   5.843   0.929   3.372 -1.3123  0.8845 -1.1894
 5627TIP3    H238373   5.752   0.816   3.415  0.3398  0.2570  0.7971
 5628TIP3   OH238374   6.234   3.950  10.793 -0.0071  0.0541  0.0781
 5628TIP3    H138375   6.227   3.874  10.736 -1.9603  0.0592  0.2427
 5628TIP3    H238376   6.287   4.012  10.743 -0.4710 -0.4883 -1.1176
 5629TIP3   OH238377   4.681   2.918  14.654  0.1129 -0.0288 -0.4698
 5629TIP3    H138378   4.757   2.910  14.597  1.7576 -1.1539  1.7009
 5629TIP3    H238379   4.618   2.854  14.620  0.0256  1.0273 -2.3977
 5630TIP3   OH238380   2.399   4.362   6.101  0.1328  0.4964  0.3397
 5630TIP3    H138381   2.352   4.324   6.176  0.2275  0.7181  0.5132
 5630TIP3    H238382   2.371   4.454   6.101  0.1681  0.5064  0.1286
 5631TIP3   OH238383   4.710   3.167   0.074  0.0629 -0.4083 -1.0499
 5631TIP3    H138384   4.642   3.230   0.050 -0.5597 -0.2315  1.0089
 5631TIP3    H238385   4.677   3.124   0.153  1.7759 -1.2270 -0.7270
 5632TIP3   OH238386   6.151   6.291   2.591  0.4559  0.9126  0.2103
 5632TIP3    H138387   6.080   6.294   2.655  0.5637 -0.5709  0.4262
 5632TIP3    H238388   6.226   6.332   2.636  0.2330  0.8595  0.6318
 5633TIP3   OH238389   3.185   5.156  11.925  0.1687  0.4276 -0.8071
 5633TIP3    H138390   3.128   5.113  11.988  2.1674 -0.8681  0.2455
 5633TIP3    H238391   3.126   5.202  11.866 -1.8523  0.5145  1.1532
 5634TIP3   OH238392   3.719   3.089   3.138  0.7482 -0.1909  0.2688
 5634TIP3    H138393   3.779   3.163   3.145  1.5997 -0.7753 -0.5247
 5634TIP3    H238394   3.727   3.043   3.221 -0.8318  1.3350  1.3350
 5635TIP3   OH238395   2.729   0.194   4.112 -0.3617  0.2219  0.1861
 5635TIP3    H138396   2.719   0.285   4.086  1.3525  0.3396 -0.1586
 5635TIP3    H238397   2.789   0.157   4.047  0.8333 -0.5252  1.6555
 5636TIP3   OH238398   5.163   2.701  11.134 -0.3758 -0.4721  1.1800
 5636TIP3    H138399   5.217   2.625  11.112 -1.0992 -0.7685  0.4131
 5636TIP3    H238400   5.127   2.730  11.051 -0.4854  0.4356  1.5350
 5637TIP3   OH238401   5.472   2.141  15.221  0.1836 -0.0757  0.3796
 5637TIP3    H138402   5.403   2.208  15.224  0.6238  0.3640  1.0981
 5637TIP3    H238403   5.553   2.189  15.240  0.7555 -0.5250 -0.8263
 5638TIP3   OH238404   2.150   2.502  13.681 -0.1392 -0.0993 -0.2792
 5638TIP3    H138405   2.221   2.559  13.651 -0.1349  0.3626  0.5721
 5638TIP3    H238406   2.070   2.553  13.666 -0.1650 -0.0085  0.1368
 5639TIP3   OH238407   4.086   0.732   0.027 -0.0557 -1.0301 -0.1656
 5639TIP3    H138408   4.157   0.796   0.030  0.6393 -1.7461 -0.6860
 5639TIP3    H238409   4.118   0.659   0.081 -0.7781 -0.9885  0.3229
 5640TIP3   OH238410   6.378   2.771  14.861 -0.3642  0.3782  0.2563
 5640TIP3    H138411   6.458   2.721  14.875 -1.0217 -1.0166 -0.7244
 5640TIP3    H238412   6.397   2.858  14.896  2.1064  0.5597 -1.3080
 5641TIP3   OH238413   6.576   5.746  12.166 -0.6692  0.3229 -0.2738
 5641TIP3    H138414   6.628   5.783  12.237 -0.6687  1.0456 -0.6366
 5641TIP3    H238415   6.586   5.651  12.175 -0.5442  0.4154  0.5853
 5642TIP3   OH238416   0.350   1.537   3.070 -0.1358 -0.3534  1.2399
 5642TIP3    H138417   0.431   1.585   3.092 -0.6407  0.3704  1.5788
 5642TIP3    H238418   0.296   1.602   3.024  0.9111 -1.8256 -2.4418
 5643TIP3   OH238419   2.380   3.196  14.749 -0.1207  0.3586 -0.1994
 5643TIP3    H138420   2.408   3.254  14.678  2.5850  2.0227  1.9981
 5643TIP3    H238421   2.309   3.243  14.792  1.5678  1.8103  1.1226
 5644TIP3   OH238422   3.616   1.699   5.893 -0.4035 -0.5403 -0.2173
 5644TIP3    H138423   3.665   1.749   5.959 -0.5727 -0.4248 -0.1770
 5644TIP3    H238424   3.620   1.753   5.814 -1.0723 -0.1834 -0.0167
 5645TIP3   OH238425   1.968   3.858  14.810 -0.2878  0.0199  0.1364
 5645TIP3    H138426   1.952   3.937  14.861  0.1885  0.4608 -0.3906
 5645TIP3    H238427   1.976   3.789  14.876  1.1786  0.7182  0.7445
 5646TIP3   OH238428   4.141   0.320   3.155 -0.2379  0.4991  0.7015
 5646TIP3    H138429   4.121   0.267   3.077 -0.0190  1.4715 -0.0367
 5646TIP3    H238430   4.082   0.287   3.222 -2.9557  1.9368 -0.8142
 5647TIP3   OH238431   1.446   4.779   4.753  0.4627  0.1523 -0.0230
 5647TIP3    H138432   1.363   4.742   4.784  0.3592  0.3382 -0.0785
 5647TIP3    H238433   1.501   4.703   4.736 -0.0474 -0.0177 -0.9866
 5648TIP3   OH238434   1.706   4.320   1.121  0.3245 -0.4034  0.1882
 5648TIP3    H138435   1.783   4.301   1.175  0.3447 -0.0641  0.2804
 5648TIP3    H238436   1.739   4.322   1.032  1.0327  2.6248  0.4030
 5649TIP3   OH238437   1.036   1.087   0.465 -0.6028 -0.8670  0.8484
 5649TIP3    H138438   0.993   1.144   0.528 -0.4305 -2.4652  2.4697
 5649TIP3    H238439   0.988   1.004   0.469  1.8703 -2.3628  1.9504
 5650TIP3   OH238440   5.965   6.679  13.044  0.1071  0.0404  0.0532
 5650TIP3    H138441   5.928   6.759  13.007 -1.6164  0.4450  2.4144
 5650TIP3    H238442   6.032   6.710  13.104  0.7676 -0.4204 -0.4401
 5651TIP3   OH238443   0.008   1.149  14.178 -0.1338  0.5409 -0.0850
 5651TIP3    H138444   0.029   1.210  14.107 -1.1748  1.7328  0.5833
 5651TIP3    H238445   0.076   1.165  14.244 -0.0250  0.5026 -0.1873
 5652TIP3   OH238446   0.168   2.777   2.405 -0.2540 -0.8117 -0.5592
 5652TIP3    H138447   0.087   2.761   2.357 -0.3970 -1.5488 -0.0952
 5652TIP3    H238448   0.226   2.706   2.379  0.0343 -0.6222 -0.4406
 5653TIP3   OH238449   0.268   6.777   5.255 -0.1907  0.2888  0.1582
 5653TIP3    H138450   0.352   6.823   5.263 -1.3833  2.4599  1.0544
 5653TIP3    H238451   0.279   6.698   5.308  0.8158  1.3062  1.5440
 5654TIP3   OH238452   6.176   3.091  13.617  0.2020  0.1754 -0.3100
 5654TIP3    H138453   6.232   3.116  13.544  1.3911 -0.3341  0.3980
 5654TIP3    H238454   6.213   3.009  13.649 -0.1536  0.4993  0.9994
 5655TIP3   OH238455   4.503   2.051  16.733  0.3728  0.5958  0.0482
 5655TIP3    H138456   4.527   1.960  16.752  2.7541  1.3268  0.9081
 5655TIP3    H238457   4.463   2.083  16.814  0.5140  0.6022  0.1163
 5656TIP3   OH238458   0.261   1.585   0.470 -0.3674  0.2370  0.1059
 5656TIP3    H138459   0.327   1.637   0.423 -2.2846  2.2451 -0.5204
 5656TIP3    H238460   0.227   1.524   0.404  0.3507 -0.3458  0.2569
 5657TIP3   OH238461   4.111   4.285  12.445 -0.3474 -0.3535  0.2799
 5657TIP3    H138462   4.120   4.328  12.530 -0.9221  0.4215 -0.0380
 5657TIP3    H238463   4.201   4.269  12.417 -0.1511 -0.7353  1.0835
 5658TIP3   OH238464   5.633   1.565   3.620  0.4897  0.3917 -0.3902
 5658TIP3    H138465   5.652   1.647   3.665 -0.5411 -0.1943  1.1923
 5658TIP3    H238466   5.621   1.590   3.528  0.9184  1.8922 -0.0570
 5659TIP3   OH238467   1.282   0.453  15.052  0.6329 -0.2465 -0.4789
 5659TIP3    H138468   1.244   0.469  15.139  0.6941 -1.8684 -0.1164
 5659TIP3    H238469   1.210   0.416  15.001  0.6421  0.5528 -1.0865
 5660TIP3   OH238470   5.014   0.874  12.271 -0.1163  0.4270 -0.1581
 5660TIP3    H138471   4.923   0.868  12.242  0.2850 -1.9189 -1.1842
 5660TIP3    H238472   5.009   0.861  12.366 -0.8001 -0.6380 -0.3212
 5661TIP3   OH238473   0.211   1.189  17.194 -0.5862 -0.0790 -0.4165
 5661TIP3    H138474   0.180   1.154  17.278 -0.7565  3.2280  1.0337
 5661TIP3    H238475   0.305   1.175  17.195 -0.1360  2.3997  1.7460
 5662TIP3   OH238476   0.660   1.285   3.349  0.1842  0.7496  0.1287
 5662TIP3    H138477   0.588   1.261   3.292  1.3302  0.4261 -1.2543
 5662TIP3    H238478   0.709   1.204   3.361 -1.2199  0.2186  3.5095
 5663TIP3   OH238479   5.084   2.364  13.805  0.7140  0.0286  0.1980
 5663TIP3    H138480   5.160   2.323  13.847  0.6830  1.8670  2.2361
 5663TIP3    H238481   5.082   2.452  13.841 -1.0914  0.7791 -1.5667
 5664TIP3   OH238482   1.547   4.824   2.188  0.0767 -0.7832 -0.1710
 5664TIP3    H138483   1.535   4.787   2.101  0.2227  0.3287 -0.6777
 5664TIP3    H238484   1.642   4.824   2.202 -0.0029 -2.2496  0.5848
 5665TIP3   OH238485   4.150   0.843  12.575 -0.3699  0.4134  0.2720
 5665TIP3    H138486   4.068   0.796  12.591  0.5275 -0.7108  1.8774
 5665TIP3    H238487   4.177   0.813  12.488 -1.3855  0.3825 -0.0469
 5666TIP3   OH238488   5.463   6.084  11.178 -1.0493 -0.3341 -0.1646
 5666TIP3    H138489   5.434   6.016  11.117 -2.5007  1.8220 -2.0449
 5666TIP3    H238490   5.394   6.151  11.174  1.0974  2.0590  0.2402
 5667TIP3   OH238491   3.555   0.579  10.801 -0.9045 -0.5077 -0.5428
 5667TIP3    H138492   3.594   0.502  10.760 -1.1336 -1.3068  0.6955
 5667TIP3    H238493   3.618   0.607  10.867 -0.5882  0.7003 -1.3161
 5668TIP3   OH238494   4.206   5.587   2.449 -0.3850  0.0880 -0.2323
 5668TIP3    H138495   4.226   5.664   2.501 -2.4258  0.0906  0.6186
 5668TIP3    H238496   4.283   5.531   2.459  0.1068  0.9680  1.1348
 5669TIP3   OH238497   2.853   6.410   6.139  0.3625  0.4563 -0.0096
 5669TIP3    H138498   2.772   6.458   6.154 -1.1084 -1.7585 -0.3307
 5669TIP3    H238499   2.872   6.369   6.224  0.5808  0.1531 -0.2055
 5670TIP3   OH238500   2.197   1.536   3.574 -0.4080 -0.7509 -0.0430
 5670TIP3    H138501   2.175   1.561   3.664  0.0310 -1.3456  0.2344
 5670TIP3    H238502   2.191   1.441   3.573 -1.0110 -0.7246 -0.8142
 5671TIP3   OH238503   6.377   5.325   5.555  0.2693 -0.4243 -0.3455
 5671TIP3    H138504   6.282   5.321   5.558  0.1822  0.3337 -1.6150
 5671TIP3    H238505   6.398   5.342   5.464  1.4097  3.8394  0.4950
 5672TIP3   OH238506   3.440   0.997  16.439  0.7517  0.0594 -0.2252
 5672TIP3    H138507   3.430   0.922  16.379  1.4125  0.7576 -1.2436
 5672TIP3    H238508   3.439   0.958  16.526 -0.5148 -0.9642 -0.6615
 5673TIP3   OH238509   3.283   3.822   0.310  0.0743  0.6488 -0.0410
 5673TIP3    H138510   3.261   3.865   0.227 -0.9584  1.4212  0.6052
 5673TIP3    H238511   3.238   3.738   0.307  1.2453  0.0050 -0.8604
 5674TIP3   OH238512   6.717   3.296  16.836  0.0520  0.4039 -0.5932
 5674TIP3    H138513   6.811   3.303  16.817 -0.2765  2.5044 -1.6319
 5674TIP3    H238514   6.708   3.329  16.925  0.0537  2.3915 -1.2918
 5675TIP3   OH238515   0.990   4.166  14.241 -0.1642  0.1982 -0.5656
 5675TIP3    H138516   1.001   4.214  14.323  0.1215  0.3249 -0.6755
 5675TIP3    H238517   1.017   4.229  14.173  1.2584 -0.4586 -0.6437
 5676TIP3   OH238518   3.995   5.181   4.683  0.4892  0.0171 -0.4037
 5676TIP3    H138519   4.051   5.105   4.664 -0.1172 -0.9539  1.4834
 5676TIP3    H238520   3.966   5.211   4.596  2.6040 -0.4309 -1.3344
 5677TIP3   OH238521   4.017   4.273   3.147 -0.1217  0.4063 -0.3663
 5677TIP3    H138522   4.049   4.202   3.092  1.0670  0.8278 -0.2574
 5677TIP3    H238523   4.026   4.351   3.093  0.0707  0.6794  0.0502
 5678TIP3   OH238524   2.081   4.592   2.372  0.0112 -0.7069 -0.7551
 5678TIP3    H138525   2.156   4.641   2.338  0.2138  0.1094  0.7837
 5678TIP3    H238526   2.062   4.527   2.305  0.6551  0.5435 -2.2040
 5679TIP3   OH238527   5.345   2.807  12.126  0.4641 -0.4281  0.4037
 5679TIP3    H138528   5.353   2.887  12.179 -0.8540 -0.4156  0.6187
 5679TIP3    H238529   5.258   2.773  12.148  0.7183 -1.5283 -0.2438
 5680TIP3   OH238530   1.961   6.106   2.137 -1.0480 -0.0047  0.0255
 5680TIP3    H138531   1.938   6.066   2.053  0.1744  0.9237 -0.7793
 5680TIP3    H238532   2.038   6.057   2.166  0.4871  1.6633 -0.9846
 5681TIP3   OH238533   2.139   2.305   1.452 -0.4431  0.2645  1.0148
 5681TIP3    H138534   2.104   2.223   1.416  1.0680 -0.5085  1.2209
 5681TIP3    H238535   2.168   2.354   1.376 -2.3579  1.1404  0.7985
 5682TIP3   OH238536   2.188   4.988   0.199 -0.1786 -0.1554 -0.1285
 5682TIP3    H138537   2.197   4.968   0.292  0.0910  0.3423 -0.0438
 5682TIP3    H238538   2.276   5.011   0.170 -0.4387  0.7569 -0.2491
 5683TIP3   OH238539   2.895   6.549   1.209 -0.2945  0.0152  0.0614
 5683TIP3    H138540   2.929   6.542   1.298  0.5818 -0.8631 -0.3231
 5683TIP3    H238541   2.972   6.561   1.154 -0.9298  2.1836 -0.4542
 5684TIP3   OH238542   2.495   6.661  14.501  0.4204  0.3809 -0.5755
 5684TIP3    H138543   2.528   6.581  14.543 -2.1309 -0.3321  0.2031
 5684TIP3    H238544   2.406   6.640  14.473 -0.9137  3.3483  0.9436
 5685TIP3   OH238545   1.839   6.612  14.072 -0.5019 -0.0486  0.0435
 5685TIP3    H138546   1.835   6.702  14.102 -0.2759  0.3303 -1.0285
 5685TIP3    H238547   1.899   6.569  14.133 -0.7684  0.4733  0.6754
 5686TIP3   OH238548   0.127   4.764  14.098  0.3056  0.2563 -0.2251
 5686TIP3    H138549   0.126   4.795  14.007  2.2878  3.4760  0.6842
 5686TIP3    H238550   0.035   4.760  14.123 -0.2046  2.3074 -1.5245
 5687TIP3   OH238551   4.370   0.472   1.015  0.1286  0.6994  0.3879
 5687TIP3    H138552   4.323   0.428   1.085 -0.1509  1.2882  0.5821
 5687TIP3    H238553   4.351   0.421   0.937  0.4459  0.0369  0.7389
 5688TIP3   OH238554   1.402   2.619  14.577 -0.5689  0.2588 -0.3992
 5688TIP3    H138555   1.399   2.553  14.508 -0.8821  1.1519 -1.2750
 5688TIP3    H238556   1.361   2.577  14.653 -1.8451 -0.1681 -1.2862
 5689TIP3   OH238557   6.331   5.972  10.396  0.4368 -0.2183 -0.1763
 5689TIP3    H138558   6.261   5.992  10.458  0.9355  1.5908 -0.1371
 5689TIP3    H238559   6.294   5.907  10.337 -0.9034 -0.0927  0.4976
 5690TIP3   OH238560   3.741   2.997   2.527  0.7781  0.3357  0.5163
 5690TIP3    H138561   3.750   2.963   2.615  2.0086  0.5668  0.4915
 5690TIP3    H238562   3.703   2.925   2.477 -0.9555  0.5586  1.4434
 5691TIP3   OH238563   4.627   3.951  14.689  0.1419  0.1476 -0.2821
 5691TIP3    H138564   4.578   3.953  14.771 -0.0244  0.6438 -0.3891
 5691TIP3    H238565   4.566   3.985  14.623  0.1587 -0.5774 -0.6770
 5692TIP3   OH238566   1.820   5.261  12.495  0.1137  0.2870 -0.1337
 5692TIP3    H138567   1.751   5.207  12.456 -0.8818  0.9659  0.6401
 5692TIP3    H238568   1.882   5.275  12.423  0.1329 -1.4051 -0.5059
 5693TIP3   OH238569   2.948   0.608  10.633  0.9450  0.0566  0.4531
 5693TIP3    H138570   2.941   0.702  10.647 -0.2528  0.0966 -0.2144
 5693TIP3    H238571   3.013   0.578  10.697  1.5063  1.3593  0.5188
 5694TIP3   OH238572   0.586   1.447   2.291  0.0426 -0.5359  0.5702
 5694TIP3    H138573   0.599   1.398   2.372 -1.1700  0.1115  1.1892
 5694TIP3    H238574   0.519   1.513   2.313  0.5149  0.3913 -0.6469
 5695TIP3   OH238575   0.544   4.908  13.745  0.1564  0.5589  0.2322
 5695TIP3    H138576   0.610   4.930  13.810  0.4886 -1.2272  0.5345
 5695TIP3    H238577   0.581   4.937  13.662 -0.5925  3.5780  0.8107
 5696TIP3   OH238578   2.593   3.145   4.899 -0.7629  0.0960  0.2143
 5696TIP3    H138579   2.548   3.102   4.827 -1.3188  1.0882 -0.0507
 5696TIP3    H238580   2.540   3.222   4.919  0.3868  0.8700  0.4197
 5697TIP3   OH238581   0.944   6.651  14.289 -0.9376 -0.5448 -0.4526
 5697TIP3    H138582   1.009   6.682  14.352  1.4461 -3.2110 -1.3764
 5697TIP3    H238583   0.865   6.639  14.341 -0.9798  3.2475  0.6338
 5698TIP3   OH238584   0.338   4.238  14.802 -0.2686 -0.3816  0.2826
 5698TIP3    H138585   0.265   4.239  14.863 -1.1704 -0.2740 -0.7642
 5698TIP3    H238586   0.317   4.306  14.738  1.5877  0.8423  0.8838
 5699TIP3   OH238587   6.093   0.738  10.893 -0.5339  0.3295  0.1083
 5699TIP3    H138588   6.073   0.741  10.986 -0.4823 -0.1613  0.1411
 5699TIP3    H238589   6.012   0.709  10.851 -1.0511  2.1273 -0.1830
 5700TIP3   OH238590   2.875   3.358  13.182 -0.6699 -0.4563  0.7466
 5700TIP3    H138591   2.943   3.367  13.248 -0.2954  0.6740  0.2193
 5700TIP3    H238592   2.915   3.304  13.114 -1.1193 -1.7879  1.4753
 5701TIP3   OH238593   3.584   5.435   1.797  0.4900 -0.4393  0.4001
 5701TIP3    H138594   3.496   5.404   1.817  0.6176 -0.5780  0.7487
 5701TIP3    H238595   3.603   5.498   1.867  0.6615 -0.3960  0.3147
 5702TIP3   OH238596   1.108   6.551   6.077 -0.1384  0.3993  0.2544
 5702TIP3    H138597   1.060   6.586   6.152 -2.0466 -2.7835  0.6941
 5702TIP3    H238598   1.198   6.540   6.109 -0.8890 -0.8221  2.1284
 5703TIP3   OH238599   4.886   4.035  12.751 -0.2863 -0.0588 -0.1467
 5703TIP3    H138600   4.971   4.004  12.719  0.5029  1.1266  0.7324
 5703TIP3    H238601   4.906   4.116  12.798 -1.7402 -0.4041  1.1361
 5704TIP3   OH238602   1.594   3.440   5.433  0.2924 -0.1228 -0.4204
 5704TIP3    H138603   1.625   3.523   5.468 -0.9059  0.2865 -0.2713
 5704TIP3    H238604   1.673   3.394   5.404  1.3112 -0.2788  2.3465
 5705TIP3   OH238605   3.689   4.212  14.435 -0.2803  0.4902 -0.3068
 5705TIP3    H138606   3.718   4.158  14.509 -0.5337  0.2360 -0.3927
 5705TIP3    H238607   3.739   4.179  14.361 -1.9261 -1.0334 -0.7940
 5706TIP3   OH238608   0.640   2.386   2.145 -0.5343 -0.1567  0.1528
 5706TIP3    H138609   0.557   2.360   2.104  0.1166 -0.3031 -1.1427
 5706TIP3    H238610   0.706   2.330   2.103  0.4659  1.2978 -0.2890
 5707TIP3   OH238611   3.038   4.425   2.347  0.1167 -0.5425  0.5889
 5707TIP3    H138612   2.967   4.447   2.407 -0.8056 -1.1433 -0.2306
 5707TIP3    H238613   3.018   4.336   2.318  0.5974 -0.3242 -0.4860
 5708TIP3   OH238614   6.753   2.643  14.042 -0.5572 -0.6863 -0.0254
 5708TIP3    H138615   6.769   2.719  14.099  0.7498  0.2596 -1.5832
 5708TIP3    H238616   6.677   2.600  14.082 -0.6551  0.8044  1.5379
 5709TIP3   OH238617   2.263   1.900  15.283 -0.2390 -0.0883  0.5152
 5709TIP3    H138618   2.171   1.924  15.292 -0.3473  0.0276 -0.6618
 5709TIP3    H238619   2.266   1.807  15.306 -0.8997 -0.4266 -0.6582
 5710TIP3   OH238620   5.156   4.810   3.633  0.4368 -0.5573  0.2164
 5710TIP3    H138621   5.099   4.887   3.637  0.9824 -0.1753  1.1432
 5710TIP3    H238622   5.131   4.758   3.709  0.5736 -0.9340  0.0039
 5711TIP3   OH238623   5.626   3.757   5.835  0.5702 -0.0112 -0.0844
 5711TIP3    H138624   5.563   3.779   5.767 -0.3925  0.6617  0.9847
 5711TIP3    H238625   5.631   3.836   5.890 -1.4664 -1.6529  2.7322
 5712TIP3   OH238626   5.080   2.950  12.485 -0.6738 -0.1297  0.5331
 5712TIP3    H138627   5.037   2.884  12.539 -1.3945 -0.3309 -0.2744
 5712TIP3    H238628   5.082   3.028  12.541 -0.1851 -0.7023  1.3388
 5713TIP3   OH238629   3.302   5.558  13.872  0.2562 -0.2904  0.1643
 5713TIP3    H138630   3.213   5.584  13.850  0.6592  1.1461  0.1742
 5713TIP3    H238631   3.294   5.465  13.894 -1.5266  0.1572  1.7085
 5714TIP3   OH238632   5.741   4.706   1.724 -0.1050 -0.5204  0.1632
 5714TIP3    H138633   5.812   4.758   1.761 -1.5259  1.9290 -0.3507
 5714TIP3    H238634   5.661   4.741   1.764 -1.5010  0.6121 -3.2320
 5715TIP3   OH238635   5.374   2.363   5.472 -0.0247  0.5376  0.7980
 5715TIP3    H138636   5.295   2.331   5.429 -0.5478  0.1980  1.9734
 5715TIP3    H238637   5.400   2.292   5.531  1.7469  0.2308 -0.2863
 5716TIP3   OH238638   3.258   6.740  16.810  0.7798  0.1080 -0.9489
 5716TIP3    H138639   3.265   6.834  16.793  1.7960  0.2696  0.2389
 5716TIP3    H238640   3.324   6.700  16.753  1.9301  0.3482  0.1756
 5717TIP3   OH238641   1.498   4.649   3.289  0.7945 -0.3124  0.3962
 5717TIP3    H138642   1.442   4.600   3.228  0.5101 -3.0637  2.6446
 5717TIP3    H238643   1.575   4.594   3.300  1.3282  0.6372  1.6825
 5718TIP3   OH238644   5.229   1.572   2.327  0.2138 -0.6801 -0.3159
 5718TIP3    H138645   5.159   1.563   2.262 -0.5039  1.0883  0.1585
 5718TIP3    H238646   5.287   1.638   2.290 -1.3404  2.0128  1.6622
 5719TIP3   OH238647   4.528   5.401   4.764  0.4554  0.5914  0.3638
 5719TIP3    H138648   4.574   5.424   4.845 -2.3268 -1.3833  2.7319
 5719TIP3    H238649   4.455   5.347   4.793 -2.5304  2.2757 -3.1989
 5720TIP3   OH238650   5.974   3.435  11.212  0.7747 -0.2627 -0.7086
 5720TIP3    H138651   5.968   3.451  11.118  2.4265 -0.6735 -0.9147
 5720TIP3    H238652   5.899   3.379  11.231 -0.3871  0.9693 -1.4906
 5721TIP3   OH238653   0.854   4.519   2.205 -0.3629  0.0043 -0.0763
 5721TIP3    H138654   0.804   4.517   2.287  0.9028  0.8305  0.7523
 5721TIP3    H238655   0.805   4.580   2.149  1.7347  4.2215  2.2151
 5722TIP3   OH238656   6.471   1.609   5.284 -0.4689  0.8915 -0.1719
 5722TIP3    H138657   6.478   1.516   5.308 -2.8233  1.0391  1.4090
 5722TIP3    H238658   6.416   1.608   5.206  1.3222  0.8874 -1.5039
 5723TIP3   OH238659   5.087   5.819   2.948  0.3383 -0.9836  0.3647
 5723TIP3    H138660   5.014   5.878   2.933 -1.5646 -3.6710 -1.8425
 5723TIP3    H238661   5.122   5.846   3.034 -0.9637  2.5758 -0.0382
 5724TIP3   OH238662   0.361   5.070  16.203 -0.2612  0.2926  0.0352
 5724TIP3    H138663   0.269   5.050  16.187 -0.3166  1.6753 -1.6955
 5724TIP3    H238664   0.371   5.160  16.173  1.8512 -0.1246 -0.6676
 5725TIP3   OH238665   5.510   5.696  13.023  0.7294 -0.2952 -0.4187
 5725TIP3    H138666   5.523   5.668  13.113 -2.0976  1.0656  0.5109
 5725TIP3    H238667   5.509   5.614  12.973 -0.8791 -1.3940  1.2785
 5726TIP3   OH238668   0.718   6.563  13.212 -0.5084  0.3870  0.0992
 5726TIP3    H138669   0.691   6.490  13.156 -0.2088  1.3499 -1.3450
 5726TIP3    H238670   0.668   6.550  13.293  0.8120 -2.3766  0.5894
 5727TIP3   OH238671   0.962   5.497   0.745  0.3564  0.6684 -0.8252
 5727TIP3    H138672   0.904   5.554   0.795  1.5436  0.3540  1.0265
 5727TIP3    H238673   1.049   5.534   0.758  0.7176  0.7056 -2.9359
 5728TIP3   OH238674   0.358   4.415  15.286 -0.0014 -0.4346  0.3712
 5728TIP3    H138675   0.290   4.404  15.351 -1.8378 -1.1627 -1.5497
 5728TIP3    H238676   0.418   4.342  15.302  0.2135  0.0408  1.8876
 5729TIP3   OH238677   2.495   6.454   3.254 -0.4880  0.3571  0.0732
 5729TIP3    H138678   2.441   6.522   3.293  1.3024  0.5721  2.3806
 5729TIP3    H238679   2.567   6.502   3.212 -0.4265 -0.0226 -0.2553
 5730TIP3   OH238680   2.333   3.951  16.020  0.0037 -0.1579  0.4768
 5730TIP3    H138681   2.373   3.913  15.941  0.4046  1.9736 -0.4151
 5730TIP3    H238682   2.407   3.969  16.078 -0.3353 -2.2398  1.6626
 5731TIP3   OH238683   5.384   5.419   3.689 -0.2264 -0.0272  0.3798
 5731TIP3    H138684   5.446   5.398   3.620 -1.1928  0.3437 -0.6413
 5731TIP3    H238685   5.318   5.350   3.683 -0.9417  0.6588  0.1167
 5732TIP3   OH238686   1.938   6.646   0.214 -0.2791  1.2274 -0.7233
 5732TIP3    H138687   1.952   6.613   0.126 -1.0282 -0.4762 -0.2382
 5732TIP3    H238688   1.850   6.619   0.236  0.8553 -0.9676  1.5992
 5733TIP3   OH238689   4.187   4.427  12.685  0.1946  0.4343 -0.2612
 5733TIP3    H138690   4.263   4.486  12.680 -0.6499  1.6773  0.8323
 5733TIP3    H238691   4.196   4.384  12.771  1.1921 -1.6638 -1.3356
 5734TIP3   OH238692   6.116   3.706   5.835  0.3859 -0.1731  0.5610
 5734TIP3    H138693   6.111   3.801   5.848  0.8964 -0.1114  0.3134
 5734TIP3    H238694   6.024   3.679   5.824  0.3591  0.6770 -2.0263
 5735TIP3   OH238695   4.525   6.504   1.777 -0.1812  0.1143 -0.3215
 5735TIP3    H138696   4.468   6.459   1.714 -0.2592 -1.3850  0.7730
 5735TIP3    H238697   4.611   6.505   1.734 -0.4970  0.2348 -0.9661
 5736TIP3   OH238698   3.105   4.274   1.410 -0.2725 -0.3926 -0.2774
 5736TIP3    H138699   3.104   4.321   1.327 -0.4218 -0.4913 -0.3303
 5736TIP3    H238700   3.178   4.213   1.403  0.8562  0.8246  0.3352
 5737TIP3   OH238701   2.588   1.971   3.225 -0.0673  0.3421  0.0248
 5737TIP3    H138702   2.551   2.027   3.157 -1.6196 -0.3637  0.2358
 5737TIP3    H238703   2.514   1.952   3.283  0.5092 -1.5087  0.2222
 5738TIP3   OH238704   6.215   0.855  13.896 -0.1862 -0.1656  0.0526
 5738TIP3    H138705   6.212   0.780  13.836  0.5911  0.5055 -0.8432
 5738TIP3    H238706   6.183   0.929  13.845  2.9467  0.9924 -0.4825
 5739TIP3   OH238707   3.764   4.195   3.141  0.3462 -0.5865  0.0256
 5739TIP3    H138708   3.792   4.119   3.090  1.3720  0.8703 -1.6875
 5739TIP3    H238709   3.845   4.241   3.161 -0.1390 -0.5539  2.1304
 5740TIP3   OH238710   5.486   4.011   5.970  0.2107  0.0176  0.3007
 5740TIP3    H138711   5.491   4.059   6.052  0.4862 -1.4509  1.1882
 5740TIP3    H238712   5.421   3.943   5.986 -0.7978  0.5887 -1.1968
 5741TIP3   OH238713   0.918   5.338  13.358 -0.0438  0.2539  0.1232
 5741TIP3    H138714   0.964   5.407  13.406  0.2215 -0.2380  0.5875
 5741TIP3    H238715   0.979   5.263  13.359  0.2617  0.4283 -1.5618
 5742TIP3   OH238716   0.943   4.434  15.975  0.0205  0.2100  0.1792
 5742TIP3    H138717   0.951   4.458  15.882 -0.5298  0.4889  0.1973
 5742TIP3    H238718   0.940   4.338  15.975  1.8302  0.1174  0.0696
 5743TIP3   OH238719   2.540   1.623   3.679  0.2895  0.1615  0.0801
 5743TIP3    H138720   2.615   1.682   3.687  0.1535  0.1747  1.5933
 5743TIP3    H238721   2.466   1.681   3.660  0.2992  0.3932  0.7347
 5744TIP3   OH238722   5.142   6.740   5.145 -0.1983 -0.1528  0.1397
 5744TIP3    H138723   5.187   6.665   5.186  1.7330  0.6033 -0.4565
 5744TIP3    H238724   5.198   6.764   5.072 -1.6749  0.8353 -0.7113
 5745TIP3   OH238725   4.412   3.243  12.428  0.6134  0.3567 -0.6632
 5745TIP3    H138726   4.336   3.216  12.376  0.2558 -0.1192  0.0945
 5745TIP3    H238727   4.382   3.320  12.477 -0.2503 -1.2796  1.5681
 5746TIP3   OH238728   5.625   3.139  11.698  0.0576 -0.0101 -0.0033
 5746TIP3    H138729   5.581   3.183  11.625  1.4878  0.6397 -0.5116
 5746TIP3    H238730   5.573   3.162  11.775 -0.1278  1.2724 -0.4844
 5747TIP3   OH238731   4.866   6.830  16.167 -0.1989  0.3901 -0.2212
 5747TIP3    H138732   4.939   6.827  16.106  1.2915  0.7126  1.4565
 5747TIP3    H238733   4.896   6.887  16.238 -1.7423 -0.1607  0.9395
 5748TIP3   OH238734   5.995   6.525  11.402  0.2063 -0.0677 -0.0352
 5748TIP3    H138735   6.078   6.559  11.434 -0.6567  0.0637  2.2209
 5748TIP3    H238736   5.982   6.442  11.449  0.3896 -1.6038 -2.5052
 5749TIP3   OH238737   0.278   3.921   3.665 -0.7118  0.0668  0.2244
 5749TIP3    H138738   0.276   3.835   3.623 -1.4891  0.2316 -0.1041
 5749TIP3    H238739   0.327   3.976   3.604  0.7316 -0.3817  0.9414
 5750TIP3   OH238740   1.101   5.048  12.530 -0.2586 -0.6459  0.4059
 5750TIP3    H138741   1.056   5.119  12.483 -0.6859 -1.5627 -0.6136
 5750TIP3    H238742   1.182   5.088  12.561  0.7799 -0.3410 -2.4265
 5751TIP3   OH238743   1.315   1.839   4.942 -0.4754  0.0366 -0.0832
 5751TIP3    H138744   1.312   1.821   5.036  1.6526  1.0274  0.2558
 5751TIP3    H238745   1.334   1.933   4.937 -1.3067  0.1506 -1.5344
 5752TIP3   OH238746   4.937   1.451   5.094 -0.5114 -0.3703  0.2143
 5752TIP3    H138747   4.946   1.383   5.161  0.5132 -0.1336  0.3271
 5752TIP3    H238748   4.902   1.404   5.018 -0.1581 -0.9586  0.4079
 5753TIP3   OH238749   2.560   4.486  11.025 -0.3289  0.4720 -0.4746
 5753TIP3    H138750   2.550   4.513  10.934  1.4783  1.5228 -0.4085
 5753TIP3    H238751   2.584   4.566  11.072  1.8694 -0.5865  0.3505
 5754TIP3   OH238752   5.057   3.955  15.036  0.2364  0.0580 -0.1917
 5754TIP3    H138753   5.099   3.937  15.120  0.6662  0.4397 -0.3226
 5754TIP3    H238754   5.077   4.047  15.019 -0.2617  0.1188 -0.4804
 5755TIP3   OH238755   3.646   5.604   3.674 -0.1989  1.0667 -0.1934
 5755TIP3    H138756   3.690   5.676   3.720 -0.3347 -0.2045  2.1189
 5755TIP3    H238757   3.562   5.595   3.718  0.1583 -1.0152  0.1868
 5756TIP3   OH238758   3.787   0.026  11.857  0.0522 -0.0266 -0.0836
 5756TIP3    H138759   3.712  -0.029  11.834  1.1393 -0.3501 -3.4405
 5756TIP3    H238760   3.860  -0.035  11.865  0.8387  0.6491 -1.6508
 5757TIP3   OH238761   1.672   1.579  12.267  0.1256  0.6903 -0.4553
 5757TIP3    H138762   1.686   1.610  12.177 -1.4305  0.4171 -0.8081
 5757TIP3    H238763   1.645   1.657  12.315  0.6938  0.7803 -0.2707
 5758TIP3   OH238764   4.763   5.819   5.931  0.1763  0.4330 -0.2919
 5758TIP3    H138765   4.829   5.777   5.876  0.8020  0.4958  0.3895
 5758TIP3    H238766   4.811   5.847   6.009 -0.7878 -0.2159  0.5721
 5759TIP3   OH238767   1.440   2.886   3.587  0.0555 -0.0049  0.0455
 5759TIP3    H138768   1.391   2.900   3.506  1.1903 -0.1002 -0.6782
 5759TIP3    H238769   1.529   2.863   3.559  0.8336  1.2481  1.3120
 5760TIP3   OH238770   2.212   3.571   0.854 -0.2073 -0.1427 -0.2206
 5760TIP3    H138771   2.161   3.494   0.875 -3.3988  2.0519  0.7824
 5760TIP3    H238772   2.151   3.630   0.809  2.5185  1.2085 -2.5418
 5761TIP3   OH238773   4.688   0.348   1.631 -0.5798 -0.2154  0.2767
 5761TIP3    H138774   4.711   0.433   1.593 -0.9797 -1.0160 -1.8980
 5761TIP3    H238775   4.611   0.366   1.685 -0.9218  0.7429 -0.4921
 5762TIP3   OH238776   2.327   4.581  12.507 -0.2310 -0.4166 -0.5488
 5762TIP3    H138777   2.413   4.564  12.470 -0.2358 -0.0011 -0.7546
 5762TIP3    H238778   2.270   4.514  12.468  0.0616 -0.9047 -0.1534
 5763TIP3   OH238779   0.403   0.233  16.945  0.0984 -0.1970  0.0302
 5763TIP3    H138780   0.453   0.184  17.010  0.2405  0.4581  0.4237
 5763TIP3    H238781   0.400   0.176  16.868  0.5970 -0.6486  0.3470
 5764TIP3   OH238782   6.812   3.383  11.703 -0.8808 -0.3698  0.1377
 5764TIP3    H138783   6.792   3.471  11.673 -0.4817 -0.1231  0.5732
 5764TIP3    H238784   6.906   3.384  11.719 -0.7915 -1.0295 -0.3472
 5765TIP3   OH238785   4.523   4.335   1.578 -0.1211 -0.4832 -0.1230
 5765TIP3    H138786   4.522   4.295   1.490  0.2080 -1.0312  0.1158
 5765TIP3    H238787   4.438   4.313   1.615  0.0372 -0.9323 -0.0136
 5766TIP3   OH238788   6.644   2.842  12.390 -0.4979  0.1008 -0.0542
 5766TIP3    H138789   6.730   2.800  12.384 -0.5100  0.2759 -1.7410
 5766TIP3    H238790   6.656   2.912  12.455 -0.2043 -1.7520  1.9908
 5767TIP3   OH238791   3.302   2.067  13.595  0.3662 -0.2296 -0.2207
 5767TIP3    H138792   3.272   2.149  13.633  1.4756 -0.6379  1.6379
 5767TIP3    H238793   3.394   2.083  13.573  0.5804 -0.9640  0.1265
 5768TIP3   OH238794   0.661   2.262  11.648 -0.0029 -0.0605  0.1186
 5768TIP3    H138795   0.686   2.327  11.582 -0.5308  0.1534  0.1222
 5768TIP3    H238796   0.697   2.296  11.730  0.3046 -0.1208  0.0114
 5769TIP3   OH238797   1.183   2.296  15.427 -0.4177  0.0985  0.3091
 5769TIP3    H138798   1.138   2.377  15.404 -0.4281 -0.0564 -0.2430
 5769TIP3    H238799   1.269   2.304  15.385 -1.2603 -1.1873 -1.8339
 5770TIP3   OH238800   1.126   2.230  13.811  0.5897  0.7711  0.2508
 5770TIP3    H138801   1.154   2.268  13.728 -0.4418 -1.2685 -1.1072
 5770TIP3    H238802   1.200   2.246  13.870  1.4718  2.0038 -1.1081
 5771TIP3   OH238803   4.138   0.001   3.196  0.0150  0.3539 -0.1069
 5771TIP3    H138804   4.209   0.003   3.261  0.0548  1.1655 -0.1694
 5771TIP3    H238805   4.064   0.041   3.241  0.0902  1.0789 -0.6115
 5772TIP3   OH238806   1.794   2.916  11.372  0.1697  0.0157  0.0612
 5772TIP3    H138807   1.703   2.891  11.357  0.0358  0.1028  0.6973
 5772TIP3    H238808   1.843   2.834  11.363  0.0488 -0.0096 -0.4052
 5773TIP3   OH238809   3.291   2.738  13.764 -0.4548  0.2202  0.3290
 5773TIP3    H138810   3.378   2.722  13.726 -0.3906 -1.6643  1.1644
 5773TIP3    H238811   3.297   2.828  13.797  0.6099  0.7121 -1.0493
 5774TIP3   OH238812   5.546   4.307  13.121 -0.3549  0.2800  0.2455
 5774TIP3    H138813   5.608   4.344  13.058 -0.8007 -0.0729 -0.4128
 5774TIP3    H238814   5.471   4.280  13.068 -0.8670  0.2502  0.9666
 5775TIP3   OH238815   3.857   5.220  13.204 -0.2922 -0.0558 -0.2328
 5775TIP3    H138816   3.877   5.136  13.246  0.7692 -0.3382 -1.2515
 5775TIP3    H238817   3.903   5.217  13.120  0.7882  2.0298  0.1953
 5776TIP3   OH238818   4.177   1.269   0.320 -0.2776 -0.8035 -0.1786
 5776TIP3    H138819   4.104   1.259   0.260 -0.8740  2.6256 -0.2131
 5776TIP3    H238820   4.155   1.213   0.395 -3.3448  0.6004  0.0985
 5777TIP3   OH238821   3.819   6.310   1.205  0.1140 -0.2170  0.5857
 5777TIP3    H138822   3.737   6.261   1.206 -1.7719  2.6281 -0.1372
 5777TIP3    H238823   3.796   6.396   1.241  1.2248  2.6307 -4.4310
 5778TIP3   OH238824   3.076   2.308   3.649 -0.4906 -0.1603 -0.1479
 5778TIP3    H138825   3.051   2.216   3.661 -1.3985  0.2852  1.5823
 5778TIP3    H238826   3.104   2.312   3.557  0.0460 -2.2611 -0.1363
 5779TIP3   OH238827   3.260   3.410   5.334 -0.2904  0.4799 -0.4936
 5779TIP3    H138828   3.264   3.357   5.254  1.8754 -0.5569  0.2528
 5779TIP3    H238829   3.340   3.462   5.333 -0.8102  1.3365  0.4511
 5780TIP3   OH238830   3.371   5.819  16.052  0.0027  0.0331  0.4695
 5780TIP3    H138831   3.322   5.741  16.027  2.0488 -0.6970 -1.6960
 5780TIP3    H238832   3.329   5.890  16.003 -0.0180 -0.2673  0.0417
 5781TIP3   OH238833   3.960   4.737   4.710  0.2003 -0.4073 -0.0615
 5781TIP3    H138834   4.025   4.806   4.696 -1.5107  1.4400  0.6613
 5781TIP3    H238835   3.967   4.682   4.632  1.0853  1.0388 -1.0544
 5782TIP3   OH238836   6.563   0.394  13.375 -0.3457 -0.2005  0.1035
 5782TIP3    H138837   6.493   0.333  13.398 -0.2181 -0.5107 -0.3282
 5782TIP3    H238838   6.518   0.472  13.342 -0.4875 -0.3551 -0.0677
 5783TIP3   OH238839   0.949   0.903  12.401 -0.3194 -0.0633 -0.2255
 5783TIP3    H138840   0.865   0.877  12.362 -0.2271 -1.4907  0.4470
 5783TIP3    H238841   0.926   0.946  12.483 -0.4283  0.7017 -0.6513
 5784TIP3   OH238842   1.617   5.930  15.934  0.1738  0.1572 -0.4587
 5784TIP3    H138843   1.611   5.834  15.932  0.9978  0.0895 -0.0409
 5784TIP3    H238844   1.614   5.956  15.842 -2.7090 -0.0584 -0.5331
 5785TIP3   OH238845   3.912   0.941   0.399  0.0431  0.1370  0.1172
 5785TIP3    H138846   4.000   0.919   0.370  0.1631 -1.5719  1.5730
 5785TIP3    H238847   3.880   1.003   0.334  1.7649 -0.3213 -1.2549
 5786TIP3   OH238848   6.304   5.656   2.664  0.3482 -0.3506 -0.3035
 5786TIP3    H138849   6.282   5.598   2.737 -0.3284  1.1057  0.7266
 5786TIP3    H238850   6.225   5.658   2.610  0.1961 -0.0487 -0.0772
 5787TIP3   OH238851   3.194   4.010   4.715  0.2836  0.8044  0.2753
 5787TIP3    H138852   3.152   4.033   4.632 -0.4770  1.4884  0.8151
 5787TIP3    H238853   3.242   4.089   4.740  2.8125 -0.2904 -0.8156
 5788TIP3   OH238854   1.649   1.083  11.254  0.1266 -0.9194 -0.1124
 5788TIP3    H138855   1.645   0.991  11.278 -1.7176 -1.0391 -0.7417
 5788TIP3    H238856   1.561   1.104  11.223  0.8295  0.7455 -1.1272
 5789TIP3   OH238857   4.581   4.877  16.465 -0.3143 -0.0433 -0.5785
 5789TIP3    H138858   4.569   4.883  16.560  0.0199  2.5636 -0.6185
 5789TIP3    H238859   4.672   4.852  16.454 -0.2645 -0.0453 -0.1987
 5790TIP3   OH238860   0.840   1.230   1.426  0.1655  0.0307  0.5786
 5790TIP3    H138861   0.812   1.297   1.364  2.0236  1.1008  0.8167
 5790TIP3    H238862   0.905   1.178   1.378  0.1226 -0.4231  0.9990
 5791TIP3   OH238863   5.072   3.300   1.496  0.1641 -0.2347 -0.4416
 5791TIP3    H138864   5.098   3.391   1.483 -2.8234  0.5861 -1.3839
 5791TIP3    H238865   5.075   3.288   1.591  1.2819  0.5773 -0.3459
 5792TIP3   OH238866   6.763   5.180   1.808 -0.7236  0.0245  0.4497
 5792TIP3    H138867   6.830   5.136   1.861 -1.2861 -1.0623  0.2773
 5792TIP3    H238868   6.692   5.198   1.869 -1.1010 -0.6374  0.2113
 5793TIP3   OH238869   0.750   0.774  17.179 -0.1561  0.0458 -0.4742
 5793TIP3    H138870   0.790   0.818  17.103 -0.5520  1.3080  0.0180
 5793TIP3    H238871   0.726   0.687  17.146  1.6661 -0.2407 -1.1778
 5794TIP3   OH238872   1.386   4.697  15.968 -0.3676 -0.1598 -0.7575
 5794TIP3    H138873   1.437   4.646  15.904  1.8720  0.3010  0.5630
 5794TIP3    H238874   1.332   4.632  16.012  1.5198 -1.2810  0.0459
 5795TIP3   OH238875   4.246   2.393  14.988  0.0218 -0.2483  0.3498
 5795TIP3    H138876   4.250   2.388  15.083  0.1667 -1.7354  0.2938
 5795TIP3    H238877   4.319   2.339  14.958  0.0113  0.2437 -0.6065
 5796TIP3   OH238878   2.481   1.880  13.292 -0.5120  0.1717 -1.0264
 5796TIP3    H138879   2.458   1.942  13.222 -1.7548  0.4129 -0.4350
 5796TIP3    H238880   2.469   1.930  13.372 -0.4932 -0.5347 -0.5779
 5797TIP3   OH238881   0.144   4.181  10.343 -0.1399 -0.6647  0.3038
 5797TIP3    H138882   0.238   4.197  10.338  0.0809 -1.6690  1.0348
 5797TIP3    H238883   0.107   4.236  10.273  1.1126 -1.2921 -0.8918
 5798TIP3   OH238884   4.187   3.441  16.173  0.1604  0.3592  0.2344
 5798TIP3    H138885   4.108   3.482  16.207 -0.8470 -0.4173 -1.0827
 5798TIP3    H238886   4.156   3.373  16.114  1.7694  1.2581 -1.8071
 5799TIP3   OH238887   2.524   4.927   6.657 -0.1312  0.1174 -0.5204
 5799TIP3    H138888   2.608   4.880   6.655  0.8358  1.8223 -1.4087
 5799TIP3    H238889   2.474   4.882   6.726  1.3734 -1.1330 -0.1841
 5800TIP3   OH238890   1.902   5.581  10.589  0.2321  0.0220 -0.3527
 5800TIP3    H138891   1.840   5.611  10.523  1.0691  3.2211  0.1316
 5800TIP3    H238892   1.981   5.557  10.539  0.6897  1.9480 -0.6466
 5801TIP3   OH238893   1.176   0.897   4.899 -0.4676  0.2032  0.2273
 5801TIP3    H138894   1.121   0.818   4.899  0.5844 -0.6180 -2.0545
 5801TIP3    H238895   1.146   0.946   4.976 -2.0603 -1.7727  0.9890
 5802TIP3   OH238896   2.028   0.935   6.431  0.3627  0.3874  0.0814
 5802TIP3    H138897   1.995   0.885   6.356  0.2225 -0.2610  0.5678
 5802TIP3    H238898   1.950   0.961   6.480  0.4924 -0.0222  0.5190
 5803TIP3   OH238899   1.257   1.397   4.572  0.1416  0.0799 -0.1364
 5803TIP3    H138900   1.206   1.316   4.577  0.1928  0.1116  1.1383
 5803TIP3    H238901   1.212   1.449   4.505 -0.2202 -0.7629 -0.5628
 5804TIP3   OH238902   3.362   2.223  11.387 -0.1435 -0.1022  0.1857
 5804TIP3    H138903   3.298   2.254  11.323  1.2544  0.0853 -1.1701
 5804TIP3    H238904   3.399   2.144  11.348 -0.3800 -0.8924  1.5029
 5805TIP3   OH238905   3.050   5.943  12.408  0.0700  0.7848  0.2218
 5805TIP3    H138906   3.118   5.878  12.423  1.0678  1.9462  0.8355
 5805TIP3    H238907   3.078   5.990  12.329  0.7176  2.1665  1.2431
 5806TIP3   OH238908   0.731   6.185   0.168  0.2640 -0.1107  0.2209
 5806TIP3    H138909   0.736   6.164   0.261 -1.6423 -0.5024  0.2802
 5806TIP3    H238910   0.692   6.273   0.166 -1.1252 -0.6992 -0.1905
 5807TIP3   OH238911   2.631   0.607   2.217  0.1962  0.1620 -0.4075
 5807TIP3    H138912   2.581   0.674   2.263  0.0918 -0.1714 -0.0202
 5807TIP3    H238913   2.723   0.633   2.229  0.1339  0.5065 -0.6916
 5808TIP3   OH238914   6.175   2.471  13.091  0.6289  0.0844  0.0513
 5808TIP3    H138915   6.148   2.561  13.073  1.0245  0.0434 -0.8088
 5808TIP3    H238916   6.256   2.479  13.140  0.0496  0.1990  0.9971
 5809TIP3   OH238917   3.586   1.190   6.415 -0.3617 -0.6154  0.4908
 5809TIP3    H138918   3.578   1.223   6.505 -0.0563 -1.2651  0.7682
 5809TIP3    H238919   3.598   1.268   6.361  2.8962 -0.3158  1.4035
 5810TIP3   OH238920   5.300   4.633   1.574  0.0931  0.6345  0.1949
 5810TIP3    H138921   5.232   4.595   1.519  1.8429  1.0792 -2.4711
 5810TIP3    H238922   5.271   4.723   1.588  0.6655  1.2416 -2.0874
 5811TIP3   OH238923   0.931   5.304  15.859  0.1295  0.0890 -0.0609
 5811TIP3    H138924   0.892   5.238  15.917 -0.1438  0.1251 -0.2043
 5811TIP3    H238925   0.860   5.364  15.839  0.3177  0.2881 -0.1361
 5812TIP3   OH238926   5.292   1.767  15.482 -0.6928  0.0813  0.0376
 5812TIP3    H138927   5.366   1.817  15.446 -0.6916  0.2271  0.2411
 5812TIP3    H238928   5.263   1.818  15.557 -0.1765 -0.6291  0.7383
 5813TIP3   OH238929   6.410   5.128   2.512 -0.5399  0.5585 -0.1009
 5813TIP3    H138930   6.468   5.115   2.588  0.3643 -0.7642 -0.9630
 5813TIP3    H238931   6.327   5.091   2.539 -0.3066  0.3499  0.3459
 5814TIP3   OH238932   1.111   4.720   0.643 -0.6946 -0.2342 -0.4912
 5814TIP3    H138933   1.026   4.763   0.646 -1.1343 -1.1046  1.6361
 5814TIP3    H238934   1.174   4.790   0.626 -1.6897  0.6972 -0.4017
 5815TIP3   OH238935   6.045   5.476  10.952 -0.4297  0.2812 -0.3796
 5815TIP3    H138936   6.017   5.398  10.903 -1.3072  0.7009 -0.5723
 5815TIP3    H238937   6.078   5.535  10.884 -0.9279  0.5586 -0.3882
 5816TIP3   OH238938   5.603   3.471   5.879 -0.6236 -0.1500 -0.0344
 5816TIP3    H138939   5.508   3.464   5.885 -0.6115  0.4908  1.5126
 5816TIP3    H238940   5.620   3.565   5.868 -0.1960 -0.3903 -1.5971
 5817TIP3   OH238941   6.780   4.042   4.711  0.7064  0.6778 -0.1375
 5817TIP3    H138942   6.701   4.053   4.658  0.2624 -0.0329  0.3744
 5817TIP3    H238943   6.817   4.131   4.716 -0.4500  1.1639  0.2291
 5818TIP3   OH238944   0.807   4.116  15.125  0.0845 -0.1612 -0.6650
 5818TIP3    H138945   0.837   4.081  15.209  1.1562 -0.0312 -0.9897
 5818TIP3    H238946   0.878   4.097  15.064 -0.1674  0.8325 -1.2808
 5819TIP3   OH238947   4.546   5.904   5.599  0.1692  0.0843  0.1595
 5819TIP3    H138948   4.542   5.917   5.694  0.8552 -1.4762  0.4346
 5819TIP3    H238949   4.495   5.824   5.584  0.9134 -0.2500 -0.6431
 5820TIP3   OH238950   2.101   3.344   2.832  0.1384  0.2946  0.3851
 5820TIP3    H138951   2.157   3.275   2.867 -1.5413 -1.8861 -1.0272
 5820TIP3    H238952   2.152   3.380   2.758  0.6867  0.0479  0.6355
 5821TIP3   OH238953   3.563   5.493  16.837 -0.1260 -0.1220 -0.2318
 5821TIP3    H138954   3.562   5.470  16.930  1.6021  1.3567  0.2165
 5821TIP3    H238955   3.575   5.409  16.792  1.5013 -0.6292  1.0386
 5822TIP3   OH238956   5.408   0.651  12.871  0.4829 -0.3804 -0.5013
 5822TIP3    H138957   5.495   0.640  12.833  0.0661  0.2363 -1.6587
 5822TIP3    H238958   5.370   0.726  12.825 -0.3700 -0.1383  0.5403
 5823TIP3   OH238959   5.097   4.228  11.544  0.3961  0.0715  0.5717
 5823TIP3    H138960   5.166   4.215  11.609  0.5820 -1.8225  0.0541
 5823TIP3    H238961   5.141   4.271  11.471  1.0232 -0.9936  0.3006
 5824TIP3   OH238962   2.577   4.024   2.619  0.3254 -0.0334  0.1449
 5824TIP3    H138963   2.534   3.938   2.618 -1.2538  0.7113 -1.7219
 5824TIP3    H238964   2.669   4.005   2.638  0.1801 -2.2315 -1.0746
 5825TIP3   OH238965   4.163   5.417   0.128 -0.0825  0.5202  0.1215
 5825TIP3    H138966   4.089   5.374   0.170 -0.3862  1.9389  1.1135
 5825TIP3    H238967   4.135   5.508   0.118  0.7175  0.6147 -1.4715
 5826TIP3   OH238968   0.348   1.275   5.335 -0.1408 -0.6005 -0.6607
 5826TIP3    H138969   0.356   1.220   5.257 -0.3785 -2.0035  0.2631
 5826TIP3    H238970   0.438   1.283   5.369  0.1289  0.8961 -1.6146
 5827TIP3   OH238971   6.067   4.153   0.618 -0.6710  0.1360  0.6109
 5827TIP3    H138972   6.025   4.071   0.644  0.8024 -0.7092  0.4088
 5827TIP3    H238973   6.105   4.135   0.532 -0.2375  0.9896  0.6115
 5828TIP3   OH238974   0.042   6.439   0.740 -0.2236  0.0682 -0.0379
 5828TIP3    H138975   0.055   6.423   0.647 -0.5257 -0.9460  0.0877
 5828TIP3    H238976  -0.013   6.517   0.744 -0.2666  0.0727 -0.7021
 5829TIP3   OH238977   4.492   1.291  12.287  0.2037  0.6228 -0.0462
 5829TIP3    H138978   4.445   1.226  12.339  1.8131 -0.3531  0.2654
 5829TIP3    H238979   4.509   1.363  12.349 -2.2401  1.7678 -0.5856
 5830TIP3   OH238980   5.590   0.008  15.736  0.2324  0.2700  0.1723
 5830TIP3    H138981   5.650  -0.008  15.663  1.8316 -0.3877  1.5521
 5830TIP3    H238982   5.581   0.103  15.739 -2.6860  0.2769 -2.9620
 5831TIP3   OH238983   5.368   6.658   1.190  0.3686  0.3079  0.3943
 5831TIP3    H138984   5.431   6.715   1.234 -1.7950  1.6290  2.0573
 5831TIP3    H238985   5.385   6.571   1.227  2.0072  0.3612 -0.1720
 5832TIP3   OH238986   0.093   5.417  11.814  0.6976  0.5130  0.2735
 5832TIP3    H138987   0.042   5.487  11.854 -0.4619 -0.4080  0.4784
 5832TIP3    H238988   0.144   5.460  11.746  0.0971  1.5628  0.4646
 5833TIP3   OH238989   2.827   5.126   0.368  0.2554 -0.0945  0.3685
 5833TIP3    H138990   2.840   5.210   0.412 -1.9067  0.1860  0.5979
 5833TIP3    H238991   2.913   5.103   0.334  0.9862  2.0313  0.6168
 5834TIP3   OH238992   0.937   3.532   3.128  0.9500 -0.3632  0.6497
 5834TIP3    H138993   0.847   3.522   3.096  0.6182  1.3805  0.9478
 5834TIP3    H238994   0.927   3.571   3.215  1.9885 -0.6114  0.8863
 5835TIP3   OH238995   2.904   3.664   4.789  0.6341 -0.4579 -0.0938
 5835TIP3    H138996   2.985   3.645   4.742  0.2943 -0.1756 -0.7973
 5835TIP3    H238997   2.849   3.709   4.726  0.8963  1.6805  1.0975
 5836TIP3   OH238998   5.434   3.024  13.835  0.2792  0.2010  0.1613
 5836TIP3    H138999   5.402   3.071  13.758 -0.5317 -1.0232 -0.2783
 5836TIP3    H239000   5.527   3.011  13.818  0.2443  0.5210 -0.2971
 5837TIP3   OH239001   6.739   5.870  14.993  0.5335 -0.0854 -0.1017
 5837TIP3    H139002   6.826   5.880  14.956  0.9355  0.5669  0.9557
 5837TIP3    H239003   6.700   5.957  14.987  0.3184 -0.1531  0.2839
 5838TIP3   OH239004   6.777   3.654  11.611  0.3123 -0.2611 -0.1427
 5838TIP3    H139005   6.700   3.659  11.555  0.2549 -0.3688 -0.0763
 5838TIP3    H239006   6.783   3.740  11.653 -0.4311 -0.5993  0.7072
 5839TIP3   OH239007   1.222   6.245  15.581 -0.1895  0.7854 -0.1744
 5839TIP3    H139008   1.259   6.305  15.646 -1.7840  0.6002  0.9851
 5839TIP3    H239009   1.151   6.201  15.628  0.0525 -1.0170 -1.4113
 5840TIP3   OH239010   6.096   3.652   3.936 -0.1188 -0.0132  0.2143
 5840TIP3    H139011   6.185   3.665   3.904  0.0125  0.2941  0.6866
 5840TIP3    H239012   6.090   3.559   3.954 -0.2185 -0.1992 -0.7632
 5841TIP3   OH239013   4.527   2.268   5.182  0.9414  0.5727 -0.1592
 5841TIP3    H139014   4.471   2.333   5.224  1.3444  1.3088 -0.7399
 5841TIP3    H239015   4.550   2.207   5.252 -1.1517 -0.1729 -0.0382
 5842TIP3   OH239016   0.701   4.867  10.477  0.4208  0.3401  0.3411
 5842TIP3    H139017   0.668   4.930  10.412 -1.5269 -1.1575 -0.2310
 5842TIP3    H239018   0.703   4.916  10.559 -0.1806  1.4104 -0.2576
 5843TIP3   OH239019   5.132   2.828  13.845  0.3342 -0.6105 -0.1830
 5843TIP3    H139020   5.054   2.878  13.867  0.7978 -0.2334  0.6621
 5843TIP3    H239021   5.197   2.894  13.822  0.7096 -0.8532  0.1519
 5844TIP3   OH239022   0.718   6.140  13.765  0.3559 -0.4112  0.6737
 5844TIP3    H139023   0.782   6.089  13.815 -0.1595 -1.8656 -0.1050
 5844TIP3    H239024   0.735   6.117  13.674  0.4275  1.2193  0.2326
 5845TIP3   OH239025   3.388   5.307  12.060  0.0594 -0.2643  0.1486
 5845TIP3    H139026   3.389   5.381  11.998 -0.5701 -1.4317 -1.3283
 5845TIP3    H239027   3.311   5.257  12.034  1.4992 -2.4536 -0.1413
 5846TIP3   OH239028   2.898   1.881   0.111 -0.4074 -0.3089  0.4675
 5846TIP3    H139029   2.899   1.943   0.038 -0.7722 -0.3000  0.4679
 5846TIP3    H239030   2.939   1.929   0.183  1.0415 -0.7146 -0.0389
 5847TIP3   OH239031   1.833   1.696  13.766  0.5940  0.0341 -0.0515
 5847TIP3    H139032   1.793   1.619  13.726 -1.7629  2.7329 -3.4498
 5847TIP3    H239033   1.908   1.717  13.711  1.1455  0.2603  0.7596
 5848TIP3   OH239034   5.457   1.750  16.147 -1.1077  0.2194 -0.4223
 5848TIP3    H139035   5.505   1.829  16.123 -1.7515  0.1721 -1.9225
 5848TIP3    H239036   5.400   1.732  16.073  0.0724 -2.4952 -0.8187
 5849TIP3   OH239037   0.941   1.646   4.023 -0.1507  0.1128  0.0987
 5849TIP3    H139038   1.006   1.578   4.042 -0.2277 -0.2180 -0.7495
 5849TIP3    H239039   0.895   1.659   4.106  0.5435 -0.1401  0.5339
 5850TIP3   OH239040   6.229   0.980   1.044 -0.2100 -0.5270 -0.4947
 5850TIP3    H139041   6.151   0.972   1.099 -0.1937  0.3675 -0.3373
 5850TIP3    H239042   6.281   0.902   1.066  0.2592  0.2958  1.5239
 5851TIP3   OH239043   6.133   1.993  17.042  0.1782  0.8076  0.1039
 5851TIP3    H139044   6.171   1.908  17.019 -0.0386  0.2712  1.6139
 5851TIP3    H239045   6.199   2.057  17.015  0.1091  0.2229 -1.5487
 5852TIP3   OH239046   4.408   3.501   4.037 -0.6922 -0.3313 -0.2953
 5852TIP3    H139047   4.322   3.493   3.996 -0.1534 -0.1649 -1.4932
 5852TIP3    H239048   4.471   3.485   3.966  0.3490  3.6768 -0.5576
 5853TIP3   OH239049   1.151   6.000   2.492 -0.1450 -0.2802 -0.3172
 5853TIP3    H139050   1.086   6.015   2.424  0.3881 -0.4900 -0.8815
 5853TIP3    H239051   1.230   5.975   2.445  0.8563  1.6085  0.2498
 5854TIP3   OH239052   1.602   2.298  10.920  0.2275 -0.6333 -0.3699
 5854TIP3    H139053   1.663   2.253  10.861 -0.4584  0.7933 -2.2572
 5854TIP3    H239054   1.566   2.369  10.868  0.1403  1.2085  2.0286
 5855TIP3   OH239055   3.292   4.078   3.985  0.3373  0.0147  0.0712
 5855TIP3    H139056   3.320   4.042   4.069 -0.1862 -1.1223 -0.2157
 5855TIP3    H239057   3.222   4.140   4.007 -0.0151 -0.5134  0.4616
 5856TIP3   OH239058   4.124   2.695  15.890 -0.3105 -0.2717 -0.1344
 5856TIP3    H139059   4.129   2.761  15.821  0.9892 -1.1176 -0.8897
 5856TIP3    H239060   4.047   2.643  15.868 -2.8854  2.3553  1.8192
 5857TIP3   OH239061   4.859   2.367   0.365  0.0558  0.6076  0.3555
 5857TIP3    H139062   4.883   2.437   0.426  0.9042 -1.0378  1.9847
 5857TIP3    H239063   4.940   2.320   0.349 -0.6309 -0.4464 -0.1645
 5858TIP3   OH239064   2.682   2.644  12.534 -0.5652 -0.3187 -0.2209
 5858TIP3    H139065   2.672   2.732  12.497 -2.3031 -0.9528 -1.4016
 5858TIP3    H239066   2.752   2.653  12.598 -0.9223  1.9996 -0.0556
 5859TIP3   OH239067   3.331   2.115  16.675  0.3128  0.4684  0.3431
 5859TIP3    H139068   3.327   2.112  16.580 -0.0660 -1.9634  0.3793
 5859TIP3    H239069   3.381   2.037  16.700 -1.7275 -0.3620  2.2038
 5860TIP3   OH239070   1.992   1.872   3.970 -0.4667  0.0874 -0.3554
 5860TIP3    H139071   1.914   1.902   4.016 -0.2043 -0.9789  0.8680
 5860TIP3    H239072   2.065   1.905   4.023 -0.1417 -0.6516 -0.3284
 5861TIP3   OH239073   3.861   2.771   3.890 -0.0723  0.2620 -0.3193
 5861TIP3    H139074   3.843   2.761   3.796 -0.1025  0.1968 -0.3062
 5861TIP3    H239075   3.879   2.682   3.921 -1.6420  0.0518  0.0668
 5862TIP3   OH239076   1.692   6.207  14.929  0.0775  0.0260  0.2156
 5862TIP3    H139077   1.734   6.152  14.995 -1.8068 -0.4523  1.1130
 5862TIP3    H239078   1.623   6.252  14.977  0.5244  1.9452 -0.8598
 5863TIP3   OH239079   3.379   3.021  14.467  0.0812  0.1138  0.2930
 5863TIP3    H139080   3.379   3.065  14.382  0.8292 -1.0038 -0.2929
 5863TIP3    H239081   3.301   3.057  14.512  0.9822  2.4948  0.1012
 5864TIP3   OH239082   2.601   3.918   0.193 -0.1142  0.8072 -0.3779
 5864TIP3    H139083   2.506   3.921   0.202 -0.0621 -0.3344  1.0730
 5864TIP3    H239084   2.624   3.826   0.211  1.4019  1.4225  1.1059
 5865TIP3   OH239085   4.886   5.578  12.974 -0.1218  0.0525  0.2994
 5865TIP3    H139086   4.912   5.616  12.890  2.6930 -0.9762  0.5877
 5865TIP3    H239087   4.825   5.641  13.011 -2.5759 -0.0650 -3.0265
 5866TIP3   OH239088   5.326   4.669  13.089 -0.1724 -0.0619  0.0118
 5866TIP3    H139089   5.264   4.739  13.066 -1.2068 -1.4226 -1.5897
 5866TIP3    H239090   5.292   4.632  13.170  0.4967  1.3635  0.9904
 5867TIP3   OH239091   0.407   5.756   1.775 -0.1640  0.6915  0.4946
 5867TIP3    H139092   0.390   5.697   1.702 -0.0307 -0.5908  1.4559
 5867TIP3    H239093   0.364   5.838   1.751 -0.6352  0.1048 -0.7318
 5868TIP3   OH239094   0.230   2.911  13.243  0.0608 -0.3632 -0.1210
 5868TIP3    H139095   0.207   2.851  13.314  1.3770 -2.3233 -1.2630
 5868TIP3    H239096   0.271   2.856  13.176  2.4035  1.9585 -0.7834
 5869TIP3   OH239097   5.810   5.936  16.373 -0.0063 -0.3753  0.1362
 5869TIP3    H139098   5.863   5.942  16.453 -0.0877  0.6528  0.1327
 5869TIP3    H239099   5.722   5.917  16.404 -0.0677  0.1751  0.3074
 5870TIP3   OH239100   3.437   1.534  15.582  0.0777 -0.0361  0.9112
 5870TIP3    H139101   3.353   1.576  15.566  0.5636  0.9283  0.7815
 5870TIP3    H239102   3.416   1.444  15.607 -0.9170 -0.4832 -1.2776
 5871TIP3   OH239103   1.026   1.095  13.200  0.1209 -0.0577 -0.0507
 5871TIP3    H139104   1.058   1.181  13.172 -0.7239  0.1790 -0.3287
 5871TIP3    H239105   1.050   1.036  13.129 -1.6678  0.4676 -1.1757
 5872TIP3   OH239106   2.822   6.209   0.390 -0.3692 -0.0554 -0.3792
 5872TIP3    H139107   2.886   6.168   0.331 -2.0672 -0.0641 -2.3262
 5872TIP3    H239108   2.813   6.147   0.462  1.1916 -0.4326 -0.4683
 5873TIP3   OH239109   5.326   0.294  11.718 -0.1797 -0.5218 -0.5745
 5873TIP3    H139110   5.396   0.347  11.680  0.3223 -1.9531 -1.7580
 5873TIP3    H239111   5.365   0.254  11.795  0.3777 -1.4057 -1.2940
 5874TIP3   OH239112   4.945   6.279  10.620  0.6712 -0.4826 -0.1086
 5874TIP3    H139113   4.989   6.334  10.685 -0.7334  1.6486 -0.8460
 5874TIP3    H239114   5.001   6.283  10.543  0.3703  0.3004 -0.2966
 5875TIP3   OH239115   2.179   3.639  15.764  0.0995 -0.3262 -0.2418
 5875TIP3    H139116   2.170   3.631  15.859  0.8213 -1.8286 -0.2781
 5875TIP3    H239117   2.099   3.686  15.736 -0.0619  0.2345  1.0961
 5876TIP3   OH239118   4.363   0.743  13.445  0.8005 -0.2551 -0.3954
 5876TIP3    H139119   4.371   0.686  13.369  1.2517 -1.5253  0.5547
 5876TIP3    H239120   4.440   0.799  13.442 -0.2799  1.2393 -2.0279
 5877TIP3   OH239121   6.458   5.843   3.959  0.4890 -0.4482  0.1751
 5877TIP3    H139122   6.465   5.799   3.874 -0.2259 -0.2247 -0.0005
 5877TIP3    H239123   6.387   5.906   3.948 -0.2628 -1.0895  1.2343
 5878TIP3   OH239124   2.439   4.517   5.649  0.1888 -0.2883 -0.1577
 5878TIP3    H139125   2.400   4.564   5.723  0.7454  0.7835 -0.5222
 5878TIP3    H239126   2.366   4.497   5.591 -0.4016 -1.9530  1.0781
 5879TIP3   OH239127   1.203   5.405   2.514 -0.2268  0.4911  0.5849
 5879TIP3    H139128   1.131   5.465   2.494 -1.1387 -0.9857 -0.8976
 5879TIP3    H239129   1.169   5.319   2.488  2.8892  0.0096 -2.5724
 5880TIP3   OH239130   0.504   1.252   0.292 -0.1633  0.0144  0.1605
 5880TIP3    H139131   0.560   1.213   0.226  1.2406 -1.3514  2.0469
 5880TIP3    H239132   0.452   1.316   0.244  1.0482 -0.6203 -2.1663
 5881TIP3   OH239133   6.386   5.302  14.826  0.1181  0.2014  0.1024
 5881TIP3    H139134   6.299   5.331  14.850  0.5522  1.7115 -0.0711
 5881TIP3    H239135   6.394   5.215  14.866 -1.8911 -0.5232 -0.9210
 5882TIP3   OH239136   0.353   4.034   3.042 -0.6004  0.4094 -0.7111
 5882TIP3    H139137   0.412   4.031   3.117 -0.9877 -1.1402 -0.4385
 5882TIP3    H239138   0.404   4.078   2.973 -0.0960  1.4675  0.3078
 5883TIP3   OH239139   3.392   5.556   3.778 -0.0191 -0.0664  1.0016
 5883TIP3    H139140   3.308   5.602   3.772 -0.3716 -0.6970  1.0251
 5883TIP3    H239141   3.371   5.466   3.753  0.6179 -0.2645  1.1828
 5884TIP3   OH239142   2.685   3.911  17.028 -0.5228 -1.4293  0.1424
 5884TIP3    H139143   2.695   3.985  16.968  1.8603 -2.6802 -1.1235
 5884TIP3    H239144   2.738   3.934  17.104 -2.0432 -0.6732  1.0276
 5885TIP3   OH239145   4.614   2.662  16.249  0.3549 -0.0677  0.1393
 5885TIP3    H139146   4.635   2.676  16.342 -0.0764 -0.0336  0.2340
 5885TIP3    H239147   4.676   2.596  16.220  2.3353  1.8542 -0.2694
 5886TIP3   OH239148   5.865   1.141   0.956 -0.2022  0.4664 -0.1508
 5886TIP3    H139149   5.809   1.217   0.976  0.0583  0.4908  0.4971
 5886TIP3    H239150   5.944   1.179   0.918  0.1497  0.5563  0.6684
 5887TIP3   OH239151   2.130   1.819   0.049 -0.3013  0.4338  0.2108
 5887TIP3    H139152   2.048   1.816   0.100  0.5412  3.2716  2.0130
 5887TIP3    H239153   2.123   1.900  -0.002  0.7289 -0.1313 -0.8581
 5888TIP3   OH239154   5.363   2.862   0.783  0.0956  0.2192 -0.1487
 5888TIP3    H139155   5.296   2.917   0.742  0.1249 -0.0610 -0.5706
 5888TIP3    H239156   5.317   2.783   0.810 -0.0096  0.5668  0.7334
 5889TIP3   OH239157   3.299   2.057   0.715  0.6818  0.3045  0.3273
 5889TIP3    H139158   3.213   2.100   0.711  0.1147 -0.5277  2.3579
 5889TIP3    H239159   3.295   1.990   0.648  0.1075  0.8822 -0.2349
 5890TIP3   OH239160   3.094   1.824  13.291  0.0126 -0.4993 -0.3664
 5890TIP3    H139161   3.175   1.806  13.339 -0.2680 -0.6494  0.0516
 5890TIP3    H239162   3.122   1.827  13.199  0.5046 -0.4766 -0.2204
 5891TIP3   OH239163   3.969   5.388  14.525  0.4981  0.1897  0.6868
 5891TIP3    H139164   3.945   5.478  14.547 -1.2528  0.3679 -1.5803
 5891TIP3    H239165   3.894   5.354  14.477  1.8728 -1.8629 -0.1598
 5892TIP3   OH239166   3.009   6.077   0.209  0.0307  0.1297  0.0570
 5892TIP3    H139167   3.021   5.984   0.193  1.2288  0.0812  1.0466
 5892TIP3    H239168   3.064   6.120   0.143 -1.0444  0.1721 -0.8305
 5893TIP3   OH239169   3.066   5.907   0.552  0.5442  0.1542 -0.0725
 5893TIP3    H139170   3.102   5.947   0.473  2.2754  0.3673  0.7858
 5893TIP3    H239171   3.112   5.950   0.624  1.0768 -2.0268  0.9673
 5894TIP3   OH239172   4.010   0.525   5.025 -0.7200 -0.2052  0.0816
 5894TIP3    H139173   4.013   0.521   4.929 -0.9056 -0.9747  0.1020
 5894TIP3    H239174   3.958   0.603   5.044 -0.3640  0.1651 -0.4404
 5895TIP3   OH239175   5.937   3.012  12.603 -0.1700 -0.8677 -0.6821
 5895TIP3    H139176   5.900   3.097  12.624  1.4120 -0.8118  2.3779
 5895TIP3    H239177   5.984   3.026  12.520 -1.8811  0.5409 -1.4735
 5896TIP3   OH239178   6.293   5.545   1.032 -0.0102 -0.0797 -0.2865
 5896TIP3    H139179   6.387   5.547   1.046 -0.2265  0.8422  1.2557
 5896TIP3    H239180   6.279   5.472   0.972  1.6321 -0.4916 -0.2045
 5897TIP3   OH239181   5.300   6.800  12.682 -0.1180 -0.3712 -0.2769
 5897TIP3    H139182   5.379   6.841  12.648 -0.9216  0.6021 -1.0251
 5897TIP3    H239183   5.295   6.830  12.773 -0.9164  1.6086 -0.9199
 5898TIP3   OH239184   5.502   4.971   5.187  0.1801 -0.5557  0.5874
 5898TIP3    H139185   5.525   5.050   5.237 -2.3043  0.7670 -0.2072
 5898TIP3    H239186   5.586   4.938   5.156  1.3849  1.3002  1.6523
 5899TIP3   OH239187   1.412   4.005   0.974  0.1859 -0.0539 -0.7668
 5899TIP3    H139188   1.412   3.945   0.899  2.0866  0.3317 -1.1312
 5899TIP3    H239189   1.487   3.978   1.026 -0.8931 -0.0708  0.8578
 5900TIP3   OH239190   5.678   4.933   2.359 -0.0534  0.1989  0.7445
 5900TIP3    H139191   5.595   4.939   2.313  0.7099 -0.9301 -0.8841
 5900TIP3    H239192   5.726   5.012   2.335  1.4999 -1.6241 -3.0118
 5901TIP3   OH239193   1.944   5.237  14.184 -0.1083 -0.5279 -0.1092
 5901TIP3    H139194   1.981   5.149  14.176  1.1594  0.0220 -0.6664
 5901TIP3    H239195   1.870   5.238  14.124  0.6406 -0.8449 -1.0750
 5902TIP3   OH239196   3.383   3.717  11.164 -1.2364 -0.6983  0.0423
 5902TIP3    H139197   3.345   3.777  11.228 -4.8976 -0.5207 -2.0099
 5902TIP3    H239198   3.354   3.630  11.192  0.3235 -1.0773  0.5839
 5903TIP3   OH239199   4.094   1.191  15.397  0.2063 -0.2677 -0.4023
 5903TIP3    H139200   4.175   1.159  15.356  1.5381 -0.2830  2.0561
 5903TIP3    H239201   4.038   1.113  15.402  0.3417 -0.4438 -1.3667
 5904TIP3   OH239202   0.696   5.329  15.517 -0.0303  0.4245 -0.9101
 5904TIP3    H139203   0.767   5.295  15.464 -0.9337 -2.6311 -0.3366
 5904TIP3    H239204   0.617   5.316  15.464 -0.5537  0.6517 -0.2201
 5905TIP3   OH239205   5.716   4.357  12.876 -0.1479  1.0799 -0.0337
 5905TIP3    H139206   5.644   4.309  12.835  0.9161  0.5577 -1.3834
 5905TIP3    H239207   5.736   4.427  12.814  0.7087  1.0091  0.1450
 5906TIP3   OH239208   6.423   1.401  10.937  0.2441  0.3559  0.1189
 5906TIP3    H139209   6.449   1.490  10.962  1.4873 -0.4104  1.6836
 5906TIP3    H239210   6.501   1.365  10.895 -0.2026 -0.0676 -0.3551
 5907TIP3   OH239211   0.275   0.284  13.199 -0.2656 -1.0247 -0.4386
 5907TIP3    H139212   0.346   0.256  13.142  1.0185 -0.6383  0.9079
 5907TIP3    H239213   0.217   0.336  13.142  2.7818  2.4383 -0.7884
 5908TIP3   OH239214   1.054   2.182   4.963 -0.1611  0.3642 -0.5071
 5908TIP3    H139215   0.976   2.205   5.014  0.0086  1.2003 -0.6132
 5908TIP3    H239216   1.036   2.094   4.930  0.1024 -0.6240  1.7605
 5909TIP3   OH239217   0.364   5.380  16.815 -0.7938 -0.0957  0.4595
 5909TIP3    H139218   0.324   5.315  16.756 -1.2441 -0.6779  1.3689
 5909TIP3    H239219   0.390   5.329  16.892  1.8097  0.2569 -0.1028
 5910TIP3   OH239220   3.864   4.737  13.890  0.0758  0.6337 -0.4042
 5910TIP3    H139221   3.807   4.748  13.814 -0.7043 -4.6968 -0.9797
 5910TIP3    H239222   3.952   4.729  13.854 -0.2861 -1.8220 -0.9366
 5911TIP3   OH239223   4.082   1.472   3.286  0.1100  0.0025  0.5339
 5911TIP3    H139224   4.064   1.422   3.366 -1.4134 -0.1589  0.1196
 5911TIP3    H239225   3.995   1.489   3.248  0.7560  0.7770 -0.6627
 5912TIP3   OH239226   2.311   2.969  11.020 -0.3836  0.4115  0.2627
 5912TIP3    H139227   2.274   3.048  10.983 -0.5784  0.1428 -0.1170
 5912TIP3    H239228   2.405   2.976  11.002 -0.6991 -0.7556 -2.3200
 5913TIP3   OH239229   2.834   6.634   0.865 -0.5142  0.7391 -0.3777
 5913TIP3    H139230   2.891   6.603   0.794 -0.1681 -1.8290  0.9247
 5913TIP3    H239231   2.866   6.723   0.884 -0.1276  1.2134 -2.8683
 5914TIP3   OH239232   6.070   1.301   2.729  0.0794 -0.5534 -0.1377
 5914TIP3    H139233   5.988   1.263   2.761  0.3632 -0.0160  1.2918
 5914TIP3    H239234   6.043   1.356   2.654 -0.9864  0.1752  0.7422
 5915TIP3   OH239235   5.165   2.302  13.137 -0.0600 -0.0976 -0.1367
 5915TIP3    H139236   5.171   2.311  13.232 -0.0627 -1.9214  0.0891
 5915TIP3    H239237   5.223   2.369  13.102  0.9255 -0.2054  1.2092
 5916TIP3   OH239238   1.996   6.750  15.692 -0.0356 -0.1668 -0.1512
 5916TIP3    H139239   1.979   6.818  15.757 -2.1094 -0.1133 -0.6605
 5916TIP3    H239240   2.041   6.681  15.740  0.3941  0.7705  0.8277
 5917TIP3   OH239241   4.538   5.054  14.495  0.4519  0.0701  0.3275
 5917TIP3    H139242   4.590   4.995  14.550 -0.9036 -0.7671  0.7471
 5917TIP3    H239243   4.472   4.998  14.455 -0.7478  1.2658  0.5608
 5918TIP3   OH239244   2.542   6.301   0.863  0.0130  0.7339  0.1009
 5918TIP3    H139245   2.578   6.212   0.869  0.4493  0.8049 -1.2426
 5918TIP3    H239246   2.608   6.356   0.905 -0.2720  0.4353  0.9640
 5919TIP3   OH239247   1.310   2.417  13.077 -0.6364 -0.7003  0.0187
 5919TIP3    H139248   1.344   2.453  13.160  2.2787 -2.1595 -0.4045
 5919TIP3    H239249   1.323   2.488  13.014  1.8109 -1.1424 -0.0982
 5920TIP3   OH239250   6.291   0.854  11.434  0.0820  0.1750  0.0856
 5920TIP3    H139251   6.321   0.804  11.357  1.3404  0.2405  0.5044
 5920TIP3    H239252   6.198   0.833  11.441  0.0234 -0.1087 -1.2491
 5921TIP3   OH239253   2.782   4.496   3.827 -0.3430 -0.3514  0.3280
 5921TIP3    H139254   2.822   4.455   3.750  0.5804  2.6661 -0.9490
 5921TIP3    H239255   2.706   4.543   3.792 -0.0989  0.8026  1.2973
 5922TIP3   OH239256   0.808   4.015  15.659 -0.5604  0.2262 -0.0072
 5922TIP3    H139257   0.790   4.103  15.625  2.0618 -0.3071 -3.4000
 5922TIP3    H239258   0.757   3.957  15.603  1.0084 -0.5179 -0.7569
 5923TIP3   OH239259   2.591   0.455  16.672 -0.2787 -0.5100 -0.0297
 5923TIP3    H139260   2.616   0.392  16.605 -0.9778  0.4493 -1.2450
 5923TIP3    H239261   2.496   0.466  16.660  0.0733  2.1121 -1.1222
 5924TIP3   OH239262   1.110   0.900  12.697  0.2970  0.3856 -0.3944
 5924TIP3    H139263   1.151   0.929  12.615  1.9788 -0.5820  0.0600
 5924TIP3    H239264   1.096   0.806  12.684  0.3391  0.2778  0.3324
 5925TIP3   OH239265   5.631   5.070   3.103 -0.4562 -0.4366 -0.2126
 5925TIP3    H139266   5.556   5.118   3.136 -0.9716 -1.4453  0.1309
 5925TIP3    H239267   5.664   5.022   3.178  1.1897  0.7734 -0.1030
 5926TIP3   OH239268   0.553   2.112  11.954 -0.2065 -0.2844 -0.0296
 5926TIP3    H139269   0.633   2.083  11.909 -0.2944 -0.2262 -0.2269
 5926TIP3    H239270   0.504   2.032  11.971  0.1550 -0.3766  0.6032
 5927TIP3   OH239271   1.197   1.003   3.065  0.4697 -0.2688  0.3424
 5927TIP3    H139272   1.256   1.070   3.030  1.1233 -0.7563  0.4979
 5927TIP3    H239273   1.168   1.039   3.149  0.9103 -0.2271  0.4806
 5928TIP3   OH239274   2.715   6.051   3.408  1.0231  0.4452  0.1480
 5928TIP3    H139275   2.759   6.012   3.333 -0.2265 -0.2992 -0.2190
 5928TIP3    H239276   2.644   6.102   3.371  0.1944 -0.1881  0.8274
 5929TIP3   OH239277   4.640   4.316   0.023  0.6963  0.6483 -0.3185
 5929TIP3    H139278   4.694   4.271   0.087  1.1187  2.4528  0.6726
 5929TIP3    H239279   4.552   4.316   0.062  1.0599  2.2316  0.6032
 5930TIP3   OH239280   3.128   4.491  11.500 -0.3362 -0.1548  0.5376
 5930TIP3    H139281   3.203   4.434  11.491 -0.6821 -0.4076 -1.0099
 5930TIP3    H239282   3.070   4.467  11.428 -2.5384 -0.8778  2.4124
 5931TIP3   OH239283   1.816   1.650  11.157 -0.5772 -0.0437  0.8453
 5931TIP3    H139284   1.760   1.649  11.080 -1.5592 -1.0316  1.5380
 5931TIP3    H239285   1.894   1.602  11.130  0.3229  1.9652 -0.3552
 5932TIP3   OH239286   3.494   4.614  16.853  0.3822 -0.1220  0.3366
 5932TIP3    H139287   3.496   4.540  16.914 -0.5387  0.1828  0.7580
 5932TIP3    H239288   3.439   4.585  16.781 -0.3916  0.3193  0.7396
 5933TIP3   OH239289   4.182   5.997   3.226 -1.1624  0.3305  0.2824
 5933TIP3    H139290   4.207   6.014   3.135 -0.7035  1.1599  0.5528
 5933TIP3    H239291   4.187   6.083   3.268 -0.4722 -0.1971  1.3039
 5934TIP3   OH239292   4.610   5.176  11.901 -0.1719  0.4757  0.2313
 5934TIP3    H139293   4.630   5.262  11.936  2.6640 -0.2841  0.6993
 5934TIP3    H239294   4.627   5.116  11.974  0.3698 -0.6819 -0.8046
 5935TIP3   OH239295   6.527   5.876   5.869 -0.1690 -0.1160 -0.2278
 5935TIP3    H139296   6.449   5.836   5.906 -1.0750  0.6320 -1.2469
 5935TIP3    H239297   6.539   5.956   5.920 -0.0327 -0.2559 -0.0389
 5936TIP3   OH239298   0.005   4.585  14.632  0.2970  0.0505 -0.0120
 5936TIP3    H139299  -0.004   4.499  14.675  0.3612 -0.3259 -0.7275
 5936TIP3    H239300   0.076   4.627  14.678 -0.9754  0.5088  1.6071
 5937TIP3   OH239301   1.170   0.790  16.575 -0.1123 -0.3512  0.7789
 5937TIP3    H139302   1.252   0.839  16.576 -0.1692 -0.2251  2.7721
 5937TIP3    H239303   1.163   0.756  16.485  0.8748  1.6635 -0.1123
 5938TIP3   OH239304   0.649   4.923   0.014  0.0619  0.1480 -0.1190
 5938TIP3    H139305   0.629   5.017   0.007  0.4839  0.2326 -0.2393
 5938TIP3    H239306   0.567   4.883   0.043  0.2070  0.7102  1.1026
 5939TIP3   OH239307   4.299   4.050  13.642  0.3367  0.3203  0.2674
 5939TIP3    H139308   4.301   4.123  13.704 -1.7459  0.4146  0.2801
 5939TIP3    H239309   4.302   3.972  13.697 -4.7415  0.2967  0.9667
 5940TIP3   OH239310   4.105   3.654   0.504  0.9782  0.0308 -0.1253
 5940TIP3    H139311   4.054   3.669   0.584  2.5114  0.5168  0.8057
 5940TIP3    H239312   4.124   3.741   0.471  2.6458 -0.0559  0.5174
 5941TIP3   OH239313   5.234   5.465  14.751  0.3529 -0.1800 -0.2982
 5941TIP3    H139314   5.195   5.446  14.666  0.3342  1.7633 -0.7818
 5941TIP3    H239315   5.211   5.390  14.805  1.0890 -1.8718 -2.2035
 5942TIP3   OH239316   4.511   6.005   1.639  0.6510 -0.1131  1.1236
 5942TIP3    H139317   4.549   5.996   1.727 -0.4479 -0.2761  1.5925
 5942TIP3    H239318   4.559   5.940   1.587  0.6856 -0.6651  1.8171
 5943TIP3   OH239319   3.212   5.219  15.884  0.0692  0.2589  0.2124
 5943TIP3    H139320   3.120   5.199  15.867  0.2719 -0.0903 -0.4748
 5943TIP3    H239321   3.261   5.160  15.827  0.7447 -0.2172  1.2539
 5944TIP3   OH239322   4.292   2.682  13.673 -0.3523  0.2167  0.0275
 5944TIP3    H139323   4.292   2.592  13.641 -3.9128  0.2661 -0.4515
 5944TIP3    H239324   4.323   2.675  13.764 -2.7357 -1.9422  0.7961
 5945TIP3   OH239325   0.757   3.630  12.293 -0.6596 -0.1069  0.5597
 5945TIP3    H139326   0.685   3.585  12.248 -2.2469  2.0152  0.8062
 5945TIP3    H239327   0.827   3.566  12.296 -2.3055 -2.0612 -0.3042
 5946TIP3   OH239328   5.916   4.915  11.915  0.0754 -0.5152 -0.4538
 5946TIP3    H139329   5.999   4.918  11.963 -0.0495 -0.4566 -0.2359
 5946TIP3    H239330   5.897   5.007  11.896 -1.6092 -0.1168  2.4462
 5947TIP3   OH239331   1.208   2.531   5.785  0.5199  0.3098  0.0961
 5947TIP3    H139332   1.235   2.495   5.701  0.9025  1.2142 -0.1823
 5947TIP3    H239333   1.289   2.564   5.824  0.3852 -0.3226  0.9372
 5948TIP3   OH239334   6.502   0.421  15.873 -0.1183  0.5572  0.2947
 5948TIP3    H139335   6.446   0.464  15.938 -0.8712 -1.8699  1.4134
 5948TIP3    H239336   6.535   0.491  15.818  0.3964  2.7570  3.1858
 5949TIP3   OH239337   6.742   1.164  16.098 -0.7896  0.6237  0.4597
 5949TIP3    H139338   6.757   1.221  16.023  0.5882  0.8907  0.9179
 5949TIP3    H239339   6.660   1.196  16.136 -0.8010  1.3483 -0.1487
 5950TIP3   OH239340   0.207   4.169  14.086  0.2528 -0.0249 -0.5706
 5950TIP3    H139341   0.240   4.081  14.105 -0.5415 -0.5218 -1.4211
 5950TIP3    H239342   0.119   4.155  14.053 -0.3033  1.1873  0.3181
 5951TIP3   OH239343   3.304   1.633   2.113 -0.1518  0.0733  0.1156
 5951TIP3    H139344   3.340   1.555   2.157  2.7437 -0.0929 -2.2409
 5951TIP3    H239345   3.224   1.602   2.073 -0.0582 -1.1757  0.8234
 5952TIP3   OH239346   2.360   0.509   2.766 -0.5350  0.8706 -0.6177
 5952TIP3    H139347   2.295   0.460   2.715  0.7456 -2.2605  0.5170
 5952TIP3    H239348   2.425   0.538   2.702 -1.3636  1.1899 -1.3276
 5953TIP3   OH239349   5.446   1.126   4.873  0.4336  0.3944 -0.1920
 5953TIP3    H139350   5.516   1.085   4.924 -2.1569 -1.2905  2.2842
 5953TIP3    H239351   5.455   1.089   4.785  3.4248  1.3427 -0.4071
 5954TIP3   OH239352   2.773   4.363  13.722  0.5361  0.0566 -0.1141
 5954TIP3    H139353   2.747   4.440  13.672  1.6851 -0.3219 -1.3385
 5954TIP3    H239354   2.839   4.396  13.783  1.3824 -0.0168 -0.9665
 5955TIP3   OH239355   0.973   4.781  15.730 -0.1152 -0.4495 -0.8593
 5955TIP3    H139356   0.980   4.791  15.825  0.1444  1.1954 -1.0273
 5955TIP3    H239357   1.056   4.815  15.697  0.3205 -2.1642 -1.6295
 5956TIP3   OH239358   0.167   4.542   0.934 -0.1305 -0.0139 -0.1980
 5956TIP3    H139359   0.246   4.560   0.985 -1.3868  1.4695  1.3412
 5956TIP3    H239360   0.118   4.478   0.986 -2.0722  2.5157  1.3418
 5957TIP3   OH239361   5.572   0.393   2.376 -0.0033 -0.3901  0.1845
 5957TIP3    H139362   5.491   0.442   2.360  0.4485  0.2291 -0.2870
 5957TIP3    H239363   5.579   0.333   2.302 -0.3090 -0.8383  0.5129
 5958TIP3   OH239364   5.583   5.851   3.502 -0.1994  0.6748  0.5893
 5958TIP3    H139365   5.661   5.890   3.541  1.3643  1.7230 -3.1441
 5958TIP3    H239366   5.614   5.766   3.470 -0.6747  0.9329 -0.5725
 5959TIP3   OH239367   4.377   1.592  14.284  1.1590 -0.4546 -0.1975
 5959TIP3    H139368   4.430   1.671  14.293  0.5101  0.2158 -1.9500
 5959TIP3    H239369   4.424   1.526  14.336  1.1562  1.2992  2.1754
 5960TIP3   OH239370   1.546   6.046  16.421 -0.6177  0.1178  0.3109
 5960TIP3    H139371   1.539   5.966  16.369  0.0175 -0.0032  0.4114
 5960TIP3    H239372   1.475   6.101  16.389 -0.6921 -0.2514 -0.1682
 5961TIP3   OH239373   5.285   6.264   4.830  0.2139  0.3451 -0.0688
 5961TIP3    H139374   5.268   6.238   4.739 -0.9049 -0.3282  0.3026
 5961TIP3    H239375   5.287   6.181   4.878  0.3166  0.7274  0.5929
 5962TIP3   OH239376   5.313   5.044  16.811 -0.8031 -0.0204 -0.1139
 5962TIP3    H139377   5.344   5.075  16.726 -0.1223  0.0900  0.1677
 5962TIP3    H239378   5.225   5.011  16.794 -0.0431 -1.6056 -1.2292
 5963TIP3   OH239379   2.318   2.493  12.836  0.2812 -0.1144 -0.4533
 5963TIP3    H139380   2.374   2.452  12.903  0.6835 -0.1011 -0.7743
 5963TIP3    H239381   2.239   2.439  12.834  0.3391 -0.2159 -0.0909
 5964TIP3   OH239382   5.747   6.308   2.323 -0.7539  0.3430 -0.0169
 5964TIP3    H139383   5.748   6.377   2.256  1.2700  1.6510  1.2339
 5964TIP3    H239384   5.682   6.337   2.386 -0.8372  0.4546 -0.1533
 5965TIP3   OH239385   4.851   5.382   5.692 -0.3111  0.4585  0.0939
 5965TIP3    H139386   4.848   5.306   5.634 -0.0855  1.4896 -1.3210
 5965TIP3    H239387   4.760   5.409   5.700 -0.3657  0.1938  0.4133
 5966TIP3   OH239388   3.718   0.324   2.668 -0.2701  0.5714 -0.1511
 5966TIP3    H139389   3.763   0.258   2.720 -0.7278 -0.2258 -0.7495
 5966TIP3    H239390   3.787   0.387   2.645  0.3893 -0.2196 -0.4010
 5967TIP3   OH239391   5.672   4.748   2.636  0.1054 -0.1391  0.1427
 5967TIP3    H139392   5.720   4.675   2.596  2.3381  0.9673  0.6334
 5967TIP3    H239393   5.696   4.824   2.583 -0.6364  0.5693  0.7934
 5968TIP3   OH239394   1.151   1.691   5.494 -0.0164 -0.4375 -0.8727
 5968TIP3    H139395   1.086   1.748   5.451 -1.8471 -0.7469  1.3040
 5968TIP3    H239396   1.103   1.611   5.514  0.6029 -0.2431  1.8426
 5969TIP3   OH239397   6.571   3.385  16.405  0.1676 -0.4856  0.1005
 5969TIP3    H139398   6.627   3.440  16.460 -0.9268 -2.0651  3.0552
 5969TIP3    H239399   6.632   3.324  16.363  1.0504  0.7929 -0.5441
 5970TIP3   OH239400   4.959   4.232   0.519  0.1476 -0.2744 -0.5374
 5970TIP3    H139401   4.944   4.290   0.593 -0.0100 -0.0783 -0.7222
 5970TIP3    H239402   4.873   4.223   0.478  0.5337  0.9512 -1.6790
 5971TIP3   OH239403   1.236   1.414   5.549 -0.3867  0.1532  0.5573
 5971TIP3    H139404   1.312   1.420   5.606 -0.4677  0.9898  0.5923
 5971TIP3    H239405   1.191   1.335   5.576  1.6504 -1.6516 -0.9356
 5972TIP3   OH239406   2.311   0.898  17.119 -0.5537 -0.3485  0.1722
 5972TIP3    H139407   2.313   0.802  17.115  1.5524 -0.3138 -2.9816
 5972TIP3    H239408   2.400   0.925  17.097 -0.9188  2.3878  1.6412
 5973TIP3   OH239409   3.749   1.833   6.082  0.3677  0.1095 -0.2065
 5973TIP3    H139410   3.831   1.804   6.122 -1.1361 -0.4681  2.8086
 5973TIP3    H239411   3.761   1.926   6.066  2.2450 -0.3479 -1.6971
 5974TIP3   OH239412   2.108   0.923   5.016 -0.1447 -0.4418  0.3941
 5974TIP3    H139413   2.077   0.971   5.093  2.4662  2.2082 -0.0301
 5974TIP3    H239414   2.058   0.959   4.943 -0.0021 -0.2251  0.4016
 5975TIP3   OH239415   6.513   0.921  16.071  0.1846  0.0671  0.4934
 5975TIP3    H139416   6.526   0.833  16.035 -2.0174 -0.6772  1.3427
 5975TIP3    H239417   6.596   0.940  16.117  1.3210 -0.8314 -1.0818
 5976TIP3   OH239418   1.578   5.804   6.555 -0.0548 -0.2587 -0.1279
 5976TIP3    H139419   1.565   5.894   6.584  1.4827  0.3441 -1.1910
 5976TIP3    H239420   1.490   5.772   6.535 -0.7086  0.6720  1.1663
 5977TIP3   OH239421   6.660   6.236  12.259  0.3318  0.0728 -0.0896
 5977TIP3    H139422   6.618   6.303  12.205 -0.9276 -0.8407 -0.2808
 5977TIP3    H239423   6.752   6.260  12.259  0.0898  1.0945 -1.1934
 5978TIP3   OH239424   0.316   6.791  12.446 -0.3565 -0.1625 -0.2272
 5978TIP3    H139425   0.393   6.793  12.391  0.3576  0.7896  0.7525
 5978TIP3    H239426   0.323   6.710  12.496 -0.8117 -0.8382 -1.2398
 5979TIP3   OH239427   3.092   1.777   5.982 -0.6869  0.0840 -0.5600
 5979TIP3    H139428   3.136   1.693   5.969 -1.7205 -0.7369  1.0023
 5979TIP3    H239429   3.100   1.821   5.897  0.8203 -1.1084 -1.0923
 5980TIP3   OH239430   3.135   6.818  11.220 -0.7496  0.7544 -0.6144
 5980TIP3    H139431   3.196   6.843  11.150  0.5540  0.4654  0.3805
 5980TIP3    H239432   3.190   6.774  11.285 -2.1234  0.0044  0.0789
 5981TIP3   OH239433   4.137   5.624   3.821 -0.9636  0.4220  0.3932
 5981TIP3    H139434   4.201   5.556   3.843 -1.5496  0.1804  1.4246
 5981TIP3    H239435   4.138   5.627   3.725 -1.3245 -1.4640  0.2774
 5982TIP3   OH239436   4.298   0.908   0.032  0.0080 -0.2646  0.0036
 5982TIP3    H139437   4.383   0.913  -0.012  0.3955 -0.9032  0.6601
 5982TIP3    H239438   4.252   0.987   0.004  1.0062  0.3447  0.0362
 5983TIP3   OH239439   3.951   5.551   0.957  0.7379  0.6785 -0.4472
 5983TIP3    H139440   3.900   5.624   0.923  0.1700 -0.2983 -1.7723
 5983TIP3    H239441   3.907   5.526   1.039 -1.4034 -0.5669 -1.8699
 5984TIP3   OH239442   4.928   5.359  12.063  0.3631  0.1960  0.1481
 5984TIP3    H139443   4.838   5.357  12.030 -0.1013  0.2229  1.3656
 5984TIP3    H239444   4.948   5.453  12.069  0.2876  0.1989  0.3579
 5985TIP3   OH239445   0.354   0.724  15.738 -0.2939 -0.1302 -0.4626
 5985TIP3    H139446   0.346   0.670  15.659  0.8822 -0.2014 -0.5483
 5985TIP3    H239447   0.271   0.711  15.784  0.2032 -2.5788 -0.1137
 5986TIP3   OH239448   2.062   6.756   3.652  0.0253 -0.2546  0.4380
 5986TIP3    H139449   1.982   6.703   3.650 -0.3877  0.3701 -0.1198
 5986TIP3    H239450   2.080   6.768   3.745 -0.3192 -0.7144  0.5682
 5987TIP3   OH239451   5.887   2.508   1.891 -0.0223 -0.1248  0.9649
 5987TIP3    H139452   5.802   2.490   1.931  0.1108 -0.0185  1.2966
 5987TIP3    H239453   5.925   2.578   1.944 -0.4347  0.9962 -0.1636
 5988TIP3   OH239454   3.827   2.812   6.175  0.1634  0.8800  0.1553
 5988TIP3    H139455   3.871   2.867   6.241  0.9364  2.0334 -1.2468
 5988TIP3    H239456   3.886   2.814   6.100 -0.2936 -1.0794 -0.3197
 5989TIP3   OH239457   2.981   2.553   4.921  1.0140  0.4093 -0.3282
 5989TIP3    H139458   2.974   2.459   4.905  1.2193  0.3416 -0.0354
 5989TIP3    H239459   2.910   2.573   4.981 -0.2801  0.8197 -1.9359
 5990TIP3   OH239460   5.295   0.156  15.864  0.3145 -0.2918 -0.0367
 5990TIP3    H139461   5.380   0.200  15.871  0.8147 -1.2031 -0.0520
 5990TIP3    H239462   5.289   0.130  15.772  0.4079 -0.9439  0.1315
 5991TIP3   OH239463   0.476   0.515   3.469  0.0459 -0.2269 -0.3692
 5991TIP3    H139464   0.384   0.526   3.442 -1.0233 -2.0879  2.1148
 5991TIP3    H239465   0.526   0.562   3.402 -2.8090  3.3197 -0.3672
 5992TIP3   OH239466   4.266   5.557   5.830 -0.2127  0.1109  0.1239
 5992TIP3    H139467   4.315   5.618   5.885  1.7733  1.2194 -2.6326
 5992TIP3    H239468   4.284   5.470   5.867 -1.6290  0.9399  3.0373
 5993TIP3   OH239469   1.922   4.795   4.218  0.0019  0.0321  0.5721
 5993TIP3    H139470   1.860   4.865   4.237  0.7724  0.3347  2.1280
 5993TIP3    H239471   1.906   4.730   4.287 -1.6738 -2.0623 -1.6271
 5994TIP3   OH239472   5.735   0.024  15.152  0.2967  0.0246 -0.1581
 5994TIP3    H139473   5.747   0.118  15.138 -1.5109  0.6001  1.6212
 5994TIP3    H239474   5.816  -0.005  15.194  0.5883  0.9637 -0.0499
 5995TIP3   OH239475   5.771   3.924  14.765 -0.2853  0.1629 -0.6749
 5995TIP3    H139476   5.747   3.836  14.735 -1.0910 -0.6998  2.1985
 5995TIP3    H239477   5.706   3.945  14.832  0.8892  2.2688 -0.0964
 5996TIP3   OH239478   0.772   0.311   2.104 -0.0881  0.2099 -0.4078
 5996TIP3    H139479   0.845   0.252   2.087  0.5398  0.4885  1.1864
 5996TIP3    H239480   0.772   0.324   2.198 -2.6163 -0.2935 -0.2432
 5997TIP3   OH239481   4.835   0.994   1.702  0.1422 -0.1939  0.2042
 5997TIP3    H139482   4.911   0.995   1.644 -0.4330 -1.2673 -0.5973
 5997TIP3    H239483   4.867   0.951   1.782  0.4027 -0.5550 -0.0927
 5998TIP3   OH239484   1.307   0.712   1.424  0.1445  0.6829 -0.0332
 5998TIP3    H139485   1.258   0.631   1.412  1.1361  0.1349 -0.4821
 5998TIP3    H239486   1.317   0.721   1.518 -1.1079  0.9879  0.0820
 5999TIP3   OH239487   4.667   2.416   6.497  1.0647  0.4546 -0.5836
 5999TIP3    H139488   4.609   2.482   6.535 -1.0026 -1.4333 -0.2702
 5999TIP3    H239489   4.749   2.427   6.544  0.3615  1.8955  0.4043
 6000TIP3   OH239490   5.699   5.382   3.324  0.2548  0.1687 -0.3369
 6000TIP3    H139491   5.768   5.346   3.267 -0.1810 -1.0139 -0.1504
 6000TIP3    H239492   5.710   5.477   3.318  0.3966  0.0829 -2.1921
 6001TIP3   OH239493   0.419   1.618  11.672 -0.0362  0.1176  0.0117
 6001TIP3    H139494   0.354   1.548  11.685  1.7285 -1.1342  3.1490
 6001TIP3    H239495   0.368   1.691  11.637 -3.0488 -1.0309  1.5930
 6002TIP3   OH239496   5.294   3.385   0.332 -0.3610  0.1484 -0.0188
 6002TIP3    H139497   5.328   3.333   0.259  0.2521 -0.1828  0.4953
 6002TIP3    H239498   5.212   3.421   0.299 -0.0626  0.0534 -0.8939
 6003TIP3   OH239499   3.051   3.836  16.965  0.0499  0.6647  1.3294
 6003TIP3    H139500   3.146   3.837  16.973  0.4052  0.6355 -1.7393
 6003TIP3    H239501   3.030   3.914  16.914 -1.4602  0.1323  1.0806
 6004TIP3   OH239502   1.125   3.594  11.243 -0.4574 -0.0597  0.4749
 6004TIP3    H139503   1.056   3.529  11.233  0.6683 -1.3683  0.9184
 6004TIP3    H239504   1.179   3.561  11.315  1.5072  0.1129 -0.8552
 6005TIP3   OH239505   1.171   3.560   2.014  0.3785 -0.4677  0.3367
 6005TIP3    H139506   1.076   3.552   2.028  0.4577 -2.8279 -0.1369
 6005TIP3    H239507   1.194   3.643   2.056 -2.0036  0.5510 -0.1687
 6006TIP3   OH239508   6.216   1.270  13.544 -0.3177  0.3203 -0.0917
 6006TIP3    H139509   6.154   1.328  13.589 -1.7116 -1.3451  0.2536
 6006TIP3    H239510   6.167   1.238  13.468 -0.6245 -2.4638  1.1856
 6007TIP3   OH239511   6.848   4.322   6.192 -0.4063  0.5102  0.6220
 6007TIP3    H139512   6.931   4.335   6.239 -0.8946  2.3411  1.0633
 6007TIP3    H239513   6.795   4.398   6.216 -1.5317  0.3301 -1.1081
 6008TIP3   OH239514   1.579   6.754  12.250  0.0499 -0.1413 -0.1031
 6008TIP3    H139515   1.511   6.819  12.271  0.2005  0.4269 -1.2811
 6008TIP3    H239516   1.600   6.713  12.334 -0.6528  0.7541  0.5299
 6009TIP3   OH239517   6.092   6.071  12.687  0.0802  0.0550 -0.1468
 6009TIP3    H139518   6.011   6.029  12.657  0.8349 -1.3596 -0.2953
 6009TIP3    H239519   6.162   6.014  12.655  1.1389  1.1411  0.1515
 6010TIP3   OH239520   4.991   3.234   0.587  0.2589 -0.4518  0.3111
 6010TIP3    H139521   4.958   3.322   0.573  0.8373 -0.0376  1.4164
 6010TIP3    H239522   4.955   3.182   0.515 -0.7512  0.5021  0.1168
 6011TIP3   OH239523   4.498   5.313   5.139  0.0207  0.1076  0.1109
 6011TIP3    H139524   4.578   5.365   5.147 -0.7307  1.1421  1.2988
 6011TIP3    H239525   4.430   5.377   5.118 -0.6051 -0.6821 -0.3212
 6012TIP3   OH239526   5.579   3.745  15.143 -0.3849  0.6319  0.5478
 6012TIP3    H139527   5.636   3.677  15.109 -1.3720 -0.5617  1.2006
 6012TIP3    H239528   5.574   3.810  15.072  0.5601  0.0301 -0.0867
 6013TIP3   OH239529   4.407   6.373   1.552  0.3064  0.1553 -0.7422
 6013TIP3    H139530   4.332   6.317   1.570  0.6645 -0.7828 -2.0204
 6013TIP3    H239531   4.371   6.442   1.496  0.2565  0.1229 -0.7500
 6014TIP3   OH239532   3.695   1.440   5.945  0.4895 -0.3633  0.4233
 6014TIP3    H139533   3.762   1.467   6.008 -1.0060 -0.0436  1.9346
 6014TIP3    H239534   3.650   1.522   5.922  0.1055 -0.6793  0.0372
 6015TIP3   OH239535   2.730   5.903   1.283  0.5575  0.0004  0.3497
 6015TIP3    H139536   2.759   5.899   1.374 -0.5728 -0.8234  0.6915
 6015TIP3    H239537   2.772   5.827   1.241  1.0879  0.3863  0.1703
 6016TIP3   OH239538   2.183   5.831  16.516 -0.3478 -0.2375 -0.3530
 6016TIP3    H139539   2.191   5.744  16.555 -0.4133  0.1390  0.5434
 6016TIP3    H239540   2.193   5.891  16.591 -1.1797  0.5011 -0.8211
 6017TIP3   OH239541   4.089   0.898  11.578 -0.0922  0.4814 -0.3824
 6017TIP3    H139542   3.997   0.923  11.574 -0.6949 -1.6708 -1.9451
 6017TIP3    H239543   4.135   0.965  11.529 -0.8751  1.3293  0.0224
 6018TIP3   OH239544   0.246   2.422   1.359  0.4835  0.2901 -0.0997
 6018TIP3    H139545   0.267   2.503   1.406  0.1123 -0.4563  1.4280
 6018TIP3    H239546   0.284   2.353   1.412 -0.6451 -0.6528 -0.4667
 6019TIP3   OH239547   1.252   6.636  12.990 -0.0129 -0.1103  0.2996
 6019TIP3    H139548   1.157   6.621  12.995 -0.2651  1.5089  0.9455
 6019TIP3    H239549   1.261   6.720  12.947  0.8818  1.7970  3.7920
 6020TIP3   OH239550   2.079   5.674  11.275 -0.0856  0.2937 -0.2880
 6020TIP3    H139551   2.048   5.757  11.239 -0.6115  1.1000  1.8665
 6020TIP3    H239552   2.148   5.699  11.336  0.5688 -0.9803 -0.4797
 6021TIP3   OH239553   2.071   4.917  16.984  0.3904 -1.1440 -0.0736
 6021TIP3    H139554   2.150   4.970  16.974 -0.0153 -0.6279 -0.6280
 6021TIP3    H239555   2.044   4.931  17.074  0.3317 -0.4613 -0.1942
 6022TIP3   OH239556   0.335   2.040  13.248  0.4831 -0.6433  0.4363
 6022TIP3    H139557   0.406   1.977  13.260  2.9199  1.9266  0.6555
 6022TIP3    H239558   0.258   1.987  13.227  2.9272 -3.5087 -2.1355
 6023TIP3   OH239559   2.661   1.370  11.543 -0.1066  0.3028  0.4755
 6023TIP3    H139560   2.732   1.419  11.503  0.3913  0.5720  1.6272
 6023TIP3    H239561   2.700   1.332  11.622 -0.6640 -1.3778 -0.0029
 6024TIP3   OH239562   6.489   0.367   0.395 -0.4296  0.0239 -0.4847
 6024TIP3    H139563   6.501   0.309   0.470 -0.1701  0.1643 -0.4168
 6024TIP3    H239564   6.395   0.364   0.377 -0.4523 -0.2245 -0.3274
 6025TIP3   OH239565   3.320   1.113   3.462 -0.1900  0.0397 -0.4013
 6025TIP3    H139566   3.232   1.151   3.459  0.2953  1.1423 -1.8842
 6025TIP3    H239567   3.305   1.019   3.470 -1.5971 -0.0381 -2.8743
 6026TIP3   OH239568   1.316   0.416  13.082  0.0508 -0.2552  0.1198
 6026TIP3    H139569   1.233   0.430  13.128  1.1670  0.9524  1.9171
 6026TIP3    H239570   1.297   0.435  12.991 -1.4999  0.6420  0.6008
 6027TIP3   OH239571   0.058   0.546   3.353  0.3082 -0.5554 -0.0584
 6027TIP3    H139572  -0.016   0.577   3.301  0.8504  1.1667  0.1138
 6027TIP3    H239573   0.029   0.553   3.444  1.0011  1.2117  0.0738
 6028TIP3   OH239574   4.589   0.840   1.292 -0.6109  0.1171 -0.6217
 6028TIP3    H139575   4.614   0.840   1.384 -2.0579  0.7340 -0.2153
 6028TIP3    H239576   4.660   0.792   1.248  0.2703  0.1290  0.7458
 6029TIP3   OH239577   2.727   2.083  13.480 -0.1450 -0.5855  0.0049
 6029TIP3    H139578   2.719   2.125  13.394 -1.1098 -0.4638  0.1419
 6029TIP3    H239579   2.803   2.026  13.471  1.9451  1.9814  0.1676
 6030TIP3   OH239580   3.594   0.042   5.958 -0.6357 -0.0679 -0.3609
 6030TIP3    H139581   3.655   0.112   5.981 -1.1275  0.3161 -0.2156
 6030TIP3    H239582   3.516   0.059   6.011 -1.4282  0.2840 -1.5920
 6031TIP3   OH239583   1.165   4.851   6.595  0.3231 -0.2485 -0.2351
 6031TIP3    H139584   1.144   4.938   6.629 -0.8938 -1.3074  1.8780
 6031TIP3    H239585   1.080   4.813   6.573  0.8104 -1.0479 -0.8065
 6032TIP3   OH239586   5.556   4.487  10.413  0.5222  0.2196  0.6466
 6032TIP3    H139587   5.496   4.466  10.484  0.8910  1.2778  1.2826
 6032TIP3    H239588   5.524   4.435  10.339 -3.7540  3.6849 -0.3211
 6033TIP3   OH239589   6.788   6.115   2.764  0.2539 -0.7568  0.1203
 6033TIP3    H139590   6.722   6.070   2.712  1.2196 -1.6936 -0.3277
 6033TIP3    H239591   6.755   6.110   2.854  0.2350 -2.2025  0.0540
 6034TIP3   OH239592   3.358   4.584  16.566 -0.1521  0.0596  0.6479
 6034TIP3    H139593   3.358   4.558  16.473  0.0304  2.9809 -0.2748
 6034TIP3    H239594   3.287   4.533  16.605 -1.1250 -0.3042 -1.4412
 6035TIP3   OH239595   3.704   5.761   0.079 -0.2362  0.2675 -0.2653
 6035TIP3    H139596   3.638   5.718   0.025  0.6376  1.1120 -2.1116
 6035TIP3    H239597   3.673   5.851   0.089  1.4681  1.3062 -2.9390
 6036TIP3   OH239598   3.699   2.090  16.341  0.0886  0.3716  0.2392
 6036TIP3    H139599   3.651   2.026  16.393 -0.3922 -0.5154 -1.2352
 6036TIP3    H239600   3.791   2.065  16.351 -0.1579 -1.3850 -1.2926
 6037TIP3   OH239601   0.876   0.302  12.629  0.2871  0.5168  0.3446
 6037TIP3    H139602   0.781   0.298  12.619  0.3314  0.6397 -0.1317
 6037TIP3    H239603   0.899   0.215  12.662 -0.2798  1.3221  3.0982
 6038TIP3   OH239604   4.584   0.378   2.740 -0.3725 -0.4627  0.6285
 6038TIP3    H139605   4.670   0.382   2.781 -0.2733 -1.1911  0.5018
 6038TIP3    H239606   4.522   0.377   2.813 -0.2964  0.3141  0.7170
 6039TIP3   OH239607   1.383   0.099   1.729  0.2771  0.5396 -0.1963
 6039TIP3    H139608   1.403   0.016   1.687  1.7274  1.7318 -2.0087
 6039TIP3    H239609   1.301   0.084   1.776  0.8577 -2.0729  0.1051
 6040TIP3   OH239610   1.185   4.536   2.784 -0.1118  0.1883 -0.4543
 6040TIP3    H139611   1.276   4.564   2.774 -0.0401  0.2319  0.2676
 6040TIP3    H239612   1.162   4.559   2.874 -0.2122 -1.6001  0.0189
 6041TIP3   OH239613   5.606   0.458  15.610 -0.2919  0.4799  0.0607
 6041TIP3    H139614   5.549   0.456  15.687 -0.3048  2.9228  0.2065
 6041TIP3    H239615   5.655   0.540  15.620  1.2773 -0.2335 -1.4519
 6042TIP3   OH239616   3.896   4.385   4.365 -0.0775 -0.0776  0.5005
 6042TIP3    H139617   3.903   4.294   4.394 -0.7096  0.4477  2.4270
 6042TIP3    H239618   3.827   4.423   4.419  0.0577  1.5146 -0.3715
 6043TIP3   OH239619   0.900   4.790  14.631 -0.1664  0.2237  0.1622
 6043TIP3    H139620   0.817   4.835  14.618  0.0049  0.5166  0.0802
 6043TIP3    H239621   0.918   4.800  14.724 -0.4418 -0.2261  0.2701
 6044TIP3   OH239622   1.882   1.771   6.500 -0.6291  0.1341 -0.5808
 6044TIP3    H139623   1.870   1.676   6.509 -0.1173  0.2286  1.5614
 6044TIP3    H239624   1.967   1.780   6.456 -0.1877 -0.4167  0.1284
 6045TIP3   OH239625   5.624   0.055  16.414  0.2190 -0.1598 -0.6680
 6045TIP3    H139626   5.650   0.018  16.498 -0.8285 -0.2400 -0.3658
 6045TIP3    H239627   5.603  -0.021  16.359  1.1126 -0.1185 -1.0897
 6046TIP3   OH239628   1.197   5.115   3.516  0.4472 -0.4600 -0.4901
 6046TIP3    H139629   1.235   5.115   3.428  0.8505 -0.6738 -0.3199
 6046TIP3    H239630   1.261   5.067   3.570  0.2020 -0.3373 -0.0826
 6047TIP3   OH239631   5.323   1.513  16.626  0.2932  0.0877  0.2124
 6047TIP3    H139632   5.236   1.510  16.586  0.2139 -0.6449  0.4145
 6047TIP3    H239633   5.383   1.520  16.552  0.0426  1.2243  0.1040
 6048TIP3   OH239634   1.383   3.256  17.097  0.2423 -0.1932  0.0132
 6048TIP3    H139635   1.292   3.236  17.121  0.8126 -1.0054  1.6216
 6048TIP3    H239636   1.409   3.185  17.038  0.0296 -0.3030  0.0515
 6049TIP3   OH239637   4.708   1.569   5.810  0.0626 -0.0686  0.0891
 6049TIP3    H139638   4.671   1.653   5.782  0.8288  0.6144  1.0713
 6049TIP3    H239639   4.683   1.562   5.902  0.2310 -0.8057  0.0824
 6050TIP3   OH239640   0.103   5.820  12.727 -0.3832  0.0578  0.0209
 6050TIP3    H139641   0.055   5.816  12.644 -0.5917  0.7645  0.0962
 6050TIP3    H239642   0.058   5.889  12.777 -3.0093 -3.0871  2.4633
 6051TIP3   OH239643   2.101   1.925  13.094  0.5876  0.1994 -0.1780
 6051TIP3    H139644   2.037   1.982  13.053 -0.5022 -0.3381  0.7267
 6051TIP3    H239645   2.094   1.944  13.188  0.8454 -0.7534  0.0471
 6052TIP3   OH239646   5.944   5.415   3.667 -0.2535 -0.0210  0.9482
 6052TIP3    H139647   5.888   5.454   3.734  0.3199  1.1224  0.7807
 6052TIP3    H239648   6.012   5.368   3.715 -2.4268 -3.2312  1.2129
 6053TIP3   OH239649   2.023   6.042   6.226 -0.0775 -0.7604 -0.3825
 6053TIP3    H139650   2.064   6.116   6.270 -1.3145 -0.2017 -0.1151
 6053TIP3    H239651   2.018   6.068   6.134  3.0642 -2.1767 -1.0874
 6054TIP3   OH239652   6.804   3.891   1.404 -0.6434  0.2232  1.2330
 6054TIP3    H139653   6.855   3.960   1.360 -1.9323  0.0169 -0.6985
 6054TIP3    H239654   6.826   3.901   1.497  0.2028  2.3927  0.8618
 6055TIP3   OH239655   4.570   1.959  10.267  0.0326 -0.1180 -0.0688
 6055TIP3    H139656   4.496   1.977  10.325 -0.8309 -1.3671 -0.7587
 6055TIP3    H239657   4.617   2.043  10.261 -1.9014  0.9813 -0.4362
 6056TIP3   OH239658   1.301   6.594  11.166 -0.2794  0.1390  0.1760
 6056TIP3    H139659   1.228   6.532  11.164 -0.1652  0.0294 -1.2448
 6056TIP3    H239660   1.349   6.577  11.085  0.4677  1.2403  0.3730
 6057TIP3   OH239661   2.766   3.086  11.273  0.1893  0.2950  0.7339
 6057TIP3    H139662   2.857   3.056  11.270 -0.4626 -1.9330  1.3631
 6057TIP3    H239663   2.730   3.062  11.188 -0.3472 -0.8171  1.2532
 6058TIP3   OH239664   1.208   6.431  13.464  0.2122  0.2607  0.5370
 6058TIP3    H139665   1.151   6.471  13.399  0.4673  0.1747  0.2538
 6058TIP3    H239666   1.292   6.422  13.419  0.0553 -0.9620  0.4522
 6059TIP3   OH239667   4.753   2.161   6.305  0.0346  0.4299 -0.4862
 6059TIP3    H139668   4.805   2.090   6.268 -0.2660  0.5103 -1.0720
 6059TIP3    H239669   4.731   2.132   6.394 -0.4182 -0.3876 -0.8546
 6060TIP3   OH239670   2.292   4.958   0.980  0.7117  0.0623 -0.3493
 6060TIP3    H139671   2.350   5.031   1.001 -0.8191  1.9976 -2.3682
 6060TIP3    H239672   2.205   4.997   0.973 -0.4845 -2.2892  0.1697
 6061TIP3   OH239673   1.638   0.091   3.649 -0.1344  0.0456 -0.4735
 6061TIP3    H139674   1.575   0.047   3.707  0.7546 -0.8439 -0.1440
 6061TIP3    H239675   1.701   0.022   3.628  0.2402  0.6951 -1.5087
 6062TIP3   OH239676   0.965   1.402  10.906 -0.7559 -0.2443  0.1215
 6062TIP3    H139677   0.944   1.483  10.859 -0.8017 -1.1341 -1.4492
 6062TIP3    H239678   0.991   1.341  10.838 -0.6661 -1.5530  1.2938
 6063TIP3   OH239679   1.285   5.807  13.687 -0.0634  0.1976  0.6628
 6063TIP3    H139680   1.278   5.894  13.726 -1.2678  0.3996  0.0562
 6063TIP3    H239681   1.293   5.824  13.593  0.0870 -0.3443  0.5753
 6064TIP3   OH239682   0.398   3.508   2.327 -0.3785 -0.4743  0.5695
 6064TIP3    H139683   0.472   3.558   2.363 -2.1855  0.5309  3.1433
 6064TIP3    H239684   0.390   3.432   2.386 -0.4555 -1.4205 -0.6312
 6065TIP3   OH239685   4.653   1.915   3.824  0.2824 -0.1138 -0.1409
 6065TIP3    H139686   4.629   1.874   3.741  1.4080  0.6193 -0.8652
 6065TIP3    H239687   4.720   1.857   3.861  0.6219  0.1527 -0.3256
 6066TIP3   OH239688   2.279   0.129   3.596  0.2033 -0.0915  0.2162
 6066TIP3    H139689   2.216   0.074   3.549  1.1333 -1.0297  0.0223
 6066TIP3    H239690   2.228   0.171   3.665 -0.7487 -0.3744 -0.3048
 6067TIP3   OH239691   5.958   3.204  11.709  0.1220 -0.3649 -0.2223
 6067TIP3    H139692   5.972   3.272  11.644 -0.4147  1.3851  1.4203
 6067TIP3    H239693   6.043   3.195  11.752  0.1807 -0.7103 -0.4087
 6068TIP3   OH239694   0.338   0.846   1.426  0.0097 -0.4885 -0.6571
 6068TIP3    H139695   0.277   0.906   1.383 -0.2504 -0.2950 -0.0267
 6068TIP3    H239696   0.415   0.846   1.370 -0.1408  0.1250 -0.8738
 6069TIP3   OH239697   3.229   3.609  16.815 -0.3472  0.4011 -0.0329
 6069TIP3    H139698   3.287   3.567  16.878  0.8389  1.8136 -0.1263
 6069TIP3    H239699   3.147   3.622  16.863 -0.3160 -0.8025  0.3835
 6070TIP3   OH239700   6.280   1.714   4.449  0.1301 -0.6178  0.2398
 6070TIP3    H139701   6.352   1.776   4.441 -0.0974 -0.4013 -0.2471
 6070TIP3    H239702   6.279   1.668   4.365 -0.2842 -0.6262  0.2450
 6071TIP3   OH239703   6.502   5.390  16.958 -0.1585  0.0094  0.5532
 6071TIP3    H139704   6.447   5.468  16.960  0.1640  0.2420  0.4027
 6071TIP3    H239705   6.464   5.336  16.889  0.2497  0.5017 -0.0669
 6072TIP3   OH239706   2.591   6.319   0.197  0.3948  0.0593  0.0524
 6072TIP3    H139707   2.612   6.247   0.257  0.0918  1.6276  2.1897
 6072TIP3    H239708   2.497   6.312   0.184  0.1561  0.7356  1.2596
 6073TIP3   OH239709   5.224   1.288   2.699 -0.3974 -0.5935 -0.0929
 6073TIP3    H139710   5.269   1.338   2.632 -0.8437  0.3062  0.2573
 6073TIP3    H239711   5.252   1.198   2.685 -0.4756 -0.4222 -1.4766
 6074TIP3   OH239712   2.217   2.527   1.999  0.4736 -0.0026  0.2504
 6074TIP3    H139713   2.233   2.614   1.964 -1.1021 -0.5443 -2.1242
 6074TIP3    H239714   2.302   2.483   1.996  0.9021  0.8562 -0.3896
 6075TIP3   OH239715   2.914   4.192   4.160 -0.1728 -0.2567 -0.5018
 6075TIP3    H139716   2.859   4.251   4.109  1.3333  0.1810 -1.6999
 6075TIP3    H239717   2.857   4.118   4.181 -1.3712  0.4412 -1.1700
 6076TIP3   OH239718   3.700   0.797  14.633 -0.4699 -0.0171 -0.0528
 6076TIP3    H139719   3.696   0.836  14.545 -0.1136  1.8701  0.7246
 6076TIP3    H239720   3.617   0.822  14.674  0.1428  0.6946  0.7733
 6077TIP3   OH239721   3.820   0.553  13.749 -0.6789 -0.0328  0.1980
 6077TIP3    H139722   3.801   0.508  13.667  0.1090 -0.1170  0.0574
 6077TIP3    H239723   3.894   0.505  13.786 -0.7751  0.2506  0.7665
 6078TIP3   OH239724   3.504   1.187  12.435  0.1124 -0.2721 -0.0822
 6078TIP3    H139725   3.418   1.217  12.404  0.0626 -0.0800  0.2322
 6078TIP3    H239726   3.563   1.206  12.362  0.0674  0.5164  0.0692
 6079TIP3   OH239727   6.462   6.613  12.566 -0.5520 -0.5274  0.2218
 6079TIP3    H139728   6.445   6.526  12.601  1.0798 -0.1453  2.1447
 6079TIP3    H239729   6.544   6.604  12.518 -0.8947 -0.2488 -0.4326
 6080TIP3   OH239730   4.647   0.292  14.710 -0.4760 -0.1840  0.2373
 6080TIP3    H139731   4.725   0.237  14.704 -0.5567 -0.2140 -0.7023
 6080TIP3    H239732   4.669   0.371  14.661 -0.7418  0.1779  0.6859
 6081TIP3   OH239733   6.108   5.582  16.936  0.3167 -0.1924  0.5252
 6081TIP3    H139734   6.061   5.535  16.868 -0.4264  0.2275  0.7400
 6081TIP3    H239735   6.042   5.637  16.978  1.2034  1.2703  0.0899
 6082TIP3   OH239736   1.689   2.396  15.631  0.4714  0.0992 -0.5422
 6082TIP3    H139737   1.742   2.420  15.707 -0.5505 -1.6670  0.7774
 6082TIP3    H239738   1.617   2.459  15.631 -0.2292 -0.6641  0.7554
 6083TIP3   OH239739   3.570   2.121   6.084  0.3254  0.4023  0.4481
 6083TIP3    H139740   3.511   2.161   6.148 -0.9001 -2.2858  1.1614
 6083TIP3    H239741   3.654   2.113   6.130 -0.2775 -0.6072  1.4352
 6084TIP3   OH239742   1.126   0.352  17.176  0.5272 -0.1150  0.1833
 6084TIP3    H139743   1.168   0.428  17.136 -0.1115 -1.0062 -2.3431
 6084TIP3    H239744   1.170   0.276  17.138 -1.5273 -1.0278 -0.5544
 6085TIP3   OH239745   1.384   1.141  11.185  0.1753  0.0089 -0.6065
 6085TIP3    H139746   1.374   1.194  11.106 -1.7170  0.1068 -0.3702
 6085TIP3    H239747   1.303   1.089  11.189 -0.2026  0.6389  1.6971
 6086TIP3   OH239748   0.078   4.989   4.083  0.2515 -0.1865 -0.5328
 6086TIP3    H139749   0.091   5.083   4.095 -2.6574  0.1181  0.9724
 6086TIP3    H239750   0.090   4.975   3.989 -0.1274  1.8540 -0.9227
 6087TIP3   OH239751   3.195   5.382  16.430 -0.2674 -0.1769 -0.3547
 6087TIP3    H139752   3.183   5.306  16.373 -2.8526 -0.4589  0.4455
 6087TIP3    H239753   3.240   5.446  16.375 -2.0974 -0.6437 -2.5800
 6088TIP3   OH239754   5.748   1.030  13.400 -0.2196 -0.3003 -0.1977
 6088TIP3    H139755   5.669   1.066  13.361  0.2256 -1.0469 -1.8420
 6088TIP3    H239756   5.756   0.942  13.364  1.2628 -0.3065  0.0786
 6089TIP3   OH239757   2.838   6.517  12.583  0.3404  0.1791  0.0398
 6089TIP3    H139758   2.801   6.428  12.581 -0.3708  0.4790 -0.7017
 6089TIP3    H239759   2.900   6.519  12.511  1.1572 -0.0370  0.7213
 6090TIP3   OH239760   6.236   6.692  15.836  0.5837  0.2390  0.0386
 6090TIP3    H139761   6.306   6.686  15.772  0.4075 -2.6625 -0.0122
 6090TIP3    H239762   6.185   6.612  15.825 -1.7583  1.4196  1.2398
 6091TIP3   OH239763   3.326   1.007  15.095  0.2896  0.5261  0.6370
 6091TIP3    H139764   3.275   0.981  15.019  0.1344  0.0047  0.9105
 6091TIP3    H239765   3.270   1.069  15.142  0.2903  0.6680  0.4504
 6092TIP3   OH239766   2.946   3.813  13.456  0.3901  0.0315 -0.0119
 6092TIP3    H139767   2.980   3.898  13.429 -1.5728  1.0623  0.5895
 6092TIP3    H239768   2.852   3.819  13.440  0.0242 -1.5322  1.3235
 6093TIP3   OH239769   3.460   3.922   3.628 -0.6028  0.0257  0.1142
 6093TIP3    H139770   3.493   3.917   3.718 -0.7663  2.2458  0.3446
 6093TIP3    H239771   3.426   4.011   3.620 -0.5295 -0.1065 -2.1811
 6094TIP3   OH239772   6.823   4.665  12.844  0.2327  0.0552  0.2745
 6094TIP3    H139773   6.752   4.604  12.824  2.5104 -2.3552 -0.9141
 6094TIP3    H239774   6.850   4.700  12.759  0.6013  0.8634  0.7042
 6095TIP3   OH239775   2.496   0.714  15.588  0.3190  0.5284 -0.2338
 6095TIP3    H139776   2.514   0.781  15.523  1.0133  0.0141 -0.5901
 6095TIP3    H239777   2.531   0.633  15.549 -1.3531 -0.2287 -0.2481
 6096TIP3   OH239778   4.086   3.040   1.530 -0.5078  0.2016 -0.0312
 6096TIP3    H139779   4.018   3.063   1.466 -0.2720 -2.5408 -1.4491
 6096TIP3    H239780   4.065   2.950   1.554  1.3467  0.0716  1.2416
 6097TIP3   OH239781   6.575   0.607   1.370 -0.1496  0.2483 -0.4198
 6097TIP3    H139782   6.599   0.527   1.416 -1.3551  0.4221  0.5967
 6097TIP3    H239783   6.647   0.623   1.309  1.4632 -0.0936  1.2993
 6098TIP3   OH239784   0.271   0.877  15.425  0.3974  0.7709  0.6661
 6098TIP3    H139785   0.312   0.808  15.477  1.3889  0.1036 -0.9158
 6098TIP3    H239786   0.186   0.841  15.399  0.5920  0.4380  0.4802
 6099TIP3   OH239787   5.928   2.889   3.312  0.4357  0.4133  0.4430
 6099TIP3    H139788   6.009   2.940   3.319  1.0798 -0.5819  0.5192
 6099TIP3    H239789   5.917   2.874   3.218  0.1047  0.9137  0.4026
 6100TIP3   OH239790   6.141   4.104  15.563 -0.3210  0.0017  0.3378
 6100TIP3    H139791   6.132   4.022  15.514  1.5582  0.5066 -0.9580
 6100TIP3    H239792   6.235   4.116  15.573 -0.5652  1.7733  0.9050
 6101TIP3   OH239793   0.901   5.905   1.603 -0.1059  0.0851  0.2093
 6101TIP3    H139794   0.833   5.927   1.666  0.4278 -0.3719  0.9523
 6101TIP3    H239795   0.914   5.986   1.553 -0.1444  0.6093  1.0418
 6102TIP3   OH239796   0.186   5.167  16.720  0.0352 -0.4651  0.2645
 6102TIP3    H139797   0.143   5.082  16.729 -1.3099  0.2723  1.2099
 6102TIP3    H239798   0.184   5.184  16.626 -0.3359 -1.1598  0.1332
 6103TIP3   OH239799   0.091   1.020  15.045 -0.3672  0.1144 -0.5603
 6103TIP3    H139800   0.086   1.049  15.137 -1.1726  1.1651 -0.9115
 6103TIP3    H239801   0.031   0.946  15.041  0.7908 -0.8862  0.0813
 6104TIP3   OH239802   5.488   2.756  12.451  0.2035  0.5760 -0.3061
 6104TIP3    H139803   5.532   2.806  12.519 -0.7896  1.8217 -0.5433
 6104TIP3    H239804   5.541   2.771  12.372  1.6214 -1.2412  0.2054
 6105TIP3   OH239805   5.012   2.042   3.404 -0.8134  0.2261  0.1109
 6105TIP3    H139806   5.033   2.095   3.481  0.1822  0.4516 -0.2959
 6105TIP3    H239807   4.930   2.078   3.371 -0.7412  0.7612  0.5133
 6106TIP3   OH239808   5.652   6.139   6.153  0.7546  0.4791 -0.1676
 6106TIP3    H139809   5.609   6.220   6.181  0.4366  0.8857 -1.7200
 6106TIP3    H239810   5.744   6.164   6.139  0.7239  0.4969 -0.3411
 6107TIP3   OH239811   5.345   0.052   0.529  0.4724  0.3166 -0.1030
 6107TIP3    H139812   5.301  -0.012   0.472  2.6571 -0.7859 -0.6350
 6107TIP3    H239813   5.403   0.100   0.471  2.2870 -0.4015  1.0492
 6108TIP3   OH239814   3.615   5.287  11.641  0.2105  0.7551 -0.3480
 6108TIP3    H139815   3.525   5.315  11.623  0.2552  2.2221  1.3990
 6108TIP3    H239816   3.606   5.219  11.708  0.3324 -0.6598 -1.7121
 6109TIP3   OH239817   6.118   3.426   0.062  0.5924 -0.3863  0.8963
 6109TIP3    H139818   6.159   3.400  -0.021  0.0277  1.0475  0.1275
 6109TIP3    H239819   6.162   3.373   0.128  2.0778 -0.5262 -0.1457
 6110TIP3   OH239820   6.252   2.973   1.109 -0.1645  0.1988  0.5076
 6110TIP3    H139821   6.191   3.040   1.078 -1.2384 -1.1587 -0.4304
 6110TIP3    H239822   6.331   3.022   1.133 -0.4659  1.6984 -1.3222
 6111TIP3   OH239823   2.890   0.658  10.978 -0.1367 -0.2121  0.1718
 6111TIP3    H139824   2.937   0.603  10.915  0.3706  0.3897  0.0175
 6111TIP3    H239825   2.804   0.671  10.939  0.0994 -0.0307 -0.2841
 6112TIP3   OH239826   6.127   4.149   6.466 -0.5582  0.0512  0.0161
 6112TIP3    H139827   6.129   4.053   6.470  0.2229  0.1082  1.3683
 6112TIP3    H239828   6.211   4.173   6.428 -0.3574  0.2294  0.5666
 6113TIP3   OH239829   3.476   4.673   1.526 -0.3741 -0.2677  0.5733
 6113TIP3    H139830   3.508   4.723   1.601 -0.6433  0.1348  0.4241
 6113TIP3    H239831   3.434   4.596   1.564 -1.2554  0.3469  0.8835
 6114TIP3   OH239832   4.113   3.707   4.283 -0.3051 -0.2512  0.1314
 6114TIP3    H139833   4.201   3.716   4.321  0.4984 -0.4417 -1.6009
 6114TIP3    H239834   4.104   3.613   4.265 -0.0214  0.0174 -1.5602
 6115TIP3   OH239835   5.060   6.808   2.648  0.0346 -1.0004 -0.1554
 6115TIP3    H139836   4.989   6.863   2.682  0.2693 -0.0056 -1.2481
 6115TIP3    H239837   5.136   6.832   2.702 -0.4112 -2.0699  1.0194
 6116TIP3   OH239838   0.820   4.329   5.206  0.1808 -0.7339 -0.2376
 6116TIP3    H139839   0.874   4.320   5.128 -1.2313 -0.8321 -1.2402
 6116TIP3    H239840   0.793   4.239   5.227  0.7268 -0.7310  0.4895
 6117TIP3   OH239841   6.841   3.284   2.666 -0.6890 -0.4747 -0.0781
 6117TIP3    H139842   6.877   3.228   2.597  0.3644  1.5380 -1.2537
 6117TIP3    H239843   6.904   3.277   2.738  0.1012  0.1142 -0.6927
 6118TIP3   OH239844   5.227   6.459   0.142  0.0275 -0.6223  0.2115
 6118TIP3    H139845   5.226   6.417   0.228  3.9818  0.1810  0.8669
 6118TIP3    H239846   5.287   6.405   0.090  2.3762  2.0288 -0.0644
 6119TIP3   OH239847   1.641   6.511  14.830  0.0240 -0.3004  0.2708
 6119TIP3    H139848   1.718   6.454  14.821  0.5748  0.5782 -0.8465
 6119TIP3    H239849   1.677   6.600  14.830 -0.7858  0.1025  2.3094
 6120TIP3   OH239850   0.077   5.805   0.842  0.3882  0.0480  0.3227
 6120TIP3    H139851   0.017   5.868   0.803  0.0746 -0.5699 -0.2071
 6120TIP3    H239852   0.101   5.844   0.926  0.4682  1.0304 -0.1436
 6121TIP3   OH239853   4.196   5.391  11.517 -0.1608  0.4272  0.3161
 6121TIP3    H139854   4.105   5.391  11.486  0.1374  0.1352 -0.6160
 6121TIP3    H239855   4.193   5.349  11.603 -0.6181 -1.8068 -0.7080
 6122TIP3   OH239856   1.808   3.150   2.325 -0.7288  0.4474 -0.2081
 6122TIP3    H139857   1.816   3.092   2.400 -2.1417  0.8385  0.2610
 6122TIP3    H239858   1.894   3.145   2.283  0.4360  1.0098  1.9747
 6123TIP3   OH239859   1.782   1.860  12.668 -0.4337  0.1293  0.5536
 6123TIP3    H139860   1.812   1.817  12.588 -0.3545  1.2742 -0.0451
 6123TIP3    H239861   1.783   1.953  12.647  1.1667  0.5859  2.4144
 6124TIP3   OH239862   4.323   5.466   5.008 -0.3563  0.0226 -0.0542
 6124TIP3    H139863   4.305   5.560   5.001 -1.5823 -0.1663  0.3396
 6124TIP3    H239864   4.245   5.424   4.973 -0.4825 -0.8587  1.2267
 6125TIP3   OH239865   2.193   2.419  11.168 -0.4833 -0.1424  0.4522
 6125TIP3    H139866   2.162   2.505  11.140  1.7877  0.4193 -0.5986
 6125TIP3    H239867   2.155   2.357  11.106 -0.3282  0.3843 -0.1722
 6126TIP3   OH239868   5.528   4.629  14.777  0.0157 -0.0224  0.1178
 6126TIP3    H139869   5.605   4.580  14.747  0.5170  1.2248 -0.6988
 6126TIP3    H239870   5.453   4.574  14.750  0.4862  0.3798 -2.3002
 6127TIP3   OH239871   5.467   3.343  12.321  0.7773 -0.0982  0.7592
 6127TIP3    H139872   5.479   3.249  12.339  0.0863 -0.3664 -0.1049
 6127TIP3    H239873   5.512   3.356  12.237 -1.7246 -0.3658 -0.7408
 6128TIP3   OH239874   2.452   3.325   3.805 -0.7561  0.6093 -0.3407
 6128TIP3    H139875   2.359   3.317   3.783 -0.9353  1.2594  0.1457
 6128TIP3    H239876   2.475   3.415   3.782 -0.2088  0.4162 -0.5815
 6129TIP3   OH239877   0.347   3.324  13.790  0.2189 -0.3692 -0.5834
 6129TIP3    H139878   0.269   3.371  13.822  0.9833  0.2887  0.3784
 6129TIP3    H239879   0.336   3.321  13.695 -0.7590  0.1238 -0.4990
 6130TIP3   OH239880   2.388   2.820   2.055  0.6057  1.0849 -0.4269
 6130TIP3    H139881   2.403   2.879   2.129  0.8115  1.3980 -0.7127
 6130TIP3    H239882   2.466   2.764   2.052 -0.5725 -0.7488  1.2366
 6131TIP3   OH239883   1.103   6.286   4.748 -0.1040 -0.2802  0.7702
 6131TIP3    H139884   1.051   6.222   4.797 -1.1618  1.0434  1.4115
 6131TIP3    H239885   1.056   6.369   4.758 -0.1661  0.1466 -2.1307
 6132TIP3   OH239886   1.968   3.814   0.221 -0.9150 -0.0507 -0.2236
 6132TIP3    H139887   1.958   3.722   0.198 -1.4093  0.4823 -2.2994
 6132TIP3    H239888   1.983   3.813   0.316 -1.5093 -2.2077 -0.1002
 6133TIP3   OH239889   6.787   0.117  12.573 -0.3290  0.4094  0.2860
 6133TIP3    H139890   6.722   0.164  12.521 -0.4077  0.9113  0.8269
 6133TIP3    H239891   6.791   0.165  12.656 -0.4810 -0.5839  0.8897
 6134TIP3   OH239892   5.375   4.682  11.474  0.5046  0.7133  0.2719
 6134TIP3    H139893   5.389   4.663  11.381 -3.6582 -1.8454 -0.0561
 6134TIP3    H239894   5.333   4.768  11.474  1.1325  1.0328 -0.0916
 6135TIP3   OH239895   5.231   5.587  17.101 -0.0603 -0.7273 -0.6520
 6135TIP3    H139896   5.237   5.510  17.044 -3.4001  0.6460 -3.2388
 6135TIP3    H239897   5.258   5.660  17.046 -4.3131  0.7868 -1.0756
 6136TIP3   OH239898   4.739   3.501  17.072 -0.4393  0.0315  0.5647
 6136TIP3    H139899   4.672   3.511  17.004 -0.7760  0.2088  0.9157
 6136TIP3    H239900   4.692   3.464  17.147 -0.2907  0.8092  1.0476
 6137TIP3   OH239901   6.679   6.347  10.884 -0.1076 -0.6601  0.1531
 6137TIP3    H139902   6.629   6.374  10.808  0.0737  2.1464  0.9225
 6137TIP3    H239903   6.769   6.374  10.865 -0.1017  0.2949  1.4225
 6138TIP3   OH239904   0.256   1.698  14.533  0.0328 -0.4466 -0.5151
 6138TIP3    H139905   0.329   1.649  14.496 -0.5719 -1.5529 -0.2836
 6138TIP3    H239906   0.255   1.781  14.484  0.1562 -1.2628 -1.9364
 6139TIP3   OH239907   6.538   4.910   2.969 -0.1638  0.0478  0.4029
 6139TIP3    H139908   6.611   4.921   2.908 -0.0207  0.5674  0.6571
 6139TIP3    H239909   6.495   4.829   2.942 -1.0667  1.0754 -1.4060
 6140TIP3   OH239910   0.431   2.503   3.387  0.0834  0.8076 -0.0468
 6140TIP3    H139911   0.403   2.504   3.295 -2.1306  0.9023  0.5697
 6140TIP3    H239912   0.515   2.456   3.386  0.9299  2.1958 -2.2968
 6141TIP3   OH239913   0.801   4.467  16.781  0.3717 -0.0582  0.0139
 6141TIP3    H139914   0.719   4.475  16.830 -0.1020 -0.0341 -0.7720
 6141TIP3    H239915   0.800   4.539  16.718  1.2767  0.2956  0.3753
 6142TIP3   OH239916   2.268   1.913   1.517 -0.3274 -0.5051 -0.5845
 6142TIP3    H139917   2.346   1.860   1.534  0.8315  1.3180  0.1569
 6142TIP3    H239918   2.281   1.948   1.429  0.8341  1.5443  0.3467
 6143TIP3   OH239919   2.552   1.478   6.867  0.1312 -0.3386 -0.3385
 6143TIP3    H139920   2.512   1.496   6.782 -0.0817 -0.3846 -0.2484
 6143TIP3    H239921   2.624   1.541   6.873 -1.0397  1.0163  0.2884
 6144TIP3   OH239922   1.588   5.450  10.583  0.3599 -0.0901  0.4531
 6144TIP3    H139923   1.546   5.514  10.640 -1.1556 -0.9459  0.3322
 6144TIP3    H239924   1.522   5.428  10.518  1.2523 -0.9314 -0.2015
 6145TIP3   OH239925   0.852   4.461   5.447 -0.0139 -0.2111  0.2421
 6145TIP3    H139926   0.763   4.447   5.479 -0.5470  0.7740 -0.7288
 6145TIP3    H239927   0.855   4.414   5.363 -0.0917  0.9420 -0.4198
 6146TIP3   OH239928   0.278   1.026  13.005  0.0416  0.8340 -0.6457
 6146TIP3    H139929   0.198   1.073  12.986  0.5963  1.9283 -0.3568
 6146TIP3    H239930   0.287   1.029  13.100 -0.0165 -0.0434 -0.5994
 6147TIP3   OH239931   6.259   5.542  15.195  0.2353  0.4348  0.0253
 6147TIP3    H139932   6.347   5.540  15.156  0.8940  4.1706  0.9652
 6147TIP3    H239933   6.267   5.489  15.274  1.7922  1.0649  0.3264
 6148TIP3   OH239934   4.269   1.088  13.694  0.8261  0.7343  0.1023
 6148TIP3    H139935   4.345   1.030  13.696  0.2387 -0.0411  0.7100
 6148TIP3    H239936   4.304   1.175  13.712  1.4382  0.2294  1.4790
 6149TIP3   OH239937   0.767   4.112  11.083  0.2175  0.5584  0.3200
 6149TIP3    H139938   0.741   4.172  11.012  2.3775  1.7580  0.4483
 6149TIP3    H239939   0.823   4.048  11.040 -1.3189 -0.8711  0.3628
 6150TIP3   OH239940   1.800   4.425   4.230  0.2445 -0.1157 -0.1668
 6150TIP3    H139941   1.892   4.409   4.209  0.3391 -0.1471  0.2723
 6150TIP3    H239942   1.762   4.337   4.239 -0.3326 -0.1801 -2.4456
 6151TIP3   OH239943   2.904   0.547   2.161 -0.0601 -0.8604 -0.9165
 6151TIP3    H139944   2.905   0.630   2.114 -0.3899 -0.8107 -0.8410
 6151TIP3    H239945   2.820   0.507   2.137  0.0113 -1.0836 -0.8010
 6152TIP3   OH239946   0.885   6.165   2.689 -0.1688  0.0212 -0.2109
 6152TIP3    H139947   0.971   6.208   2.695 -0.7553  1.0667  2.8986
 6152TIP3    H239948   0.857   6.181   2.599  0.7910  4.0864 -0.0138
 6153TIP3   OH239949   6.760   4.757   1.475  0.5372  0.0392  0.2122
 6153TIP3    H139950   6.814   4.697   1.424 -0.0828 -1.7904  1.6096
 6153TIP3    H239951   6.674   4.751   1.434  0.7132  0.7862 -0.2783
 6154TIP3   OH239952   3.781   1.157   0.988 -0.5825 -0.1457  0.1202
 6154TIP3    H139953   3.844   1.213   1.034  1.2670 -1.2271 -0.9713
 6154TIP3    H239954   3.762   1.205   0.908  1.5261 -1.2620 -1.1384
 6155TIP3   OH239955   6.617   2.521   6.570 -0.0159 -0.3273  0.4232
 6155TIP3    H139956   6.656   2.575   6.501 -1.8019 -0.9924 -1.2002
 6155TIP3    H239957   6.667   2.542   6.649  1.4358  1.2339 -0.8472
 6156TIP3   OH239958   3.626   1.604  15.065 -0.6459 -0.4609 -0.3549
 6156TIP3    H139959   3.608   1.569  15.152  1.9928  0.2550  0.5824
 6156TIP3    H239960   3.645   1.697  15.080  0.9242 -0.5567 -1.5132
 6157TIP3   OH239961   6.529   1.817   0.870  0.2188  0.3129  1.0948
 6157TIP3    H139962   6.563   1.773   0.792 -0.6129  1.6020 -0.0391
 6157TIP3    H239963   6.593   1.797   0.938  0.6383 -1.3751  0.2628
 6158TIP3   OH239964   3.745   2.790   4.386 -0.6050  0.3899  0.0301
 6158TIP3    H139965   3.737   2.726   4.316 -0.7775 -1.4880  1.6755
 6158TIP3    H239966   3.796   2.746   4.454  0.9869  2.7106  0.4819
 6159TIP3   OH239967   3.520   6.721   3.570  0.5248 -0.0737  0.1743
 6159TIP3    H139968   3.548   6.742   3.481 -3.4055  3.9284 -0.5029
 6159TIP3    H239969   3.550   6.795   3.622 -2.5739  0.9560  0.6968
 6160TIP3   OH239970   5.401   6.831   5.312 -0.0395 -0.2068  0.3682
 6160TIP3    H139971   5.374   6.888   5.384 -1.4333 -1.4767  0.9093
 6160TIP3    H239972   5.333   6.841   5.246  1.5824  1.4898 -1.1683
 6161TIP3   OH239973   2.691   1.576   6.262 -0.0656  0.3291  0.4333
 6161TIP3    H139974   2.639   1.653   6.283 -0.2468  0.8888 -1.8229
 6161TIP3    H239975   2.782   1.606   6.271 -0.1403  0.6478  0.1709
 6162TIP3   OH239976   1.156   6.122  11.020  0.2398 -0.3218 -0.1813
 6162TIP3    H139977   1.061   6.132  11.026  0.2644 -0.0013 -0.2939
 6162TIP3    H239978   1.174   6.039  11.063 -0.0280 -0.0965  0.3813
 6163TIP3   OH239979   1.027   5.510   0.425 -0.1622 -0.0817  0.1797
 6163TIP3    H139980   1.102   5.560   0.394 -0.8947  2.7466  2.5348
 6163TIP3    H239981   1.063   5.449   0.489  0.2922  0.1626  0.1570
 6164TIP3   OH239982   5.570   0.716  15.540  0.3615  0.0548  0.3250
 6164TIP3    H139983   5.569   0.800  15.495 -1.7915  0.8804  1.7345
 6164TIP3    H239984   5.644   0.669  15.502  0.9628  2.1447 -1.2795
 6165TIP3   OH239985   0.487   4.319  15.524  0.0905 -0.0322 -0.3947
 6165TIP3    H139986   0.529   4.377  15.588  0.8348  0.7796 -1.5633
 6165TIP3    H239987   0.414   4.280  15.570  0.1282  1.1487  0.7107
 6166TIP3   OH239988   1.561   2.531   0.418 -0.3057 -0.0208 -0.5001
 6166TIP3    H139989   1.477   2.549   0.460  0.0338 -1.0237  0.6595
 6166TIP3    H239990   1.538   2.502   0.330 -1.1492 -0.0024 -0.2945
 6167TIP3   OH239991   3.602   5.031   2.405 -0.4113  0.5708  0.0168
 6167TIP3    H139992   3.556   4.961   2.452 -0.9591 -0.2079 -1.6077
 6167TIP3    H239993   3.647   4.986   2.334 -0.4068  1.8263 -0.8017
 6168TIP3   OH239994   1.815   0.523   5.399  0.2491 -0.8020 -0.4243
 6168TIP3    H139995   1.886   0.570   5.356 -1.3055  0.0490 -2.1551
 6168TIP3    H239996   1.838   0.525   5.492  1.3413  1.4523 -0.6910
 6169TIP3   OH239997   5.058   6.655  14.584 -0.6830 -0.2075  0.6222
 6169TIP3    H139998   4.990   6.713  14.619 -0.1384  1.0253 -0.2781
 6169TIP3    H239999   5.129   6.660  14.648 -0.1961  1.0483  0.0367
 6170TIP3   OH240000   1.449   0.853   4.938  0.6277 -0.6680  0.0644
 6170TIP3    H140001   1.477   0.913   5.008  1.1847 -1.6196  0.6742
 6170TIP3    H240002   1.363   0.885   4.912  1.2904  0.9699 -0.2820
 6171TIP3   OH240003   0.648   6.355   2.118  0.5203 -0.0840 -0.4970
 6171TIP3    H140004   0.724   6.318   2.075 -0.4386 -0.8344 -1.6146
 6171TIP3    H240005   0.578   6.351   2.052 -0.7378 -0.3104  0.7882
 6172TIP3   OH240006   0.670   2.117  12.632 -0.3474  0.1471  0.5389
 6172TIP3    H140007   0.607   2.100  12.562  0.4143  1.0502 -0.4061
 6172TIP3    H240008   0.644   2.202  12.667  1.4159  1.4973 -1.1741
 6173TIP3   OH240009   1.003   2.997   0.424 -0.4913  0.3557  0.0739
 6173TIP3    H140010   1.098   3.000   0.436 -0.5095 -1.1678  0.9114
 6173TIP3    H240011   0.968   2.999   0.513 -1.1178 -1.1935 -0.1022
 6174TIP3   OH240012   6.767   4.848  14.373  0.2773 -0.2455  0.3126
 6174TIP3    H140013   6.797   4.910  14.306 -2.0331  0.4613 -0.1891
 6174TIP3    H240014   6.787   4.762  14.337  0.7270  0.1677 -0.4601
 6175TIP3   OH240015   5.047   6.660  13.493  0.0382  0.3804  0.1440
 6175TIP3    H140016   4.973   6.623  13.541  1.4751 -1.6022  0.9676
 6175TIP3    H240017   5.114   6.675  13.559  1.3577 -0.5426 -0.9226
 6176TIP3   OH240018   2.099   4.126   0.352  0.2733  0.0782  0.3917
 6176TIP3    H140019   2.054   4.134   0.268  2.7502  0.8601 -0.9689
 6176TIP3    H240020   2.077   4.207   0.398  0.4838  0.5686 -0.3526
 6177TIP3   OH240021   1.228   4.489  14.953  0.3426  0.3456  0.0163
 6177TIP3    H140022   1.182   4.526  15.029  3.3859 -2.7990  3.8439
 6177TIP3    H240023   1.318   4.520  14.964  1.3967 -2.2531 -0.7748
 6178TIP3   OH240024   5.765   5.358   4.718  0.3886  0.5475  0.4297
 6178TIP3    H140025   5.758   5.342   4.624 -1.5043  0.3091  0.5664
 6178TIP3    H240026   5.780   5.452   4.725 -1.8615  1.0009 -0.0974
 6179TIP3   OH240027   0.334   4.610  11.364  0.6634 -0.0055  0.0093
 6179TIP3    H140028   0.333   4.602  11.460 -0.7364  0.1300  0.0214
 6179TIP3    H240029   0.262   4.669  11.344  0.9402 -0.0415 -1.1399
 6180TIP3   OH240030   5.825   4.009   5.977  0.0663  0.0345 -0.2501
 6180TIP3    H140031   5.873   3.968   5.905 -0.5730 -1.4339  0.1236
 6180TIP3    H240032   5.784   4.086   5.937 -0.4215 -0.8456 -1.5269
 6181TIP3   OH240033   5.729   1.276  16.584 -0.5358  0.2905  0.1426
 6181TIP3    H140034   5.656   1.332  16.612 -1.3455 -0.2316 -0.8682
 6181TIP3    H240035   5.806   1.315  16.625 -1.3902  0.8012  1.3112
 6182TIP3   OH240036   1.803   1.836  14.166  0.2321  0.3228  0.0910
 6182TIP3    H140037   1.731   1.887  14.203 -0.2915 -0.7759  0.6248
 6182TIP3    H240038   1.850   1.802  14.241  1.3749  1.0866 -0.2553
 6183TIP3   OH240039   5.810   4.699   3.005 -0.1414 -0.3252  0.0730
 6183TIP3    H140040   5.798   4.629   3.068 -0.5699 -0.4299 -0.1182
 6183TIP3    H240041   5.901   4.725   3.014 -0.3107 -0.0180  1.0724
 6184TIP3   OH240042   0.294   2.527  12.391 -0.8934  0.4030  0.1816
 6184TIP3    H140043   0.243   2.595  12.436 -0.6759  0.6254  0.0981
 6184TIP3    H240044   0.385   2.545  12.416 -0.7365  0.7097 -0.5632
 6185TIP3   OH240045   1.049   0.036   4.096 -0.1114 -0.4998  0.3387
 6185TIP3    H140046   1.005   0.079   4.169  0.5029  0.0318  0.4023
 6185TIP3    H240047   1.026  -0.057   4.105 -0.6352 -0.3327  0.7713
 6186TIP3   OH240048   5.233   4.751   5.434  0.1855  0.2620 -0.4482
 6186TIP3    H140049   5.267   4.741   5.523 -2.0388  3.2370  0.9046
 6186TIP3    H240050   5.182   4.832   5.437 -1.1225 -0.2513 -4.1079
 6187TIP3   OH240051   6.119   6.722  11.124  0.0333  0.1934  0.2333
 6187TIP3    H140052   6.135   6.758  11.037  1.2173  0.2139  0.4442
 6187TIP3    H240053   6.199   6.673  11.145 -0.6047 -0.5849  0.9312
 6188TIP3   OH240054   1.673   0.405   0.518 -0.0884 -0.4403 -0.4425
 6188TIP3    H140055   1.730   0.328   0.515  1.6513  0.7555  0.1965
 6188TIP3    H240056   1.656   0.418   0.611  0.3741  0.4619 -0.4815
 6189TIP3   OH240057   1.499   3.449   2.675 -0.1286  0.1076  0.5465
 6189TIP3    H140058   1.450   3.488   2.748  1.3466  1.9657  0.6145
 6189TIP3    H240059   1.443   3.463   2.599 -0.1095  1.3991  0.7573
 6190TIP3   OH240060   1.704   5.396  14.759 -0.0521  0.3138  1.1295
 6190TIP3    H140061   1.698   5.491  14.769 -0.8267  0.5112 -0.6950
 6190TIP3    H240062   1.731   5.384  14.667  1.2668 -1.2248  1.6712
 6191TIP3   OH240063   4.014   4.985  15.442 -0.7556  0.0448 -0.2603
 6191TIP3    H140064   3.951   5.056  15.441  1.4128  2.1021  0.9027
 6191TIP3    H240065   4.072   5.005  15.515 -1.0385 -3.9083  1.2988
 6192TIP3   OH240066   3.732   6.406  15.062  0.5773  0.0597  0.2285
 6192TIP3    H140067   3.707   6.327  15.013 -0.3875  1.2799 -1.3328
 6192TIP3    H240068   3.649   6.442  15.093  0.9736  0.7076  0.5446
 6193TIP3   OH240069   2.349   5.589  14.734  0.1396  0.1826 -0.1203
 6193TIP3    H140070   2.393   5.659  14.686  1.9500 -1.4974 -1.0844
 6193TIP3    H240071   2.410   5.565  14.803  0.8494 -2.1700 -1.4509
 6194TIP3   OH240072   0.286   4.381   4.693 -0.1949  0.5982 -0.4587
 6194TIP3    H140073   0.206   4.405   4.647 -0.4638 -0.4525 -0.5532
 6194TIP3    H240074   0.260   4.371   4.784 -0.1544  0.3211 -0.4776
 6195TIP3   OH240075   6.120   0.139   5.749  1.0431 -0.3394  0.1795
 6195TIP3    H140076   6.212   0.114   5.740  1.8349  2.2614  0.2699
 6195TIP3    H240077   6.118   0.233   5.728 -1.7886 -0.5410 -0.9147
 6196TIP3   OH240078   6.839   5.950  15.900 -0.4617  0.3918 -0.6537
 6196TIP3    H140079   6.817   5.953  15.993 -1.1503 -0.9624 -0.7568
 6196TIP3    H240080   6.761   5.917  15.858  0.4491 -0.7562 -1.4976
 6197TIP3   OH240081   4.824   0.092   1.560  0.1858  0.6603 -0.0762
 6197TIP3    H140082   4.764   0.017   1.559  1.0339 -0.0456  0.3051
 6197TIP3    H240083   4.767   0.169   1.565 -0.7295  0.0754 -1.0953
 6198TIP3   OH240084   6.338   1.143  11.038  0.1473  0.2729 -0.0738
 6198TIP3    H140085   6.376   1.067  10.994  0.8070  0.1344  0.7234
 6198TIP3    H240086   6.380   1.218  10.996  2.0775  0.1108  1.4166
 6199TIP3   OH240087   5.460   1.510   4.143  0.0941 -0.7285  0.0421
 6199TIP3    H140088   5.415   1.522   4.059 -0.3546 -2.3411  0.0258
 6199TIP3    H240089   5.389   1.502   4.207  0.4234  1.6233  0.8152
 6200TIP3   OH240090   3.478   4.195  12.813 -0.6007 -0.0571  0.5351
 6200TIP3    H140091   3.399   4.203  12.759 -1.0109 -1.1795  0.9441
 6200TIP3    H240092   3.471   4.265  12.877 -0.9190  0.2745  0.1382
 6201TIP3   OH240093   3.604   3.543  15.921 -0.3865 -0.4918 -0.3355
 6201TIP3    H140094   3.574   3.467  15.972 -0.9834 -0.2292 -0.2865
 6201TIP3    H240095   3.526   3.573  15.875 -0.0467 -0.1833 -0.7163
 6202TIP3   OH240096   0.686   2.106   3.221 -0.1046  0.2076 -0.5976
 6202TIP3    H140097   0.691   2.040   3.291 -0.4635  0.9684  0.1732
 6202TIP3    H240098   0.757   2.083   3.162  0.9828  0.2312  0.6396
 6203TIP3   OH240099   6.073   0.876  11.956  0.1770 -0.5256 -0.2677
 6203TIP3    H140100   6.061   0.811  11.886  2.0062 -0.5822 -0.5691
 6203TIP3    H240101   6.101   0.824  12.032 -1.2033 -0.3940  0.3586
 6204TIP3   OH240102   6.288   2.592  15.444  0.0336  0.0226 -0.0982
 6204TIP3    H140103   6.250   2.527  15.503  1.6056  0.1493  1.0978
 6204TIP3    H240104   6.293   2.547  15.359 -0.6674 -0.7489  0.2554
 6205TIP3   OH240105   4.115   5.429  12.479  0.2803 -0.4394 -0.4116
 6205TIP3    H140106   4.057   5.389  12.414  1.6019 -1.5613 -0.9521
 6205TIP3    H240107   4.110   5.523  12.461 -0.8639 -0.5764 -0.8549
 6206TIP3   OH240108   1.135   2.879   2.509 -0.2120  0.6341 -0.1031
 6206TIP3    H140109   1.083   2.837   2.440  1.6267 -0.1801 -1.0619
 6206TIP3    H240110   1.159   2.807   2.567 -0.2161  1.0144  0.3734
 6207TIP3   OH240111   4.787   0.122   4.129 -0.2686 -0.1215  0.1794
 6207TIP3    H140112   4.866   0.100   4.079 -0.9575 -3.7432  0.3808
 6207TIP3    H240113   4.717   0.123   4.063 -0.3481  1.0314  0.2776
 6208TIP3   OH240114   0.227   2.118   0.302  0.1470 -0.3174  1.0406
 6208TIP3    H140115   0.206   2.040   0.353 -0.7764 -1.0364 -0.3792
 6208TIP3    H240116   0.152   2.176   0.316  0.5256  0.0555  1.5654
 6209TIP3   OH240117   2.985   5.303   2.015  0.2036  0.4810  0.1965
 6209TIP3    H140118   3.034   5.371   2.061  0.6465  0.6879 -0.5557
 6209TIP3    H240119   3.022   5.221   2.048  1.8808  0.6261 -1.1481
 6210TIP3   OH240120   5.877   5.545  12.738 -0.9704  0.0066  0.0947
 6210TIP3    H140121   5.806   5.597  12.774 -1.6211 -0.8767  0.1248
 6210TIP3    H240122   5.932   5.524  12.814 -3.0287 -2.9471  0.9411
 6211TIP3   OH240123   6.334   2.623   3.471  0.0068  0.2472 -0.2289
 6211TIP3    H140124   6.371   2.681   3.537  0.9563 -0.4786 -0.1059
 6211TIP3    H240125   6.254   2.667   3.442 -1.3482 -0.1423  2.5526
 6212TIP3   OH240126   4.405   6.456  12.518  0.0579 -0.1885  0.3263
 6212TIP3    H140127   4.438   6.367  12.523  0.0010 -0.2618 -0.4265
 6212TIP3    H240128   4.423   6.494  12.604 -0.8991 -1.2596  1.0264
 6213TIP3   OH240129   0.053   2.215   1.280  0.8076 -0.5087 -0.0772
 6213TIP3    H140130  -0.008   2.288   1.279 -0.9468 -1.9136 -1.5180
 6213TIP3    H240131   0.134   2.252   1.315 -0.0024  2.0994 -0.7722
 6214TIP3   OH240132   0.737   2.509   6.539  0.4958  0.3420 -0.1970
 6214TIP3    H140133   0.681   2.516   6.461 -0.5339  3.3513  0.6653
 6214TIP3    H240134   0.810   2.453   6.511 -0.7764 -0.2307 -2.7046
 6215TIP3   OH240135   4.795   0.115   5.799  0.2855  0.4798  0.6349
 6215TIP3    H140136   4.755   0.035   5.765 -0.9147  0.7581  1.3397
 6215TIP3    H240137   4.876   0.086   5.841  0.1126 -0.2915  0.4402
 6216TIP3   OH240138   5.565   5.925  16.493 -0.1284 -0.3137  0.2058
 6216TIP3    H140139   5.475   5.890  16.494 -0.0773 -0.4425  1.6856
 6216TIP3    H240140   5.616   5.863  16.545  0.6511  0.2079  0.0809
 6217TIP3   OH240141   4.862   2.971   4.275 -0.5565  0.3086 -0.2698
 6217TIP3    H140142   4.831   2.909   4.340  1.0833  0.1191  0.3926
 6217TIP3    H240143   4.800   3.044   4.279 -0.8652 -0.0015  1.0243
 6218TIP3   OH240144   0.089   2.809  15.868  0.9693  0.3920 -0.3875
 6218TIP3    H140145   0.127   2.723  15.850 -0.0705  0.1781 -1.7856
 6218TIP3    H240146   0.008   2.811  15.815 -1.8444  0.2127  3.4942
 6219TIP3   OH240147   4.187   2.850   1.906 -0.4253 -0.4704  0.1656
 6219TIP3    H140148   4.102   2.807   1.892 -1.6937  2.1302 -0.7522
 6219TIP3    H240149   4.185   2.875   1.998 -1.5588  1.2655 -0.2920
 6220TIP3   OH240150   4.687   5.064   3.393  0.2651  0.3398  0.1543
 6220TIP3    H140151   4.763   5.120   3.379  0.1382  0.9387  1.6953
 6220TIP3    H240152   4.612   5.122   3.382  0.0851  0.1568  0.3944
 6221TIP3   OH240153   6.616   4.923  13.842 -0.1701  0.4526  0.0595
 6221TIP3    H140154   6.710   4.925  13.825 -0.3476 -0.4758 -1.1016
 6221TIP3    H240155   6.602   4.992  13.908  1.4955 -0.2594  1.2161
 6222TIP3   OH240156   1.158   4.219   6.634  0.2274  0.4483 -0.5773
 6222TIP3    H140157   1.147   4.294   6.694  0.6328  0.4653 -0.5245
 6222TIP3    H240158   1.131   4.143   6.686  1.7946  0.2935  0.0703
 6223TIP3   OH240159   2.806   2.274  15.633  0.4780  0.4085  0.0010
 6223TIP3    H140160   2.780   2.307  15.547  0.1805  0.5636  0.1485
 6223TIP3    H240161   2.747   2.319  15.694  1.5099  1.2544  0.4066
 6224TIP3   OH240162   6.380   0.457  16.853 -0.1168  0.6397 -0.3870
 6224TIP3    H140163   6.422   0.524  16.907  2.2063 -1.2307  0.3012
 6224TIP3    H240164   6.301   0.434  16.902  0.8519  0.4744  1.1762
 6225TIP3   OH240165   5.234   0.274  15.021  0.1970  0.2911  0.1786
 6225TIP3    H140166   5.205   0.281  14.930 -0.6678 -1.1359  0.3070
 6225TIP3    H240167   5.158   0.300  15.073  0.5499  0.6966  0.4946
 6226TIP3   OH240168   4.131   5.830  13.866  0.3121  0.1636  0.1133
 6226TIP3    H140169   4.056   5.778  13.836  0.5474 -0.0566 -0.1095
 6226TIP3    H240170   4.206   5.791  13.820  0.5809  0.2880  0.4446
 6227TIP3   OH240171   4.801   1.005  13.766  0.3508  0.5396  0.8394
 6227TIP3    H140172   4.890   1.035  13.748  0.0871  1.0185  0.2904
 6227TIP3    H240173   4.805   0.910  13.756  0.1919  0.7484 -2.1145
 6228TIP3   OH240174   2.154   5.132   1.784  0.1769  0.2057 -0.1526
 6228TIP3    H140175   2.236   5.084   1.774  0.0058 -0.1571  0.1474
 6228TIP3    H240176   2.114   5.094   1.862 -0.9128 -0.5567 -1.0478
 6229TIP3   OH240177   6.075   5.107   2.142  0.4910 -0.1713  0.3233
 6229TIP3    H140178   6.035   5.138   2.061 -0.2244 -1.2035  0.2631
 6229TIP3    H240179   6.054   5.013   2.146  1.6160 -0.4226  1.0560
 6230TIP3   OH240180   3.824   1.987   4.702 -0.1333  0.8528 -0.1542
 6230TIP3    H140181   3.918   1.974   4.698 -0.2889 -0.5137 -0.0052
 6230TIP3    H240182   3.787   1.898   4.700 -1.3830  1.3270  0.4907
 6231TIP3   OH240183   0.278   2.600   0.853  0.2320  0.3582  0.0937
 6231TIP3    H140184   0.308   2.691   0.853 -0.7524  0.7177  1.6648
 6231TIP3    H240185   0.235   2.589   0.938  3.1714 -2.5235  1.4358
 6232TIP3   OH240186   4.856   6.750   0.964  0.0663 -0.3897  0.2422
 6232TIP3    H140187   4.943   6.783   0.939  0.3459 -0.4295  1.1301
 6232TIP3    H240188   4.799   6.826   0.954  0.5427  0.1475  1.3882
 6233TIP3   OH240189   6.639   0.915  12.401  0.0523  0.7719  0.3873
 6233TIP3    H140190   6.676   0.886  12.318 -0.7896  0.2751  0.1732
 6233TIP3    H240191   6.695   0.876  12.468  0.1820  0.4011  0.0610
 6234TIP3   OH240192   2.201   6.386   3.262 -0.4738  0.0368 -0.2456
 6234TIP3    H140193   2.124   6.442   3.259 -2.2930 -2.3507 -1.0626
 6234TIP3    H240194   2.248   6.414   3.341 -1.5542  2.2860 -0.3342
 6235TIP3   OH240195   3.151   2.331   0.288 -0.8633 -0.2852  0.1335
 6235TIP3    H140196   3.195   2.358   0.207  0.2191  0.8754  1.0834
 6235TIP3    H240197   3.185   2.243   0.306  0.0738  0.0788  0.1583
 6236TIP3   OH240198   0.531   1.075   3.081  0.4896  0.0547 -0.0399
 6236TIP3    H140199   0.485   1.015   3.139  2.6462  0.1455  1.8750
 6236TIP3    H240200   0.598   1.022   3.039  1.3045  0.7561  0.3493
 6237TIP3   OH240201   5.170   2.923   3.387  0.0148 -0.2931 -0.4715
 6237TIP3    H140202   5.208   2.914   3.474 -0.3336  1.6476 -0.0676
 6237TIP3    H240203   5.246   2.920   3.328  0.3744 -0.4277 -0.0072
 6238TIP3   OH240204   1.426   0.853  14.129  0.6495  0.2421  0.3122
 6238TIP3    H140205   1.425   0.886  14.219  0.9373 -0.5379  0.6138
 6238TIP3    H240206   1.334   0.834  14.110  0.8338 -2.2781  1.5011
 6239TIP3   OH240207   2.714   6.296  15.262  0.0999  0.8025 -0.6210
 6239TIP3    H140208   2.744   6.255  15.343  0.3575  0.3261 -0.9455
 6239TIP3    H240209   2.777   6.266  15.196  0.4985  2.0157 -0.8057
 6240TIP3   OH240210   3.337   4.729   5.166  0.4423  0.4098 -0.1546
 6240TIP3    H140211   3.277   4.792   5.206 -0.1816 -0.4917  0.3564
 6240TIP3    H240212   3.325   4.742   5.072 -1.2280 -0.3588 -0.0704
 6241TIP3   OH240213   0.843   0.957  14.481 -0.4235  0.2597  0.0076
 6241TIP3    H140214   0.834   1.002  14.565 -0.0153  0.2554  0.0537
 6241TIP3    H240215   0.770   0.895  14.480 -0.4700  0.3046  0.3304
 6242TIP3   OH240216   1.342   0.889  15.900 -0.6075 -0.1422 -0.1577
 6242TIP3    H140217   1.344   0.819  15.964  1.0829  1.1735  1.3344
 6242TIP3    H240218   1.251   0.917  15.897 -0.6795  0.0013  2.0005
 6243TIP3   OH240219   4.098   6.069  16.626  0.0026  0.3400  0.4014
 6243TIP3    H140220   4.086   6.078  16.720 -0.7448 -2.2490  0.6284
 6243TIP3    H240221   4.168   6.004  16.617 -1.2254 -0.8944 -0.7672
 6244TIP3   OH240222   0.199   2.211   3.747  0.1644  0.2134  0.1804
 6244TIP3    H140223   0.165   2.276   3.685 -0.4372 -0.8281 -0.6154
 6244TIP3    H240224   0.292   2.232   3.756  0.2226  0.4885 -0.9470
 6245TIP3   OH240225   6.012   3.978  14.020 -0.0089  0.4258  0.3016
 6245TIP3    H140226   6.052   4.052  13.974  1.3834  0.6074  1.7345
 6245TIP3    H240227   6.018   4.002  14.113 -0.4035 -1.0787  0.7337
 6246TIP3   OH240228   0.484   6.196  12.116 -0.3399  0.5568  0.1822
 6246TIP3    H140229   0.489   6.290  12.098 -1.5953  0.6056  0.0217
 6246TIP3    H240230   0.392   6.181  12.138 -0.7181 -1.0553 -2.1898
 6247TIP3   OH240231   4.580   0.820  11.780  0.2557  0.2486  0.1823
 6247TIP3    H140232   4.627   0.747  11.821 -1.4061  0.2488  2.2449
 6247TIP3    H240233   4.612   0.821  11.690  2.8564 -0.8419  0.9865
 6248TIP3   OH240234   4.299   3.734  15.564  0.9527  0.1532 -0.1942
 6248TIP3    H140235   4.379   3.689  15.538  1.9690 -0.0327  2.8168
 6248TIP3    H240236   4.233   3.665  15.571  1.5933 -0.3827  0.9940
 6249TIP3   OH240237   5.872   3.507   1.217  0.0133 -0.0692  0.0328
 6249TIP3    H140238   5.851   3.420   1.251 -1.4540  0.0685 -0.4578
 6249TIP3    H240239   5.800   3.527   1.157  0.8968  1.0328 -0.6874
 6250TIP3   OH240240   1.608   1.453  11.949  0.2927  0.2464 -0.0739
 6250TIP3    H140241   1.618   1.388  11.880  0.4493 -0.9759  1.0676
 6250TIP3    H240242   1.578   1.403  12.025 -0.7583  1.6947  0.5079
 6251TIP3   OH240243   6.329   2.412   3.921 -0.2142  0.2945  0.2782
 6251TIP3    H140244   6.297   2.463   3.847  0.1816 -1.4361 -1.1765
 6251TIP3    H240245   6.424   2.408   3.908 -0.1186  0.1165  0.9739
 6252TIP3   OH240246   0.012   6.250  14.812  0.5493 -0.5752  0.1621
 6252TIP3    H140247   0.033   6.339  14.784 -0.2371 -0.2871  0.4532
 6252TIP3    H240248  -0.078   6.237  14.784  0.5038 -1.1073  0.5397
 6253TIP3   OH240249   0.151   6.449  16.187  0.0263  0.1892 -0.4041
 6253TIP3    H140250   0.130   6.398  16.109 -1.4349 -0.9964  0.7038
 6253TIP3    H240251   0.134   6.540  16.162  0.5966 -0.0469 -1.7541
 6254TIP3   OH240252   5.067   1.272   0.223 -0.1782 -0.3062  0.2362
 6254TIP3    H140253   5.017   1.209   0.170 -0.4665 -0.5736  0.8207
 6254TIP3    H240254   5.088   1.224   0.303 -0.3890  0.3456  0.6829
 6255TIP3   OH240255   1.956   0.044  14.139  0.0804 -0.3449  0.3166
 6255TIP3    H140256   1.936   0.105  14.210  0.4143  0.5984 -0.3801
 6255TIP3    H240257   1.883   0.053  14.078  1.1255  0.9785 -0.8232
 6256TIP3   OH240258   3.637   5.713  13.172 -0.3950  0.4222  0.3107
 6256TIP3    H140259   3.616   5.719  13.078 -2.3691 -0.5714  0.6376
 6256TIP3    H240260   3.626   5.802  13.205  1.0152  0.9338 -0.4913
 6257TIP3   OH240261   5.461   2.730   0.455  0.0780 -0.2606  0.2816
 6257TIP3    H140262   5.511   2.812   0.457  0.8385 -0.7260  1.5914
 6257TIP3    H240263   5.381   2.750   0.504 -0.9375  0.3886 -1.5375
 6258TIP3   OH240264   1.682   3.094   1.925  0.4313  0.3846 -0.0863
 6258TIP3    H140265   1.753   3.042   1.962  0.9991  0.9674 -0.3339
 6258TIP3    H240266   1.602   3.053   1.958  0.8510 -0.7620 -0.4444
 6259TIP3   OH240267   6.144   1.564   3.182 -0.0314  0.8610  0.3602
 6259TIP3    H140268   6.093   1.484   3.171  2.7530 -0.7522 -2.6360
 6259TIP3    H240269   6.091   1.633   3.142 -1.0325 -0.1863 -0.1488
 6260TIP3   OH240270   4.931   1.025   1.150  0.1562 -0.3677 -0.3867
 6260TIP3    H140271   4.856   1.083   1.145  0.2998 -0.1586 -0.1089
 6260TIP3    H240272   4.895   0.942   1.183  0.4864  0.5553  2.5652
 6261TIP3   OH240273   1.832   0.292  12.322  0.4245  0.6023 -0.7232
 6261TIP3    H140274   1.840   0.387  12.318 -0.3770  0.7744  1.1663
 6261TIP3    H240275   1.913   0.263  12.365 -0.8843  0.7925  2.0227
 6262TIP3   OH240276   4.903   2.935   3.477  0.2324 -0.0991 -0.5210
 6262TIP3    H140277   4.994   2.950   3.453 -0.4511  0.9317 -2.8269
 6262TIP3    H240278   4.869   3.021   3.501 -0.3823 -0.2934 -0.6506
 6263TIP3   OH240279   2.025   3.075  10.458  0.6959 -0.2728 -0.2487
 6263TIP3    H140280   2.045   3.164  10.486 -0.8751  0.2696 -0.6902
 6263TIP3    H240281   2.019   3.081  10.362  0.3553 -0.7888 -0.2653
 6264TIP3   OH240282   6.369   4.649   2.580 -0.7609  0.7868 -0.2515
 6264TIP3    H140283   6.447   4.704   2.569 -1.1551  1.0021 -2.2929
 6264TIP3    H240284   6.368   4.593   2.503 -0.8906 -1.5068  1.3200
 6265TIP3   OH240285   1.342   5.065  11.077 -0.1539 -0.0406 -0.4582
 6265TIP3    H140286   1.393   5.142  11.104 -1.3559  0.9138 -0.8387
 6265TIP3    H240287   1.407   4.995  11.071  0.8405  0.7387  0.6875
 6266TIP3   OH240288   6.313   2.004  16.454  0.7706 -0.7845  0.5197
 6266TIP3    H140289   6.264   2.085  16.449  1.1661 -0.6097 -0.8467
 6266TIP3    H240290   6.392   2.020  16.403  2.2331 -1.0970  2.5507
 6267TIP3   OH240291   4.385   1.959  12.163  0.1651 -0.5600 -0.4302
 6267TIP3    H140292   4.450   1.908  12.210 -0.2732  1.0759  2.1206
 6267TIP3    H240293   4.301   1.925  12.194 -0.1339  1.5162  1.2159
 6268TIP3   OH240294   2.619   6.629   0.371 -0.2633 -0.2573 -0.6838
 6268TIP3    H140295   2.654   6.569   0.437  1.7381  2.0225  0.4952
 6268TIP3    H240296   2.526   6.634   0.389  0.1100 -0.3569  1.4351
 6269TIP3   OH240297   6.164   0.542  16.009 -0.0874  0.1469  0.0602
 6269TIP3    H140298   6.238   0.552  16.070 -0.3055 -1.4464  0.6463
 6269TIP3    H240299   6.179   0.457  15.968 -1.3156  0.0412 -0.2010
 6270TIP3   OH240300   0.812   4.593   5.187  0.0906  0.1865  0.3127
 6270TIP3    H140301   0.808   4.627   5.277  1.5670 -1.3044  0.9970
 6270TIP3    H240302   0.815   4.498   5.198  2.4769  0.0130 -1.1613
 6271TIP3   OH240303   4.733   1.108   6.033 -0.1521  0.1129  0.5126
 6271TIP3    H140304   4.804   1.135   6.092  2.5585 -1.2556 -1.8489
 6271TIP3    H240305   4.740   1.167   5.958 -2.1719  0.5322  0.6138
 6272TIP3   OH240306   0.916   6.005   3.418  0.1532  0.1566  0.0271
 6272TIP3    H140307   0.978   6.040   3.355  1.3474 -0.9467  0.5406
 6272TIP3    H240308   0.917   6.068   3.490  0.4683  0.2956 -0.0963
 6273TIP3   OH240309   6.038   0.897   4.164  0.5158 -0.0101  0.2343
 6273TIP3    H140310   5.952   0.909   4.123  0.1254 -0.6964  0.8249
 6273TIP3    H240311   6.068   0.986   4.182  0.7256  0.3234 -1.5461
 6274TIP3   OH240312   5.931   5.181  15.715  0.2350 -0.6617 -0.6331
 6274TIP3    H140313   5.998   5.189  15.647 -0.0795 -2.0478 -1.1286
 6274TIP3    H240314   5.976   5.141  15.789 -0.3366 -3.0271 -1.4924
 6275TIP3   OH240315   3.304   2.993  12.546 -0.3186 -0.5548  0.6850
 6275TIP3    H140316   3.303   2.907  12.588  2.0138 -0.4415  1.1273
 6275TIP3    H240317   3.346   2.977  12.461 -0.9116 -0.0371  0.2890
 6276TIP3   OH240318   2.896   2.745  11.279 -0.0898  0.2000  0.0761
 6276TIP3    H140319   2.820   2.749  11.338 -0.2733  1.5924 -0.2214
 6276TIP3    H240320   2.872   2.801  11.206  2.6048  3.7700  1.6451
 6277TIP3   OH240321   1.420   0.387  11.599  0.1766 -0.1955 -0.1727
 6277TIP3    H140322   1.501   0.373  11.549 -0.7806  0.4612 -1.9822
 6277TIP3    H240323   1.449   0.392  11.690  2.1027 -0.5197 -0.7241
 6278TIP3   OH240324   1.130   3.032  13.801 -0.1609 -0.1816 -0.2294
 6278TIP3    H140325   1.147   2.982  13.881  0.4587 -0.8774 -0.7859
 6278TIP3    H240326   1.040   3.063  13.811  0.0397  0.0808  0.9172
 6279TIP3   OH240327   3.487   1.514  14.846  0.6243  0.8154 -0.3901
 6279TIP3    H140328   3.499   1.570  14.922  2.9406  0.4081 -0.3754
 6279TIP3    H240329   3.444   1.436  14.879 -0.8895  1.7577 -0.0572
 6280TIP3   OH240330   3.859   3.644   3.506  0.1085 -0.4840  0.0270
 6280TIP3    H140331   3.935   3.699   3.524 -0.4450  0.0676  0.7570
 6280TIP3    H240332   3.793   3.704   3.472  0.0336 -0.9785 -0.7262
 6281TIP3   OH240333   2.323   3.257  12.460  0.2177  0.2106 -0.2304
 6281TIP3    H140334   2.284   3.173  12.436 -0.1577  0.1457  0.5663
 6281TIP3    H240335   2.410   3.255  12.420  0.5403 -0.9273  0.4520
 6282TIP3   OH240336   3.548   3.736  12.152  0.0110 -0.2663  0.3716
 6282TIP3    H140337   3.520   3.807  12.210 -3.2584  0.5003 -1.8781
 6282TIP3    H240338   3.611   3.778  12.092  0.4110 -0.0853  0.9068
 6283TIP3   OH240339   5.448   6.641   2.756  0.1755  0.1433 -0.0021
 6283TIP3    H140340   5.535   6.675   2.734  0.2733  0.4444  0.8010
 6283TIP3    H240341   5.413   6.610   2.673  0.4514  1.3976 -0.6205
 6284TIP3   OH240342   5.398   1.292  11.655  0.3174 -0.9341 -0.3597
 6284TIP3    H140343   5.342   1.275  11.731  1.2521  0.3800  0.6592
 6284TIP3    H240344   5.336   1.320  11.587 -0.3500 -0.0823  0.5621
 6285TIP3   OH240345   0.105   2.357  16.078  0.3320 -0.5213 -0.6994
 6285TIP3    H140346   0.133   2.265  16.075 -0.3128 -0.8149  0.9894
 6285TIP3    H240347   0.176   2.402  16.124 -0.1552 -0.5164  0.0521
 6286TIP3   OH240348   3.914   0.754  16.342  0.1718 -0.6626 -0.3773
 6286TIP3    H140349   3.987   0.806  16.311  0.4817 -1.1541 -0.4909
 6286TIP3    H240350   3.837   0.807  16.325  0.7312  2.4752  4.7324
 6287TIP3   OH240351   6.449   1.975   5.749 -0.6404 -0.2808  0.4573
 6287TIP3    H140352   6.465   2.021   5.832 -0.9792 -1.5248  1.2297
 6287TIP3    H240353   6.392   1.903   5.772  0.5092 -1.5727 -0.5795
 6288TIP3   OH240354   3.228   3.972  12.659  0.1463 -0.1400  0.4058
 6288TIP3    H140355   3.172   3.894  12.666  1.4695 -1.2569 -0.8802
 6288TIP3    H240356   3.314   3.943  12.688  0.4681  1.1008  0.7547
 6289TIP3   OH240357   6.721   6.666   2.112  0.5706 -0.6100  0.7595
 6289TIP3    H140358   6.811   6.633   2.106  1.3837  1.3838  1.0724
 6289TIP3    H240359   6.704   6.703   2.025  0.6021  0.2593  1.1123
 6290TIP3   OH240360   3.492   0.649  11.592 -0.3740 -0.1605  0.5811
 6290TIP3    H140361   3.455   0.571  11.632 -0.5396 -0.8380 -0.8436
 6290TIP3    H240362   3.586   0.642  11.609  0.4768 -3.4281 -3.7557
 6291TIP3   OH240363   3.727   0.414  14.202  0.2825  0.4352  0.5354
 6291TIP3    H140364   3.816   0.449  14.206 -0.1003  1.5026 -0.1580
 6291TIP3    H240365   3.685   0.446  14.282 -0.3572  2.4010 -0.5548
 6292TIP3   OH240366   3.375   4.247   3.321 -0.6199 -0.6863  0.1527
 6292TIP3    H140367   3.340   4.160   3.339  1.4659 -1.6885 -0.3724
 6292TIP3    H240368   3.391   4.248   3.227  1.0616 -0.4267  0.4086
 6293TIP3   OH240369   2.335   5.738   2.788  0.2826 -0.4223  0.5480
 6293TIP3    H140370   2.250   5.783   2.781  1.1432  1.3337  0.8748
 6293TIP3    H240371   2.319   5.669   2.853 -1.0143 -0.4667  0.2223
 6294TIP3   OH240372   3.750   2.127  14.629 -0.4748 -0.2044  0.2032
 6294TIP3    H140373   3.806   2.195  14.591  0.0514 -1.1489 -0.7669
 6294TIP3    H240374   3.691   2.103  14.558 -0.0990 -1.3480  0.2653
 6295TIP3   OH240375   3.584   6.381   5.484 -0.0204 -0.3296 -0.0204
 6295TIP3    H140376   3.492   6.363   5.465 -0.3811  0.0091  1.2967
 6295TIP3    H240377   3.582   6.459   5.539  1.2059  0.9911 -1.7235
 6296TIP3   OH240378   2.012   2.163  14.141  0.0889 -0.2625 -0.1787
 6296TIP3    H140379   2.077   2.232  14.152  0.3838 -0.3637 -1.1890
 6296TIP3    H240380   2.061   2.089  14.104 -0.7929  0.0642 -2.1221
 6297TIP3   OH240381   3.005   2.944   4.275 -0.4954 -0.4735  0.2215
 6297TIP3    H140382   2.983   2.974   4.364  1.1627  0.3638  0.3795
 6297TIP3    H240383   2.961   3.007   4.218 -0.3007 -0.0962  0.4817
 6298TIP3   OH240384   1.626   0.909  14.726 -0.4953 -0.0802 -0.0491
 6298TIP3    H140385   1.626   0.823  14.768 -3.8390  0.2433  0.9518
 6298TIP3    H240386   1.640   0.971  14.798 -1.5824  0.2902 -0.1269
 6299TIP3   OH240387   6.275   1.311   4.995 -0.0185 -0.1263  0.1395
 6299TIP3    H140388   6.218   1.234   4.989  1.5183 -1.3305  0.4291
 6299TIP3    H240389   6.342   1.297   4.928  0.6279  0.6603  0.6016
 6300TIP3   OH240390   4.414   4.906   2.754  0.1447 -0.6536  0.5240
 6300TIP3    H140391   4.384   4.976   2.812  1.9816  0.7084 -0.0574
 6300TIP3    H240392   4.420   4.829   2.810  1.6601  0.5667  2.1583
 6301TIP3   OH240393   3.566   1.703   3.841 -0.1532  0.5083  0.4164
 6301TIP3    H140394   3.476   1.721   3.812  0.2183 -0.4616 -1.5406
 6301TIP3    H240395   3.556   1.655   3.923 -1.4452  0.2932  0.1533
 6302TIP3   OH240396   2.908   6.124   1.735 -0.0203  0.3555 -0.8020
 6302TIP3    H140397   2.952   6.155   1.814 -1.5532  0.7224 -0.0679
 6302TIP3    H240398   2.923   6.193   1.670 -0.6360  1.1223 -0.1502
 6303TIP3   OH240399   2.405   1.877   2.913  0.2115 -0.2808 -0.4289
 6303TIP3    H140400   2.327   1.876   2.970  0.2648 -0.7839 -0.3624
 6303TIP3    H240401   2.458   1.804   2.944  1.1882  0.6650  0.1714
 6304TIP3   OH240402   1.478   3.321  14.778  0.0860 -0.2575  0.1993
 6304TIP3    H140403   1.492   3.350  14.688 -1.1560  0.9770  0.3543
 6304TIP3    H240404   1.396   3.272  14.776 -1.4313  2.0544  1.0228
 6305TIP3   OH240405   1.682   1.132   3.736 -0.3989  0.1052  0.0325
 6305TIP3    H140406   1.649   1.167   3.818 -2.3757  1.3804 -1.2259
 6305TIP3    H240407   1.754   1.191   3.712 -1.4915  1.3441 -0.3637
 6306TIP3   OH240408   5.088   3.751   0.491  0.0438 -0.0695 -0.2903
 6306TIP3    H140409   5.055   3.795   0.413 -1.3654 -0.6762 -0.0571
 6306TIP3    H240410   5.048   3.797   0.564 -0.9642 -1.3036 -0.0280
 6307TIP3   OH240411   5.126   5.129  16.535  0.1874 -0.0332 -0.4516
 6307TIP3    H140412   5.111   5.038  16.509 -0.6006  0.2975 -1.2264
 6307TIP3    H240413   5.219   5.143  16.521  0.0653 -0.3289 -1.6657
 6308TIP3   OH240414   4.190   0.383   3.667 -0.3819  0.1918 -0.1892
 6308TIP3    H140415   4.247   0.404   3.741 -0.7715 -1.0389  0.4833
 6308TIP3    H240416   4.164   0.468   3.632  0.0331  0.7967  0.9142
 6309TIP3   OH240417   3.358   1.778  15.164  0.4128  0.4010 -0.3883
 6309TIP3    H140418   3.322   1.698  15.124  0.6580  0.1895 -0.1935
 6309TIP3    H240419   3.421   1.746  15.229 -0.6347  0.7171  0.8253
 6310TIP3   OH240420   6.776   2.724  12.049  0.4787  0.2699  0.1849
 6310TIP3    H140421   6.695   2.731  12.099 -0.2220  0.3300 -0.9248
 6310TIP3    H240422   6.829   2.798  12.077 -0.8561  1.6616 -0.8370
 6311TIP3   OH240423   1.175   0.364   4.682  0.0068 -0.6503 -0.4326
 6311TIP3    H140424   1.186   0.336   4.592  0.9756 -1.4481 -0.0734
 6311TIP3    H240425   1.100   0.314   4.714  0.3823 -1.2244 -0.4488
 6312TIP3   OH240426   6.719   3.363   2.076 -0.3356  0.0865  0.3073
 6312TIP3    H140427   6.753   3.279   2.046  1.2594  0.3596  1.2368
 6312TIP3    H240428   6.678   3.402   1.998  2.3107  0.1107 -1.1848
 6313TIP3   OH240429   1.657   0.972   4.043  0.3684 -0.0848  0.5179
 6313TIP3    H140430   1.610   0.908   4.097  1.2907 -0.0386  1.3941
 6313TIP3    H240431   1.597   1.047   4.039 -0.8164 -1.0293 -0.6950
 6314TIP3   OH240432   4.102   6.713  11.544  0.3338  0.1828 -0.6777
 6314TIP3    H140433   4.067   6.653  11.478  0.7220 -1.6960  0.7499
 6314TIP3    H240434   4.181   6.670  11.576  0.1547  1.0266  1.0149
 6315TIP3   OH240435   5.933   6.357  11.777  0.2817 -0.1103 -0.3644
 6315TIP3    H140436   5.842   6.387  11.778  0.8246  1.6460 -0.0196
 6315TIP3    H240437   5.928   6.267  11.745 -1.4875  0.2269 -1.1664
 6316TIP3   OH240438   4.172   3.867  14.033  0.1394 -0.4181  0.5175
 6316TIP3    H140439   4.239   3.919  14.079 -0.1968  0.9862 -0.4978
 6316TIP3    H240440   4.123   3.824  14.103  0.4778  0.6038  1.4167
 6317TIP3   OH240441   4.490   3.330   2.765  0.3765 -0.0903 -0.1372
 6317TIP3    H140442   4.424   3.347   2.833  0.6352 -0.8514  0.3159
 6317TIP3    H240443   4.440   3.290   2.693  0.3430 -0.7524  0.2413
 6318TIP3   OH240444   1.308   2.140  14.895 -0.2729  0.5161  0.7196
 6318TIP3    H140445   1.252   2.174  14.965 -1.6512 -2.7842  1.4045
 6318TIP3    H240446   1.394   2.130  14.936 -0.7121 -0.0348  1.5351
 6319TIP3   OH240447   4.534   3.478  10.980 -0.3190  0.4183  0.0216
 6319TIP3    H140448   4.454   3.441  10.942 -0.3901 -0.8735  1.3231
 6319TIP3    H240449   4.603   3.415  10.956 -0.1512  0.2359  0.9568
 6320TIP3   OH240450   5.687   5.291  16.938  0.5005 -0.0332  0.2097
 6320TIP3    H140451   5.630   5.367  16.942  1.1608  0.4370  1.1302
 6320TIP3    H240452   5.771   5.322  16.974  0.5111 -1.4163  1.4987
 6321TIP3   OH240453   1.664   5.210   0.759 -0.4997  0.2149  0.2334
 6321TIP3    H140454   1.582   5.174   0.726 -0.4580  0.4612 -0.1422
 6321TIP3    H240455   1.663   5.189   0.853 -1.4135  1.0020  0.4203
 6322TIP3   OH240456   3.815   2.222   4.965  0.0216  0.1456  0.3479
 6322TIP3    H140457   3.851   2.198   5.050  0.9457 -4.2989 -1.0145
 6322TIP3    H240458   3.892   2.229   4.908 -0.6733  1.4653 -0.4703
 6323TIP3   OH240459   6.694   5.872   1.535 -0.0713  0.3014  0.2846
 6323TIP3    H140460   6.728   5.871   1.624  0.5727  1.2769  0.0560
 6323TIP3    H240461   6.602   5.896   1.545  0.3633  1.9511  0.5870
 6324TIP3   OH240462   5.053   4.103   1.795  0.3727  0.6393  0.6243
 6324TIP3    H140463   4.979   4.060   1.837  1.7277 -0.2534  2.2382
 6324TIP3    H240464   5.014   4.158   1.727 -1.5256 -2.4586 -1.0235
 6325TIP3   OH240465   1.444   3.959   6.622  0.0489  0.5051  0.0954
 6325TIP3    H140466   1.447   4.053   6.635  0.2110  0.2627  2.1683
 6325TIP3    H240467   1.365   3.931   6.669  0.1634 -0.4239 -0.2458
 6326TIP3   OH240468   3.820   2.410   1.342 -0.3964 -0.4944 -0.3241
 6326TIP3    H140469   3.876   2.389   1.267  0.8686 -0.3093  0.5202
 6326TIP3    H240470   3.743   2.451   1.304 -0.7359 -2.2605 -1.6597
 6327TIP3   OH240471   3.356   6.249   5.063  0.9409 -0.1055  1.0866
 6327TIP3    H140472   3.414   6.306   5.012  1.3913  0.4203  2.1498
 6327TIP3    H240473   3.329   6.182   5.001  3.4436 -0.9298  0.7520
 6328TIP3   OH240474   4.382   5.492  13.374  0.1159  0.6231 -0.4246
 6328TIP3    H140475   4.409   5.577  13.339 -1.1387  0.7525 -1.1207
 6328TIP3    H240476   4.389   5.502  13.469 -0.1948  1.5782 -0.4896
 6329TIP3   OH240477   0.989   6.501   1.717  0.4895  0.0246  0.6001
 6329TIP3    H140478   0.929   6.565   1.755 -0.2288  0.3645 -0.9746
 6329TIP3    H240479   1.074   6.544   1.716  0.0056  1.0037 -0.4795
 6330TIP3   OH240480   3.457   2.900   2.678 -0.1545  0.0161 -0.4155
 6330TIP3    H140481   3.447   2.957   2.754 -2.4234 -1.0433  0.1653
 6330TIP3    H240482   3.531   2.843   2.700 -0.3182  0.2048  0.6701
 6331TIP3   OH240483   2.408   1.609  14.602 -0.2553  0.5469  0.3489
 6331TIP3    H140484   2.432   1.624  14.511 -0.4550  1.7223  0.4693
 6331TIP3    H240485   2.428   1.692  14.646  0.6699 -0.2708  1.5596
 6332TIP3   OH240486   5.832   2.172  17.091  0.1454 -0.4375  0.3393
 6332TIP3    H140487   5.828   2.138  17.002  0.0957  1.9344 -0.6377
 6332TIP3    H240488   5.744   2.208  17.106 -0.2385 -1.8863  1.8489
 6333TIP3   OH240489   2.572   3.216  12.387  0.6397 -0.5105  0.3185
 6333TIP3    H140490   2.583   3.220  12.292 -1.6661 -0.5982 -0.0156
 6333TIP3    H240491   2.633   3.282  12.421  2.9024 -1.7954 -1.0248
 6334TIP3   OH240492   0.249   0.796   2.844 -0.4119 -0.6124  0.1929
 6334TIP3    H140493   0.316   0.738   2.880  0.5028  0.4284  0.2379
 6334TIP3    H240494   0.256   0.875   2.897 -1.6445 -0.4617  0.1462
 6335TIP3   OH240495   2.789   1.271   3.512 -0.0915  0.2065 -0.6208
 6335TIP3    H140496   2.710   1.293   3.561 -0.1164 -0.4104 -0.3709
 6335TIP3    H240497   2.764   1.194   3.461  0.6379 -0.6530  0.2643
 6336TIP3   OH240498   0.890   3.570  14.263 -0.1755  0.0374  0.0858
 6336TIP3    H140499   0.973   3.609  14.290 -1.2697  1.1977  2.0549
 6336TIP3    H240500   0.890   3.484  14.305  1.0106 -0.9811 -1.8990
 6337TIP3   OH240501   3.373   1.212   1.525 -0.5630 -0.0339 -0.0731
 6337TIP3    H140502   3.423   1.169   1.595  0.6424 -0.5385 -1.1942
 6337TIP3    H240503   3.432   1.279   1.490 -2.2695  2.3956  1.3796
 6338TIP3   OH240504   3.779   0.307   1.412 -0.4579 -0.4162 -0.5097
 6338TIP3    H140505   3.689   0.278   1.397 -0.1393 -1.1312 -1.1233
 6338TIP3    H240506   3.795   0.290   1.504 -0.1374 -2.7021 -0.9195
 6339TIP3   OH240507   3.166   6.478   6.184 -0.7291  0.7401 -0.0735
 6339TIP3    H140508   3.093   6.451   6.128  0.0891  0.9490 -1.2963
 6339TIP3    H240509   3.158   6.573   6.189 -1.3115  0.6454  0.9185
 6340TIP3   OH240510   1.645   5.394  13.411  0.0085 -0.3327  0.1477
 6340TIP3    H140511   1.690   5.466  13.367  0.2080 -1.5082 -1.6699
 6340TIP3    H240512   1.712   5.356  13.469  0.4292 -0.1367 -0.2002
 6341TIP3   OH240513   5.602   2.725   5.097  0.7386  0.2428  0.3025
 6341TIP3    H140514   5.651   2.784   5.153  0.0591  0.0102  1.1750
 6341TIP3    H240515   5.559   2.782   5.033 -0.6877  0.8535  1.7170
 6342TIP3   OH240516   2.619   3.562  16.713 -0.2452 -0.1855  0.0288
 6342TIP3    H140517   2.678   3.634  16.736  0.0061 -0.3291 -0.1591
 6342TIP3    H240518   2.585   3.584  16.627 -0.4830 -0.0943  0.1451
 6343TIP3   OH240519   3.882   6.426  11.522 -0.0795 -0.4296 -0.6847
 6343TIP3    H140520   3.911   6.479  11.447  1.1165  0.0336  0.0812
 6343TIP3    H240521   3.948   6.357  11.529 -0.0894 -0.3661  0.0548
 6344TIP3   OH240522   5.543   6.103  15.483 -0.0094  0.5477 -0.0394
 6344TIP3    H140523   5.544   6.021  15.533  0.5569  0.3699 -0.3382
 6344TIP3    H240524   5.459   6.101  15.437  0.4370 -0.3630 -0.8553
 6345TIP3   OH240525   1.754   0.058  12.677  0.6579 -0.0127  0.2845
 6345TIP3    H140526   1.781  -0.026  12.713 -0.8725 -0.6945 -0.0679
 6345TIP3    H240527   1.714   0.104  12.751  3.1205  1.2307  0.9523
 6346TIP3   OH240528   0.202   6.106   2.708  0.5959  0.2945  0.1033
 6346TIP3    H140529   0.197   6.202   2.716  0.1229  0.1312  2.1580
 6346TIP3    H240530   0.118   6.074   2.742  1.7751 -0.9446  2.0087
 6347TIP3   OH240531   6.579   0.359  14.766  0.1685 -0.2038 -0.3153
 6347TIP3    H140532   6.483   0.363  14.759 -0.0980 -1.1138  2.0265
 6347TIP3    H240533   6.596   0.286  14.825  2.2582  0.8453  0.4608
 6348TIP3   OH240534   3.975   5.573  12.185  0.2595 -0.3971 -0.8400
 6348TIP3    H140535   3.883   5.598  12.180 -0.1893 -1.5233  0.8900
 6348TIP3    H240536   4.006   5.615  12.265  0.8968 -1.0756 -0.7246
 6349TIP3   OH240537   0.750   5.142  12.596  0.0744 -0.2066  0.6017
 6349TIP3    H140538   0.684   5.123  12.530 -0.4370  1.0109  0.7415
 6349TIP3    H240539   0.832   5.145  12.547 -0.2723  0.4691  0.0490
 6350TIP3   OH240540   0.879   4.608  10.542  0.1353  0.3180 -0.5338
 6350TIP3    H140541   0.935   4.555  10.485  0.7868  3.0658 -2.6260
 6350TIP3    H240542   0.852   4.682  10.488 -2.7689  0.8999  1.4767
 6351TIP3   OH240543   0.342   2.773   5.467 -0.1590  0.6148  0.1563
 6351TIP3    H140544   0.329   2.865   5.491 -1.8133  0.5196 -0.2576
 6351TIP3    H240545   0.256   2.744   5.438  0.6840 -0.6359 -1.2174
 6352TIP3   OH240546   5.084   3.151  12.674  0.1600  0.7113 -0.1406
 6352TIP3    H140547   5.014   3.155  12.739  0.3691  0.0909  0.1273
 6352TIP3    H240548   5.162   3.177  12.722 -0.2007  3.6677 -0.9639
 6353TIP3   OH240549   1.215   4.828  11.924 -1.4552 -0.0721  0.6066
 6353TIP3    H140550   1.166   4.755  11.962  0.3137 -0.9261  1.3497
 6353TIP3    H240551   1.286   4.787  11.876 -1.1824  1.1482 -0.0668
 6354TIP3   OH240552   3.445   0.194  13.286 -0.0148 -0.5169 -0.6898
 6354TIP3    H140553   3.412   0.114  13.326 -1.6618  0.0541 -0.8438
 6354TIP3    H240554   3.388   0.264  13.320  1.6272  0.6684 -0.2420
 6355TIP3   OH240555   6.640   5.596   3.405  0.1779 -0.4714 -0.5563
 6355TIP3    H140556   6.684   5.596   3.320  1.1151 -1.1160 -0.0834
 6355TIP3    H240557   6.628   5.504   3.427  0.9805 -0.3434  0.5273
 6356TIP3   OH240558   3.364   6.757  14.636 -0.0055  0.3595  0.2033
 6356TIP3    H140559   3.346   6.800  14.719  1.0688  0.6677  0.2867
 6356TIP3    H240560   3.410   6.822  14.584  1.6888 -0.6551  0.3448
 6357TIP3   OH240561   4.560   5.271  15.444 -0.4265 -0.4193  0.2437
 6357TIP3    H140562   4.642   5.271  15.394 -0.5895  0.2700 -0.0250
 6357TIP3    H240563   4.503   5.333  15.399 -1.1181 -0.9135  0.4082
 6358TIP3   OH240564   2.208   4.631  11.436  0.2622 -0.0190  0.0183
 6358TIP3    H140565   2.183   4.684  11.512  0.0946  0.4319 -0.3436
 6358TIP3    H240566   2.139   4.565  11.429 -0.6141  0.9428 -0.7078
 6359TIP3   OH240567   2.943   1.742  16.050 -0.3028 -0.7314 -0.6452
 6359TIP3    H140568   2.886   1.702  15.985  1.0117 -0.7632 -1.8248
 6359TIP3    H240569   2.903   1.827  16.068 -1.6326 -1.4216 -0.1449
 6360TIP3   OH240570   2.654   5.896  14.053 -0.1415  0.1017  0.3826
 6360TIP3    H140571   2.587   5.856  14.108 -0.2873  0.9074  0.8078
 6360TIP3    H240572   2.612   5.911  13.968  0.1998 -1.5081 -0.0981
 6361TIP3   OH240573   2.830   1.497   1.956  0.4178 -0.0627 -0.4568
 6361TIP3    H140574   2.771   1.490   1.881 -0.4732  2.3346 -0.0595
 6361TIP3    H240575   2.783   1.455   2.028  0.3823 -0.5071 -0.7315
 6362TIP3   OH240576   4.739   1.116  14.020  0.0901 -0.1936  0.3327
 6362TIP3    H140577   4.827   1.151  14.006 -0.7203  1.0795 -2.1720
 6362TIP3    H240578   4.716   1.075  13.936 -1.0606 -2.1010  1.5028
 6363TIP3   OH240579   4.850   3.560   2.830  0.0917  0.1131 -0.1146
 6363TIP3    H140580   4.818   3.512   2.907  1.1855 -1.4561 -0.5836
 6363TIP3    H240581   4.770   3.588   2.785 -0.5630  0.4999  1.2356
 6364TIP3   OH240582   0.349   4.740   0.638  0.0579  0.1613 -0.5375
 6364TIP3    H140583   0.265   4.723   0.595 -0.1976 -3.8860  1.1409
 6364TIP3    H240584   0.413   4.690   0.589  1.0633  1.1730 -0.3049
 6365TIP3   OH240585   4.483   6.038   3.168 -0.1351  0.2101 -0.3224
 6365TIP3    H140586   4.514   6.098   3.100  1.8771 -0.0717  0.2964
 6365TIP3    H240587   4.522   5.953   3.145 -1.1270 -0.3702  0.0623
 6366TIP3   OH240588   5.501   4.453   6.099 -0.0474 -0.0753 -0.4533
 6366TIP3    H140589   5.410   4.466   6.125 -0.6346 -2.4753 -1.0757
 6366TIP3    H240590   5.502   4.472   6.005  0.6881  2.3761 -0.0063
 6367TIP3   OH240591   6.047   0.507  11.570  0.4430  0.2642  0.2568
 6367TIP3    H140592   6.054   0.575  11.637  1.6460  0.1891  0.2285
 6367TIP3    H240593   6.129   0.457  11.577 -0.1101 -0.7367 -0.2009
 6368TIP3   OH240594   4.811   2.093  15.800  0.0286  0.3074 -0.4181
 6368TIP3    H140595   4.758   2.140  15.864 -0.7530 -1.0545 -0.0132
 6368TIP3    H240596   4.884   2.057  15.851 -0.0337  0.0895 -0.4801
 6369TIP3   OH240597   0.647   1.765  15.519  0.2586 -0.1354  0.4522
 6369TIP3    H140598   0.630   1.858  15.507 -1.4693 -0.3086  1.2242
 6369TIP3    H240599   0.571   1.721  15.482  1.8245 -1.3794 -1.4879
 6370TIP3   OH240600   4.575   0.205   1.162 -0.0312 -0.2309 -0.3295
 6370TIP3    H140601   4.659   0.250   1.167 -0.2483  0.2779 -0.9711
 6370TIP3    H240602   4.593   0.115   1.187  0.0098  0.6269  3.2517
 6371TIP3   OH240603   4.316   0.045  11.470 -0.2917 -0.2732  0.0999
 6371TIP3    H140604   4.228   0.047  11.432 -0.2284 -1.9473 -0.2353
 6371TIP3    H240605   4.318  -0.035  11.522  0.4888  0.6363  1.5519
 6372TIP3   OH240606   3.743   1.391  13.612 -0.5732 -0.1977  0.6441
 6372TIP3    H140607   3.760   1.305  13.574  3.4621  1.6729 -2.5524
 6372TIP3    H240608   3.690   1.436  13.546 -0.2563  0.6231  0.9294
 6373TIP3   OH240609   6.291   0.443  13.532  0.1594 -0.6920 -0.1128
 6373TIP3    H140610   6.342   0.502  13.589 -1.8058  0.3205  0.6891
 6373TIP3    H240611   6.278   0.365  13.586  0.1010 -0.5974  0.0101
 6374TIP3   OH240612   5.393   3.907  15.977 -0.3147 -0.1230  0.3267
 6374TIP3    H140613   5.462   3.933  15.917  0.5888  0.4868  1.5827
 6374TIP3    H240614   5.371   3.817  15.951 -0.1541  0.2256 -1.0625
 6375TIP3   OH240615   1.861   5.833   2.171 -0.1568 -0.4111  0.3964
 6375TIP3    H140616   1.891   5.877   2.251 -4.5914 -0.3697  2.3394
 6375TIP3    H240617   1.817   5.754   2.202  2.3136 -3.2559 -2.5921
 6376TIP3   OH240618   2.750   1.737   2.224 -0.3082  0.1711 -0.1253
 6376TIP3    H140619   2.697   1.752   2.145 -0.9549 -1.3219 -0.0088
 6376TIP3    H240620   2.831   1.785   2.208 -1.2207  1.5592 -0.8149
 6377TIP3   OH240621   6.380   3.310   5.069 -0.0590  0.1496  0.3731
 6377TIP3    H140622   6.342   3.224   5.054  0.5698 -0.2004  0.7637
 6377TIP3    H240623   6.470   3.303   5.037 -0.0009  0.6543  0.4203
 6378TIP3   OH240624   4.153   5.093  13.241  0.2014 -0.2680 -0.2172
 6378TIP3    H140625   4.164   5.185  13.217  2.2862 -0.4271 -0.0267
 6378TIP3    H240626   4.061   5.087  13.270  0.6551  2.3508  2.2697
 6379TIP3   OH240627   2.429   5.327   5.685 -0.4537 -0.1213  0.0719
 6379TIP3    H140628   2.385   5.393   5.739  0.2759  0.6935 -0.3050
 6379TIP3    H240629   2.522   5.336   5.706 -0.2165 -0.1804 -0.8670
 6380TIP3   OH240630   4.936   4.306  12.810  0.2503 -0.4331 -0.1471
 6380TIP3    H140631   4.905   4.380  12.758  1.3790  0.2844  0.1605
 6380TIP3    H240632   5.012   4.273  12.761 -0.3910 -1.5666 -0.4161
 6381TIP3   OH240633   2.793   6.000   6.246  0.2695  0.0320  0.8105
 6381TIP3    H140634   2.801   5.905   6.256  0.2856 -0.0900 -0.2538
 6381TIP3    H240635   2.882   6.033   6.259  0.6831 -0.3210 -0.9281
 6382TIP3   OH240636   0.943   5.831  12.710  0.4558  0.0582  0.2654
 6382TIP3    H140637   0.934   5.803  12.619 -0.8589 -0.8358  0.6535
 6382TIP3    H240638   1.006   5.771  12.748 -0.2195 -0.5970  0.3594
 6383TIP3   OH240639   1.945   3.716   1.143  0.6273 -0.2209  0.1679
 6383TIP3    H140640   1.940   3.627   1.178 -2.1574 -0.5693 -0.8699
 6383TIP3    H240641   1.886   3.715   1.067  1.6034  2.1616 -0.7152
 6384TIP3   OH240642   5.307   0.551   2.374 -0.4670 -0.6431  0.1839
 6384TIP3    H140643   5.234   0.612   2.375 -0.7042 -0.8974 -0.6756
 6384TIP3    H240644   5.278   0.478   2.429  0.4865  0.7172  2.6507
 6385TIP3   OH240645   0.543   1.087  16.125 -0.0822  0.1212  0.5197
 6385TIP3    H140646   0.612   1.140  16.165 -0.6579  0.2529  1.3475
 6385TIP3    H240647   0.570   0.996  16.143  0.0426  0.1665  0.5636
 6386TIP3   OH240648   5.386   5.588   4.615  0.1118  0.2187  0.0382
 6386TIP3    H140649   5.442   5.665   4.608 -0.9903  1.3073  2.3535
 6386TIP3    H240650   5.336   5.601   4.695 -0.1421 -2.9266  0.5318
 6387TIP3   OH240651   5.349   0.978  15.388  0.5277 -0.6181  0.0226
 6387TIP3    H140652   5.314   1.040  15.452  1.4479  0.7554 -0.7512
 6387TIP3    H240653   5.444   0.979  15.403  0.5459 -2.1027  0.1935
 6388TIP3   OH240654   5.293   5.911   1.926 -0.0353  0.2038  0.0256
 6388TIP3    H140655   5.203   5.895   1.898 -0.1781  0.4647  0.3212
 6388TIP3    H240656   5.304   6.005   1.918  0.9156 -0.0392 -2.0418
 6389TIP3   OH240657   3.591   3.146  15.799 -0.2212 -0.0076 -0.9057
 6389TIP3    H140658   3.517   3.206  15.797 -0.6233 -0.5105 -2.1359
 6389TIP3    H240659   3.601   3.122  15.891  0.1840  2.1994 -0.3125
 6390TIP3   OH240660   5.992   6.753   5.838  0.5489  0.2473 -0.6229
 6390TIP3    H140661   6.019   6.828   5.785  0.2398  1.0375  0.3128
 6390TIP3    H240662   6.011   6.779   5.928 -1.6270  0.1129 -0.0656
 6391TIP3   OH240663   1.006   2.908   5.439 -0.5491  0.2958 -0.1110
 6391TIP3    H140664   1.003   2.852   5.517  0.5315  0.4620  0.0669
 6391TIP3    H240665   1.043   2.990   5.471  2.0113 -0.3395 -1.1619
 6392TIP3   OH240666   2.551   6.088  12.308 -0.0325 -0.5825 -0.5790
 6392TIP3    H140667   2.479   6.084  12.245  0.1714  1.7401 -1.0768
 6392TIP3    H240668   2.528   6.026  12.377 -1.7557 -0.9718 -1.4755
 6393TIP3   OH240669   2.367   1.037  13.907  0.3968  0.0329  0.0031
 6393TIP3    H140670   2.364   1.112  13.848  2.1945 -0.3504 -0.6346
 6393TIP3    H240671   2.457   1.006  13.902  0.1218 -1.1379  1.5675
 6394TIP3   OH240672   3.300   0.979  13.013  0.3030 -0.0178 -0.1011
 6394TIP3    H140673   3.295   0.884  13.025  0.4339  0.0178  0.2433
 6394TIP3    H240674   3.387   1.003  13.044 -0.1867  0.3899  1.0369
 6395TIP3   OH240675   0.555   1.008  12.263  0.1643 -0.2505 -0.2810
 6395TIP3    H140676   0.622   1.077  12.268 -1.3020  1.1622  1.1710
 6395TIP3    H240677   0.488   1.045  12.205  0.8511 -1.9237 -2.2676
 6396TIP3   OH240678   2.407   0.531   3.111 -0.6813  0.4598  0.1231
 6396TIP3    H140679   2.314   0.546   3.099 -1.0424  0.6675  2.5762
 6396TIP3    H240680   2.447   0.558   3.029 -2.7147  0.9323 -0.7661
 6397TIP3   OH240681   4.494   4.152  16.347 -0.4165 -0.0095 -0.2355
 6397TIP3    H140682   4.468   4.083  16.407  0.7697  0.0430  0.3611
 6397TIP3    H240683   4.500   4.231  16.402  2.2537 -0.2651 -0.0013
 6398TIP3   OH240684   4.039   2.964  11.517 -0.0800 -0.1200 -0.5798
 6398TIP3    H140685   4.048   2.868  11.515 -0.1351 -0.1551 -4.0226
 6398TIP3    H240686   3.946   2.980  11.529  0.1871 -0.3390  2.6611
 6399TIP3   OH240687   1.678   0.190   3.258 -0.4184 -0.3353 -0.1956
 6399TIP3    H140688   1.598   0.200   3.309 -0.1180  0.3183  0.1614
 6399TIP3    H240689   1.651   0.145   3.178 -0.8629 -1.5237  0.6083
 6400TIP3   OH240690   2.707   2.389   4.435 -0.2958  0.0877 -0.0835
 6400TIP3    H140691   2.742   2.300   4.441 -0.1764  0.1186 -0.3148
 6400TIP3    H240692   2.735   2.431   4.517 -1.6705 -0.5468  0.7487
 6401TIP3   OH240693   1.895   4.633  14.635 -0.0257 -0.6257  0.5039
 6401TIP3    H140694   1.950   4.697  14.591 -0.7015 -0.0232  0.5151
 6401TIP3    H240695   1.933   4.548  14.611 -0.9632 -0.3866 -2.1042
 6402TIP3   OH240696   4.645   1.158   1.849  0.4553  0.3103  0.2033
 6402TIP3    H140697   4.713   1.112   1.799  0.4336  1.7149 -1.1625
 6402TIP3    H240698   4.578   1.091   1.866  0.6348 -0.2842 -1.3338
 6403TIP3   OH240699   3.864   5.290  11.848  0.3898 -0.2014  0.0173
 6403TIP3    H140700   3.907   5.239  11.780 -0.0538 -0.5795  0.0222
 6403TIP3    H240701   3.906   5.376  11.843  0.7507 -0.3959 -0.3538
 6404TIP3   OH240702   4.180   6.531   2.470 -0.1105 -0.0822 -0.5621
 6404TIP3    H140703   4.224   6.591   2.410  2.3451 -0.4192  0.7527
 6404TIP3    H240704   4.087   6.541   2.451  0.4304  1.6050 -2.6903
 6405TIP3   OH240705   2.945   4.575   1.640 -0.2685  0.1325  0.4040
 6405TIP3    H140706   2.864   4.526   1.654  0.2007 -0.4386  1.2037
 6405TIP3    H240707   3.015   4.510   1.650  0.3630  0.9350  1.3924
 6406TIP3   OH240708   0.237   2.553   5.889 -0.0642 -0.0492 -0.2274
 6406TIP3    H140709   0.278   2.588   5.968  0.8409  0.3058 -0.8321
 6406TIP3    H240710   0.203   2.630   5.844  1.1542 -0.0148 -1.1310
 6407TIP3   OH240711   0.097   1.090  12.496  0.2678  0.1340  0.1413
 6407TIP3    H140712   0.029   1.136  12.447 -0.5365 -1.3564 -0.1993
 6407TIP3    H240713   0.151   1.160  12.533  0.5054  1.3202 -2.2686
 6408TIP3   OH240714   5.370   1.800   5.123  0.1413  0.3270 -0.0961
 6408TIP3    H140715   5.364   1.812   5.218 -0.7342  0.5261 -0.1734
 6408TIP3    H240716   5.434   1.729   5.113  1.4320  1.3294  0.5725
 6409TIP3   OH240717   3.768   5.718   1.530  0.0136  0.4724  0.7643
 6409TIP3    H140718   3.861   5.743   1.535  0.3740 -0.9798  4.8054
 6409TIP3    H240719   3.742   5.703   1.621 -3.2175 -2.6742 -0.4339
 6410TIP3   OH240720   2.343   1.218   2.233 -1.0634  0.1258 -0.1331
 6410TIP3    H140721   2.432   1.191   2.257 -0.2936  1.2296 -1.6091
 6410TIP3    H240722   2.308   1.144   2.183 -0.8460 -0.1601  0.1354
 6411TIP3   OH240723   5.526   6.730  16.228 -0.2530  0.4614  0.4911
 6411TIP3    H140724   5.528   6.638  16.254 -1.3852  0.8008  1.8783
 6411TIP3    H240725   5.487   6.729  16.141 -1.3827 -0.2846  0.9895
 6412TIP3   OH240726   3.461   2.369  16.606 -0.6647 -0.3526  0.0846
 6412TIP3    H140727   3.386   2.351  16.662 -0.5761 -0.3319  0.2105
 6412TIP3    H240728   3.448   2.314  16.529 -0.8350 -0.3110  0.0820
 6413TIP3   OH240729   4.071   4.002  15.268  0.6093 -0.3327 -0.6175
 6413TIP3    H140730   4.044   4.094  15.274 -0.3469 -0.6675  0.6258
 6413TIP3    H240731   4.103   3.992  15.179  1.0013  1.2840 -0.6881
 6414TIP3   OH240732   3.807   2.663  15.471  0.0384  0.4488  0.4474
 6414TIP3    H140733   3.720   2.703  15.463 -0.1791 -0.1868 -0.4147
 6414TIP3    H240734   3.791   2.578  15.511  0.3225  0.5258  0.7286
 6415TIP3   OH240735   1.317   0.571  12.024 -0.3263 -0.0912 -0.0077
 6415TIP3    H140736   1.394   0.617  12.059 -0.3776 -0.1668  0.2083
 6415TIP3    H240737   1.249   0.586  12.089 -1.3938  2.4940 -1.5901
 6416TIP3   OH240738   2.435   4.314  16.941 -0.2623 -0.1835  0.4944
 6416TIP3    H140739   2.366   4.364  16.985 -0.4539 -1.0386  1.1797
 6416TIP3    H240740   2.448   4.237  16.995  1.5998  0.1885  0.6675
 6417TIP3   OH240741   2.253   0.125  15.236  0.2289 -0.1090  0.0189
 6417TIP3    H140742   2.342   0.105  15.266 -0.0574 -1.1902  0.1554
 6417TIP3    H240743   2.265   0.158  15.147  0.9428  1.6762  0.7069
 6418TIP3   OH240744   4.736   6.384   3.319  0.0444  0.0161 -0.0940
 6418TIP3    H140745   4.783   6.399   3.237  1.5752 -0.7616  0.5976
 6418TIP3    H240746   4.653   6.345   3.292  1.2623 -1.9785 -1.2515
 6419TIP3   OH240747   1.697   1.365  13.803  0.0387 -0.1988 -0.5284
 6419TIP3    H140748   1.738   1.312  13.872  1.0348  1.4224  0.1764
 6419TIP3    H240749   1.759   1.361  13.730  0.0260 -0.1824 -0.5401
 6420TIP3   OH240750   0.845   2.425  11.171  0.3953 -0.3475  0.1226
 6420TIP3    H140751   0.818   2.514  11.195  2.2804  0.3090  0.0310
 6420TIP3    H240752   0.787   2.400  11.100 -1.6582 -0.1139  1.6414
 6421TIP3   OH240753   3.828   5.329  11.485 -0.1971 -0.3831 -0.2029
 6421TIP3    H140754   3.767   5.310  11.556 -1.0702  2.0354 -0.2214
 6421TIP3    H240755   3.791   5.286  11.408  0.3909 -2.4344  0.5798
 6422TIP3   OH240756   5.264   2.498  16.751  0.0791  0.2138  0.2638
 6422TIP3    H140757   5.237   2.590  16.759 -2.4763 -0.2923 -1.2295
 6422TIP3    H240758   5.324   2.498  16.676  1.7127  0.8891  1.5126
 6423TIP3   OH240759   1.977   5.759   4.481  0.0944 -0.1687 -0.3975
 6423TIP3    H140760   1.932   5.695   4.426  2.5843 -1.6309 -0.8516
 6423TIP3    H240761   1.975   5.840   4.430 -0.5388 -0.6227 -1.1170
 6424TIP3   OH240762   3.077   5.362   2.432 -0.2179  0.4073  0.0233
 6424TIP3    H140763   3.053   5.405   2.349  3.7178 -0.5436 -1.8763
 6424TIP3    H240764   3.126   5.429   2.480 -0.0200  0.0997  0.2544
 6425TIP3   OH240765   3.401   2.659  15.133 -0.7192  0.3876  0.1420
 6425TIP3    H140766   3.316   2.698  15.157 -0.5022 -0.0454  1.7743
 6425TIP3    H240767   3.466   2.720  15.169 -0.3505 -0.0107  0.1494
 6426TIP3   OH240768   2.346   1.062  12.020  0.1768  0.2660 -0.3606
 6426TIP3    H140769   2.376   1.152  12.036  0.4271  0.2037 -0.4738
 6426TIP3    H240770   2.324   1.029  12.107  2.2159 -0.3093 -0.0050
 6427TIP3   OH240771   0.883   0.095  15.991 -0.1129 -0.0018 -0.6530
 6427TIP3    H140772   0.881   0.190  15.992  1.6710  0.1044  2.2166
 6427TIP3    H240773   0.956   0.074  15.933 -0.1332  0.3879 -0.8227
 6428TIP3   OH240774   3.681   0.786  13.920 -0.3237  0.5611  0.1002
 6428TIP3    H140775   3.734   0.712  13.892 -1.1177 -0.6636  1.6561
 6428TIP3    H240776   3.743   0.846  13.962 -0.1266 -0.8938  1.9917
 6429TIP3   OH240777   3.468   5.012   2.808  0.1459 -0.0051 -0.1972
 6429TIP3    H140778   3.408   4.938   2.797 -1.3956  1.1140  0.2527
 6429TIP3    H240779   3.522   4.988   2.883  0.1576 -0.9712 -0.4979
 6430TIP3   OH240780   6.739   4.848  11.059 -0.1637  0.0426  0.0850
 6430TIP3    H140781   6.645   4.864  11.056  0.0378  1.6080  1.0706
 6430TIP3    H240782   6.772   4.881  10.975 -0.4709 -0.5568 -0.2848
 6431TIP3   OH240783   3.475   2.267  14.863  0.2585  0.4477 -0.0625
 6431TIP3    H140784   3.457   2.344  14.916 -1.3119  0.4953 -0.6304
 6431TIP3    H240785   3.453   2.193  14.920 -0.6803  0.4850 -0.3589
 6432TIP3   OH240786   6.835   5.506   4.256 -0.4665 -0.3665 -0.2961
 6432TIP3    H140787   6.802   5.442   4.193 -0.9711  0.2226 -0.6352
 6432TIP3    H240788   6.841   5.587   4.207 -0.7710  0.0791  0.3974
 6433TIP3   OH240789   1.983   0.512   4.421  0.0812  0.4798 -1.0425
 6433TIP3    H140790   2.022   0.453   4.485 -0.5385 -1.6248 -2.5096
 6433TIP3    H240791   1.893   0.523   4.450 -0.5228 -1.3895 -2.1126
 6434TIP3   OH240792   5.446   1.260   2.168 -0.1695 -0.2998 -0.2408
 6434TIP3    H140793   5.377   1.201   2.138 -0.2675 -1.1953  1.6468
 6434TIP3    H240794   5.418   1.346   2.138 -1.3519 -0.8441 -0.7826
 6435TIP3   OH240795   5.398   4.161  10.755  0.5082  0.4875 -0.5676
 6435TIP3    H140796   5.307   4.137  10.734  0.7501 -0.5099 -0.5379
 6435TIP3    H240797   5.393   4.198  10.843 -0.1847  2.5935 -1.4234
 6436TIP3   OH240798   4.434   1.137   2.267  0.0583 -0.4345 -0.4855
 6436TIP3    H140799   4.458   1.209   2.325  1.2990  0.6186 -2.2054
 6436TIP3    H240800   4.456   1.058   2.316  1.7700  0.4236  0.2072
 6437TIP3   OH240801   0.822   2.737  14.989 -0.4687  0.5229  0.1466
 6437TIP3    H140802   0.817   2.832  14.998 -0.5581  0.6354 -1.0083
 6437TIP3    H240803   0.846   2.722  14.897  0.4126 -0.5485  0.5186
 6438TIP3   OH240804   4.861   4.341   1.135 -0.0766  0.4486 -1.0321
 6438TIP3    H140805   4.812   4.318   1.056  0.2112 -1.3453 -0.7285
 6438TIP3    H240806   4.919   4.267   1.150 -0.9469  0.1709  1.5200
 6439TIP3   OH240807   0.539   4.580   4.065  0.3575  0.5643 -0.2395
 6439TIP3    H140808   0.458   4.604   4.020  1.3611  0.5670 -2.1902
 6439TIP3    H240809   0.580   4.664   4.086 -0.3178  0.5674  1.1279
 6440TIP3   OH240810   5.829   0.514   2.307 -0.0735  0.1631  0.6168
 6440TIP3    H140811   5.784   0.517   2.391  3.3147  0.9967  2.6073
 6440TIP3    H240812   5.892   0.442   2.315  0.0803  0.0144 -1.3597
 6441TIP3   OH240813   0.762   2.026  11.771  0.2233  0.0527  0.2161
 6441TIP3    H140814   0.714   2.096  11.727  0.1237  1.0036  1.7700
 6441TIP3    H240815   0.736   1.946  11.725 -1.2908  0.7842 -0.2532
 6442TIP3   OH240816   3.684   0.849   0.981  0.1256  0.5473  0.6874
 6442TIP3    H140817   3.589   0.856   0.993  0.0730  1.8393 -0.3124
 6442TIP3    H240818   3.708   0.928   0.933  1.4747 -0.5518 -0.5219
 6443TIP3   OH240819   2.475   6.244  12.788 -0.4979  0.3784  0.1969
 6443TIP3    H140820   2.533   6.310  12.825 -0.2584 -0.0738  0.6343
 6443TIP3    H240821   2.387   6.284  12.795 -0.3592  0.6435  0.4729
 6444TIP3   OH240822   4.083   0.222   4.648 -0.5886  0.4669 -0.4349
 6444TIP3    H140823   4.065   0.206   4.741 -0.5466  0.5778 -0.4067
 6444TIP3    H240824   4.154   0.287   4.649 -0.5096  0.3828 -0.5441
 6445TIP3   OH240825   1.739   2.283  16.029  0.2467  0.4219  0.8034
 6445TIP3    H140826   1.778   2.364  16.060  0.9947  0.1108  0.6989
 6445TIP3    H240827   1.647   2.304  16.014  0.8596  1.9027 -1.4223
 6446TIP3   OH240828   2.839   4.847   1.209 -0.6114  0.4704 -0.5679
 6446TIP3    H140829   2.863   4.859   1.301  0.5016  0.7969 -0.8815
 6446TIP3    H240830   2.867   4.758   1.188 -2.3682 -0.2231 -0.1732
 6447TIP3   OH240831   0.115   4.977  16.187 -0.4140 -0.0372  0.2131
 6447TIP3    H140832   0.072   4.899  16.152 -1.1244 -0.8588  2.6926
 6447TIP3    H240833   0.111   4.966  16.282  1.1782  2.1311  0.6143
 6448TIP3   OH240834   5.687   2.882  11.523 -0.3864  0.3837  0.1228
 6448TIP3    H140835   5.671   2.838  11.440 -1.5888  0.2533  0.4100
 6448TIP3    H240836   5.652   2.823  11.590  2.3030 -0.4366  0.9319
 6449TIP3   OH240837   0.022   3.513  15.992 -0.0901 -0.4051 -0.3552
 6449TIP3    H140838   0.115   3.497  16.012 -0.0664 -1.7796 -1.3756
 6449TIP3    H240839   0.024   3.583  15.927 -0.0278  2.1758  2.2409
 6450TIP3   OH240840   0.932   2.722   2.412 -0.1300  0.0401 -0.1075
 6450TIP3    H140841   0.859   2.661   2.406 -0.1067  0.0023 -0.0068
 6450TIP3    H240842   1.009   2.670   2.386 -0.0168 -0.1456  0.5953
 6451TIP3   OH240843   6.457   3.943  12.085  0.5775 -1.0683  0.1625
 6451TIP3    H140844   6.453   3.877  12.015  1.3013 -1.4263  0.4437
 6451TIP3    H240845   6.507   3.900  12.155 -1.4475 -1.3082  1.5588
 6452TIP3   OH240846   6.457   0.232  14.214 -0.1744  0.2334 -0.2047
 6452TIP3    H140847   6.432   0.174  14.142  0.4650 -0.6654  0.2751
 6452TIP3    H240848   6.534   0.190  14.253 -0.6197  0.6090  1.1267
 6453TIP3   OH240849   6.843   3.033  11.900  0.5254  0.0899  0.1330
 6453TIP3    H140850   6.917   3.007  11.846 -1.3060 -2.0341 -1.5602
 6453TIP3    H240851   6.868   3.009  11.989  2.7198  1.5757 -0.0028
 6454TIP3   OH240852   5.819   5.428  16.620 -0.4690  0.2733 -0.4667
 6454TIP3    H140853   5.893   5.380  16.657 -0.1805  1.6552  0.8406
 6454TIP3    H240854   5.778   5.367  16.559 -0.0014 -1.5561  0.9842
 6455TIP3   OH240855   0.479   5.546  13.994 -0.0229  0.2418 -0.5988
 6455TIP3    H140856   0.458   5.623  14.047  0.3545 -0.1136  0.0790
 6455TIP3    H240857   0.423   5.555  13.916 -1.7287  0.0047  0.5267
 6456TIP3   OH240858   2.306   4.063   0.590  0.3951 -0.6362  0.2916
 6456TIP3    H140859   2.291   4.143   0.538 -1.5151 -1.6341 -0.8241
 6456TIP3    H240860   2.274   4.086   0.678 -1.1730 -0.4466 -0.2862
 6457TIP3   OH240861   4.430   1.576  11.995 -0.4064 -0.1796 -0.4601
 6457TIP3    H140862   4.419   1.628  12.076  1.6448 -0.7289  0.2194
 6457TIP3    H240863   4.389   1.492  12.015  0.1436 -0.3330  0.0452
 6458TIP3   OH240864   4.032   6.143   4.330  0.2481  0.2551  0.7631
 6458TIP3    H140865   4.034   6.048   4.319 -2.6903  0.2033 -0.2949
 6458TIP3    H240866   4.123   6.168   4.348  0.8238 -2.9000  2.8372
 6459TIP3   OH240867   5.096   0.561  14.904 -0.4645 -0.5797 -0.0838
 6459TIP3    H140868   5.118   0.493  14.841  1.1541 -1.9134  1.7976
 6459TIP3    H240869   5.034   0.519  14.964  0.1162 -0.2224  0.7741
 6460TIP3   OH240870   4.646   6.730   5.744  0.0434 -0.1664  0.5155
 6460TIP3    H140871   4.574   6.767   5.693 -0.3699 -1.1513  0.3728
 6460TIP3    H240872   4.652   6.640   5.714  2.5381  0.3485 -0.8283
 6461TIP3   OH240873   0.267   0.614   4.524  0.0469 -0.1488  0.2837
 6461TIP3    H140874   0.315   0.631   4.444 -0.2183  1.5461  0.4400
 6461TIP3    H240875   0.324   0.556   4.575  1.1098  0.3629 -0.2949
 6462TIP3   OH240876   3.579   4.704   1.285  0.1973 -0.4505  0.7207
 6462TIP3    H140877   3.542   4.671   1.367  0.8459  0.2564  1.3140
 6462TIP3    H240878   3.560   4.636   1.221 -3.2865  0.3907  0.6580
 6463TIP3   OH240879   5.659   1.801  13.655  0.2759 -0.2975 -0.0973
 6463TIP3    H140880   5.702   1.730  13.704  0.7538  0.2974  0.3637
 6463TIP3    H240881   5.697   1.881  13.692 -2.3047  0.3519  1.4209
 6464TIP3   OH240882   6.287   6.229   2.321 -0.5418  0.6937  0.5032
 6464TIP3    H140883   6.282   6.321   2.344  0.0099  1.2819 -1.5729
 6464TIP3    H240884   6.198   6.196   2.336 -0.7179  1.5172  1.3541
 6465TIP3   OH240885   5.474   2.195  13.640  0.5648  0.1609 -0.0874
 6465TIP3    H140886   5.569   2.202  13.649  0.9348 -1.0072 -2.2515
 6465TIP3    H240887   5.454   2.239  13.558 -0.3680 -1.8068 -0.9833
 6466TIP3   OH240888   3.984   1.780   3.574 -0.2564 -0.4843  0.5936
 6466TIP3    H140889   3.889   1.777   3.585 -0.1869 -1.0838  1.0871
 6466TIP3    H240890   4.018   1.735   3.652  0.5068  1.5133  1.4858
 6467TIP3   OH240891   1.900   4.780   3.160  0.0037  1.0348 -0.1694
 6467TIP3    H140892   1.941   4.785   3.073 -1.0216 -1.5409 -0.8882
 6467TIP3    H240893   1.941   4.704   3.201 -0.5167  1.4036  1.0734
 6468TIP3   OH240894   0.031   5.489  12.539  0.4756 -0.5220  0.1579
 6468TIP3    H140895  -0.057   5.526  12.542 -0.1388 -1.9115  3.4261
 6468TIP3    H240896   0.048   5.477  12.446 -1.4601  2.6715 -0.7789
 6469TIP3   OH240897   4.236   6.812  12.109  0.3890 -0.2014  0.0913
 6469TIP3    H140898   4.162   6.753  12.094 -1.7416  1.9400  1.2745
 6469TIP3    H240899   4.260   6.844  12.023 -3.1912  2.4236 -0.1589
 6470TIP3   OH240900   1.924   2.458  11.651  0.2977  0.2888  0.2688
 6470TIP3    H140901   1.939   2.549  11.625 -1.3382  0.8204  1.0454
 6470TIP3    H240902   1.883   2.417  11.575 -3.5383  1.5710  1.4249
 6471TIP3   OH240903   2.476   6.322  12.473 -0.0936  0.1034  0.5935
 6471TIP3    H140904   2.538   6.294  12.541  0.1377 -0.4204  0.1736
 6471TIP3    H240905   2.506   6.278  12.394 -2.0307 -1.6031  0.7296
 6472TIP3   OH240906   1.776   4.331   1.931  0.1125 -0.7510 -0.2486
 6472TIP3    H140907   1.825   4.356   2.009 -1.3519 -1.7630  1.0363
 6472TIP3    H240908   1.685   4.328   1.958 -0.4240 -1.2846 -1.9511
 6473TIP3   OH240909   1.551   5.419   2.122 -0.4045 -0.3803  0.5896
 6473TIP3    H140910   1.508   5.445   2.041  0.6869  2.0630  0.7081
 6473TIP3    H240911   1.620   5.358   2.094 -1.4934 -1.3834 -0.0045
 6474TIP3   OH240912   3.194   2.296   4.139  0.2225  0.3149 -0.5816
 6474TIP3    H140913   3.116   2.332   4.099  0.8510  0.9367 -1.2772
 6474TIP3    H240914   3.205   2.346   4.220 -0.0974  0.2166 -0.4763
 6475TIP3   OH240915   6.149   1.730   0.589  0.3809  0.2928 -0.2057
 6475TIP3    H140916   6.176   1.692   0.672  0.5765  0.8063 -0.0297
 6475TIP3    H240917   6.058   1.754   0.601  0.2971  0.0160 -0.2720
 6476TIP3   OH240918   6.212   3.816   5.524  0.1719  0.9529 -0.1701
 6476TIP3    H140919   6.160   3.762   5.584 -0.1553 -3.0202 -3.5970
 6476TIP3    H240920   6.150   3.881   5.491 -0.5664  0.9501  1.1357
 6477TIP3   OH240921   5.875   4.662  14.891 -0.1956  0.3584  0.5349
 6477TIP3    H140922   5.966   4.661  14.920 -0.0893  0.0052  0.2046
 6477TIP3    H240923   5.826   4.623  14.963  0.2186 -1.6950 -0.2132
 6478TIP3   OH240924   4.698   0.730  12.948  0.3749 -0.3379 -0.1500
 6478TIP3    H140925   4.643   0.734  13.027  0.2413 -1.0946 -0.1920
 6478TIP3    H240926   4.763   0.799  12.960  0.4938 -0.5908  0.7277
 6479TIP3   OH240927   2.182   1.948  14.449 -0.3378 -0.0459  0.0237
 6479TIP3    H140928   2.248   1.884  14.421  0.3820  1.0514 -0.9039
 6479TIP3    H240929   2.161   1.923  14.539  1.7353 -0.1398  0.5499
 6480TIP3   OH240930   0.831   4.428   2.693 -0.5164 -0.2372 -0.3812
 6480TIP3    H140931   0.882   4.367   2.746 -0.6428  1.2264  1.5439
 6480TIP3    H240932   0.896   4.472   2.639  0.0257  0.1545  0.5559
 6481TIP3   OH240933   2.889   3.450  11.330  0.1183 -0.3042 -0.0506
 6481TIP3    H140934   2.980   3.479  11.334  0.7013 -1.8719 -0.9171
 6481TIP3    H240935   2.852   3.498  11.256  0.2513  0.2835  0.2559
 6482TIP3   OH240936   2.868   3.709   3.742  0.1508  0.6905 -0.0472
 6482TIP3    H140937   2.914   3.634   3.777 -0.1074  0.6492  0.2091
 6482TIP3    H240938   2.871   3.697   3.647 -0.0353  0.2701 -0.0007
 6483TIP3   OH240939   2.915   5.703  16.015  0.3813 -0.4637 -0.7946
 6483TIP3    H140940   2.887   5.794  16.000  0.3963 -0.5990 -1.7314
 6483TIP3    H240941   2.938   5.700  16.108 -2.0750 -0.1850 -0.1030
 6484TIP3   OH240942   0.748   1.812   1.115  0.4199 -0.2173  0.9537
 6484TIP3    H140943   0.800   1.875   1.165 -0.5593  2.1627 -0.8177
 6484TIP3    H240944   0.780   1.820   1.025 -0.0118 -2.0315  0.5860
 6485TIP3   OH240945   0.963   2.018  14.781  0.5457 -0.2862  0.2522
 6485TIP3    H140946   0.941   2.110  14.786  0.8554 -0.2656  1.7979
 6485TIP3    H240947   0.890   1.977  14.735  0.7463  0.8099 -1.1074
 6486TIP3   OH240948   4.624   0.815   0.283  0.0185  0.1600  0.0992
 6486TIP3    H140949   4.634   0.904   0.317 -0.2170  0.5606 -0.8532
 6486TIP3    H240950   4.536   0.789   0.308 -0.3498  0.6579 -0.6392
 6487TIP3   OH240951   5.489   5.712   3.108  0.1943  0.7637 -0.1748
 6487TIP3    H140952   5.549   5.764   3.054 -1.1191  2.6813  0.1006
 6487TIP3    H240953   5.469   5.768   3.183 -1.3084 -0.1347  0.1473
 6488TIP3   OH240954   0.470   3.117   2.106  1.1644  0.7300 -0.1912
 6488TIP3    H140955   0.465   3.025   2.132  0.6133  0.5665 -0.8342
 6488TIP3    H240956   0.503   3.163   2.183 -1.6240  0.4650  1.2903
 6489TIP3   OH240957   5.117   6.028  12.249  0.1853 -0.2832  0.1585
 6489TIP3    H140958   5.025   6.046  12.269 -0.0233  0.7732 -1.5011
 6489TIP3    H240959   5.114   5.954  12.188  0.4641 -0.4426  0.3379
 6490TIP3   OH240960   0.554   4.556   3.664 -0.3862  0.6100  0.3737
 6490TIP3    H140961   0.613   4.602   3.724  1.2230 -0.2162 -0.5012
 6490TIP3    H240962   0.519   4.483   3.716  2.5048 -1.2795 -0.0811
 6491TIP3   OH240963   4.160   2.718   5.736  0.1078 -0.2120  0.1361
 6491TIP3    H140964   4.235   2.739   5.680  0.3456 -0.7602  0.2428
 6491TIP3    H240965   4.085   2.723   5.678  0.0337  1.7273  0.3177
 6492TIP3   OH240966   0.127   2.912   1.873  0.2659  0.1837  0.7792
 6492TIP3    H140967   0.209   2.958   1.854  0.6640 -1.0142 -0.5565
 6492TIP3    H240968   0.153   2.838   1.927  0.3234 -1.0329 -0.8433
 6493TIP3   OH240969   6.813   2.949  16.317 -0.1590  0.1706  0.1044
 6493TIP3    H140970   6.850   2.949  16.229  1.3472  0.7023  0.7006
 6493TIP3    H240971   6.787   2.858  16.332  0.4461 -0.1232 -0.5448
 6494TIP3   OH240972   1.547   2.531  14.107  0.0253  0.2681 -0.2657
 6494TIP3    H140973   1.579   2.477  14.035 -0.5706 -2.8456  1.5974
 6494TIP3    H240974   1.625   2.573  14.142  0.5345  0.6036 -1.7422
 6495TIP3   OH240975   3.776   5.946  16.776 -0.0536  0.0929 -0.2330
 6495TIP3    H140976   3.682   5.928  16.783 -0.0938 -0.3103 -1.5493
 6495TIP3    H240977   3.786   5.985  16.689  0.4346  3.9098  1.3442
 6496TIP3   OH240978   4.468   0.784   2.833  0.1774 -0.1079  0.0797
 6496TIP3    H140979   4.443   0.876   2.846 -0.3633 -0.4126  1.3197
 6496TIP3    H240980   4.402   0.734   2.880  1.5591 -1.0543  1.1230
 6497TIP3   OH240981   0.433   1.808  16.460 -0.3335  0.2868 -0.1451
 6497TIP3    H140982   0.442   1.751  16.536  0.4129  0.0412 -0.4130
 6497TIP3    H240983   0.351   1.856  16.476 -0.1159  0.3506  0.8809
 6498TIP3   OH240984   3.604   3.530  16.964 -0.0491  0.0310 -0.0056
 6498TIP3    H140985   3.658   3.539  17.043  1.9869  0.4320 -1.3895
 6498TIP3    H240986   3.517   3.560  16.992  0.0896 -1.5566  2.5577
 6499TIP3   OH240987   1.282   2.929  13.174  0.0554  0.0919  0.5416
 6499TIP3    H140988   1.197   2.885  13.171  0.6804 -1.0957 -1.2983
 6499TIP3    H240989   1.327   2.900  13.095  2.3079  0.4481  1.6218
 6500TIP3   OH240990   6.033   4.683  13.092 -0.8752 -0.2944 -0.3023
 6500TIP3    H140991   6.012   4.632  13.170  0.0752  2.3712  1.8753
 6500TIP3    H240992   5.948   4.709  13.056 -1.3350 -0.7431  0.4446
 6501TIP3   OH240993   4.492   6.801   2.130 -0.1551 -0.6798  0.6006
 6501TIP3    H140994   4.415   6.833   2.084 -0.7511 -1.3065  1.1330
 6501TIP3    H240995   4.500   6.709   2.104 -0.2157 -0.9084  1.3466
 6502TIP3   OH240996   6.272   0.880  13.128 -0.0966  0.3362 -0.1909
 6502TIP3    H140997   6.221   0.808  13.165  0.5050 -0.3966 -0.7700
 6502TIP3    H240998   6.282   0.942  13.200 -1.1659  0.1483  0.1378
 6503TIP3   OH240999   3.969   5.619  13.762 -0.2745  0.1254  0.6049
 6503TIP3    H141000   3.999   5.534  13.792  1.2110  0.8026  1.1442
 6503TIP3    H241001   3.976   5.616  13.667 -1.4398 -0.7601  0.5271
 6504TIP3   OH241002   6.596   4.525  14.368 -0.5365  0.2010  0.3120
 6504TIP3    H141003   6.577   4.589  14.437  0.6648  0.1362  0.7225
 6504TIP3    H241004   6.691   4.529  14.356 -0.5363 -0.9146 -0.2445
 6505TIP3   OH241005   2.132   6.215   5.256  0.4315 -0.0257 -0.0962
 6505TIP3    H141006   2.150   6.263   5.175 -2.0721  1.2300  0.0058
 6505TIP3    H241007   2.056   6.160   5.235 -0.4550  0.5438  1.4401
 6506TIP3   OH241008   5.339   3.826  13.397 -0.2415 -0.4441 -0.1904
 6506TIP3    H141009   5.343   3.814  13.302 -2.0937  0.2860 -0.4159
 6506TIP3    H241010   5.371   3.915  13.412  1.2112 -0.9836  0.0307
 6507TIP3   OH241011   2.478   5.881  12.462 -0.0955 -0.1655 -0.6011
 6507TIP3    H141012   2.553   5.829  12.433 -0.2599 -0.8503  0.1471
 6507TIP3    H241013   2.405   5.819  12.464 -0.0800 -0.2036  1.3050
 6508TIP3   OH241014   5.191   5.966  17.038  0.1578  0.5174  0.0151
 6508TIP3    H141015   5.107   5.931  17.066 -0.1683 -0.2628 -1.7740
 6508TIP3    H241016   5.240   5.981  17.119 -0.7648 -1.4028  0.9981
 6509TIP3   OH241017   4.567   2.402   3.807 -0.5386 -0.1709  0.0970
 6509TIP3    H141018   4.626   2.412   3.733  1.0830 -0.4666  1.3072
 6509TIP3    H241019   4.606   2.333   3.860 -2.2369 -0.7101  0.7093
 6510TIP3   OH241020   5.590   3.758  14.599 -0.2983 -0.5189 -0.1744
 6510TIP3    H141021   5.523   3.750  14.668 -0.1735 -1.4060 -0.1536
 6510TIP3    H241022   5.541   3.788  14.523 -0.4485  0.4266  0.2753
 6511TIP3   OH241023   3.594   5.084  12.550 -0.1184  0.3970 -0.2066
 6511TIP3    H141024   3.524   5.019  12.540  0.2198  0.1804 -1.4540
 6511TIP3    H241025   3.667   5.048  12.498  0.0548  1.7877 -0.9849
 6512TIP3   OH241026   3.822   0.945   2.971  0.3349 -0.1285  0.2583
 6512TIP3    H141027   3.838   0.987   3.055 -0.3720  0.7495 -0.0254
 6512TIP3    H241028   3.728   0.927   2.971  0.2138  0.4438 -0.5820
 6513TIP3   OH241029   0.726   6.195   1.165 -0.3581 -0.7939 -0.4514
 6513TIP3    H141030   0.699   6.260   1.229 -1.3657  0.6015 -2.2036
 6513TIP3    H241031   0.814   6.169   1.192 -0.6391 -0.0560  1.2924
 6514TIP3   OH241032   3.076   5.935  16.139  0.5081  0.2454 -0.2426
 6514TIP3    H141033   3.120   5.953  16.056  0.0401  2.8849 -0.0096
 6514TIP3    H241034   3.097   6.010  16.194 -1.4380 -0.1032  1.0775
 6515TIP3   OH241035   1.585   0.860  10.577  0.0560 -0.2287  0.3602
 6515TIP3    H141036   1.507   0.915  10.564 -0.9550 -1.7975 -0.5789
 6515TIP3    H241037   1.638   0.877  10.499  0.4391  0.4688  0.7629
 6516TIP3   OH241038   1.872   1.389   5.597 -0.0013 -0.1759  0.4385
 6516TIP3    H141039   1.826   1.313   5.562 -0.3897  0.2831 -0.0509
 6516TIP3    H241040   1.812   1.424   5.663 -1.0166  1.2568 -1.1829
 6517TIP3   OH241041   2.935   6.625   2.847  0.0454 -0.3229  0.2764
 6517TIP3    H141042   2.980   6.696   2.800 -0.7702 -0.5915 -0.9682
 6517TIP3    H241043   2.882   6.669   2.912 -0.2247  0.2018 -0.2906
 6518TIP3   OH241044   0.395   2.916  12.761  0.4027  0.0441  0.3934
 6518TIP3    H141045   0.430   3.005  12.768  1.5908 -0.3962  0.3243
 6518TIP3    H241046   0.399   2.896  12.668  0.4289 -0.1849  0.4420
 6519TIP3   OH241047   0.352   4.467   2.930  0.0840 -0.2762 -0.8503
 6519TIP3    H141048   0.390   4.498   3.012 -2.1186  1.3123 -0.3489
 6519TIP3    H241049   0.427   4.456   2.872  1.3844  2.1458  0.2321
 6520TIP3   OH241050   3.142   4.647   2.902  0.9142 -0.3305 -0.4530
 6520TIP3    H141051   3.200   4.718   2.928  0.8776 -0.5656  0.2874
 6520TIP3    H241052   3.133   4.593   2.980 -0.8019  0.0317 -0.3636
 6521TIP3   OH241053   2.034   0.918   5.819 -0.3005 -0.7436 -0.6319
 6521TIP3    H141054   2.047   1.002   5.775 -0.3142 -0.0963  0.5626
 6521TIP3    H241055   2.087   0.924   5.898  0.5932 -2.3236 -1.0749
 6522TIP3   OH241056   4.460   5.647  13.760 -0.0011 -0.0324 -0.3736
 6522TIP3    H141057   4.433   5.650  13.852  0.6842  0.8457 -0.1897
 6522TIP3    H241058   4.526   5.715  13.752  1.0610 -1.1087 -1.1719
 6523TIP3   OH241059   1.306   3.003  17.108  0.3215 -0.1956  0.1496
 6523TIP3    H141060   1.250   2.951  17.051 -0.5106 -1.1802  1.7975
 6523TIP3    H241061   1.314   2.951  17.188  0.5899  1.5909  1.3497
 6524TIP3   OH241062   1.599   3.749   4.549 -0.3056 -0.1346  0.3628
 6524TIP3    H141063   1.636   3.715   4.631 -0.7554 -1.0431  0.2104
 6524TIP3    H241064   1.612   3.843   4.554  0.7869 -0.2930  0.9228
 6525TIP3   OH241065   0.763   2.029   0.140  0.0434  0.2360  0.3155
 6525TIP3    H141066   0.765   1.958   0.204  0.5456  1.3213  1.5254
 6525TIP3    H241067   0.843   2.079   0.156 -1.3100  2.3284  0.9537
 6526TIP3   OH241068   4.968   0.319   2.702 -0.2580 -0.6851 -0.2185
 6526TIP3    H141069   4.915   0.258   2.651 -0.7480 -0.2906 -0.1867
 6526TIP3    H241070   4.911   0.394   2.717 -0.6511 -1.3835  2.1798
 6527TIP3   OH241071   3.778   0.358   0.453 -0.0117  0.4976 -0.1698
 6527TIP3    H141072   3.743   0.443   0.480  1.2640  1.4460 -1.3754
 6527TIP3    H241073   3.734   0.339   0.371  2.3360  1.8320 -1.8487
 6528TIP3   OH241074   6.687   0.626  15.711  0.4023  0.4397  0.0715
 6528TIP3    H141075   6.779   0.652  15.719  0.3108  0.9859 -0.5538
 6528TIP3    H241076   6.638   0.707  15.721 -0.0561  0.0567  1.0097
 6529TIP3   OH241077   5.968   1.602   2.657  0.4584  0.1959 -0.0173
 6529TIP3    H141078   6.056   1.603   2.620 -0.2163  0.7933 -1.7208
 6529TIP3    H241079   5.970   1.669   2.726  1.1912  0.5760 -0.3954
 6530TIP3   OH241080   5.365   2.410   1.368 -0.2835 -0.0711 -0.4384
 6530TIP3    H141081   5.275   2.383   1.350  0.0448 -0.0327 -2.4064
 6530TIP3    H241082   5.372   2.498   1.330  0.8794 -0.5488 -1.4117
 6531TIP3   OH241083   3.579   3.026  13.136  0.0882  0.2223  0.4632
 6531TIP3    H141084   3.587   3.054  13.045  1.0642  1.4218  0.9030
 6531TIP3    H241085   3.521   3.091  13.176 -0.3282 -0.2940  0.7205
 6532TIP3   OH241086   6.293   2.974  16.521  0.3970  0.7987 -0.1601
 6532TIP3    H141087   6.333   2.897  16.480  1.3334  1.4092 -0.4348
 6532TIP3    H241088   6.365   3.037  16.527 -0.5906  2.0300 -0.9013
 6533TIP3   OH241089   3.262   3.880   2.386 -0.5201 -0.4509 -0.0890
 6533TIP3    H141090   3.268   3.976   2.393 -1.8008 -0.4437  1.3167
 6533TIP3    H241091   3.346   3.854   2.347 -0.1633  1.2355 -0.5403
 6534TIP3   OH241092   0.094   0.438   5.633 -0.0989  0.3475  0.1054
 6534TIP3    H141093   0.144   0.370   5.588  1.3905  2.5292 -1.8048
 6534TIP3    H241094   0.140   0.450   5.716  0.3843 -0.1489 -0.0831
 6535TIP3   OH241095   4.619   1.818   5.720 -0.3230  0.0965 -0.0891
 6535TIP3    H141096   4.700   1.863   5.696 -0.0937 -0.6969 -0.8756
 6535TIP3    H241097   4.553   1.856   5.663 -0.5058  0.6996  0.5092
 6536TIP3   OH241098   0.247   0.457  14.853 -0.3798 -0.3217  0.0504
 6536TIP3    H141099   0.162   0.460  14.809 -0.0556 -0.0298 -0.5693
 6536TIP3    H241100   0.306   0.503  14.794 -0.0549  0.6081  1.0796
 6537TIP3   OH241101   4.080   4.034  12.585 -0.4315  0.8309 -0.2498
 6537TIP3    H141102   4.114   3.950  12.555  0.5212  1.1286 -0.0228
 6537TIP3    H241103   3.985   4.021  12.589 -0.2765 -0.3266  0.0763
 6538TIP3   OH241104   2.725   5.447  12.250 -0.1877 -0.2954  0.0003
 6538TIP3    H141105   2.808   5.435  12.296 -0.5152  0.0907  0.7062
 6538TIP3    H241106   2.750   5.468  12.161  0.4725 -0.3729  0.1612
 6539TIP3   OH241107   1.630   2.731   2.471 -0.0357 -0.6016  0.0903
 6539TIP3    H141108   1.690   2.685   2.529  0.5568  0.0735  0.0259
 6539TIP3    H241109   1.598   2.664   2.411 -0.9100 -1.3776  1.3754
 6540TIP3   OH241110   1.555   3.818   0.516 -0.2036  0.0761 -0.3336
 6540TIP3    H141111   1.462   3.815   0.535 -0.0678 -2.0280  0.2070
 6540TIP3    H241112   1.566   3.763   0.438  0.6158  0.1364 -0.2707
 6541TIP3   OH241113   3.050   5.542   5.817  0.1459  0.3211  0.5671
 6541TIP3    H141114   3.039   5.607   5.886  0.7179 -0.1556  1.1254
 6541TIP3    H241115   3.014   5.583   5.739 -0.9937  0.6804  1.2523
 6542TIP3   OH241116   4.449   6.071   3.437  0.0407  0.2641  0.6634
 6542TIP3    H141117   4.456   6.083   3.342  2.8613  1.2059  0.9125
 6542TIP3    H241118   4.531   6.029   3.462  0.3115  1.9543  2.9463
 6543TIP3   OH241119   3.341   2.209   3.324 -0.3041  0.5812 -0.4575
 6543TIP3    H141120   3.404   2.263   3.277  0.2545 -1.1509 -1.7753
 6543TIP3    H241121   3.393   2.158   3.385 -0.6439  0.3574 -0.3509
 6544TIP3   OH241122   0.528   4.836  16.245 -0.3672  0.0400  0.0154
 6544TIP3    H141123   0.591   4.902  16.218  0.2129 -0.3125  0.4919
 6544TIP3    H241124   0.463   4.885  16.296 -0.6736  0.4583 -0.7635
 6545TIP3   OH241125   4.075   1.215   1.981  0.5671  0.1188 -0.1068
 6545TIP3    H141126   4.028   1.296   1.962  1.7218  0.3279 -2.5664
 6545TIP3    H241127   4.145   1.241   2.041  1.2808  1.1402 -1.3210
 6546TIP3   OH241128   6.174   2.447   2.067  0.0110  0.6782  0.2858
 6546TIP3    H141129   6.267   2.466   2.054  0.1298 -0.4985 -0.6943
 6546TIP3    H241130   6.142   2.421   1.981 -1.6629  2.7381  0.2100
 6547TIP3   OH241131   2.197   6.720  16.349  0.1315 -0.4675  0.4365
 6547TIP3    H141132   2.213   6.776  16.425 -1.5069  0.3516  0.2385
 6547TIP3    H241133   2.238   6.767  16.276 -1.7243  0.8761  0.1677
 6548TIP3   OH241134   5.643   6.397  10.527  0.1085 -0.2171  0.0364
 6548TIP3    H141135   5.630   6.304  10.545 -1.1110  0.1690  1.3732
 6548TIP3    H241136   5.723   6.419  10.575  0.2080 -0.4936  0.0002
 6549TIP3   OH241137   0.054   5.536   1.013 -0.5034  0.0829 -0.1859
 6549TIP3    H141138   0.066   5.551   1.107 -1.1653  0.5840 -0.1670
 6549TIP3    H241139   0.024   5.621   0.980 -0.5047 -0.1593 -0.8052
 6550TIP3   OH241140   0.005   0.783   1.355  0.0394 -0.0679 -0.1309
 6550TIP3    H141141   0.039   0.838   1.425  0.3537  0.1403 -0.4445
 6550TIP3    H241142   0.013   0.836   1.276 -0.2200 -0.3363 -0.3417
 6551TIP3   OH241143   6.601   2.266   2.570 -0.1030 -0.4543 -0.3635
 6551TIP3    H141144   6.510   2.236   2.562 -0.1640 -0.0057 -1.6953
 6551TIP3    H241145   6.601   2.327   2.643 -0.8767 -0.4673 -0.3507
 6552TIP3   OH241146   0.074   5.807   2.821  0.1224 -0.0584  0.1625
 6552TIP3    H141147   0.077   5.833   2.729  2.7123  1.8894  0.6723
 6552TIP3    H241148   0.106   5.717   2.822 -1.0151 -0.4927 -0.9182
 6553TIP3   OH241149   4.106   1.030  13.916  0.4695 -0.0009  0.0505
 6553TIP3    H141150   4.086   1.120  13.942  0.4795 -0.1279  0.5076
 6553TIP3    H241151   4.151   1.039  13.832  0.7091  0.4379  0.2230
 6554TIP3   OH241152   3.173   4.532  16.051 -0.3850  0.2766  0.3172
 6554TIP3    H141153   3.093   4.584  16.064 -0.1503  0.2745  2.0798
 6554TIP3    H241154   3.198   4.504  16.140  0.1764 -1.8409 -0.4473
 6555TIP3   OH241155   0.253   2.131  10.283  0.3033  0.7590  0.4378
 6555TIP3    H141156   0.163   2.128  10.318  0.0872  1.4458 -0.0479
 6555TIP3    H241157   0.305   2.085  10.349 -0.6240 -0.9649  0.0161
 6556TIP3   OH241158   3.385   6.374   6.045  0.4670 -0.5045 -0.8547
 6556TIP3    H141159   3.453   6.361   6.111  0.9786 -0.3057 -1.3374
 6556TIP3    H241160   3.323   6.435   6.087  0.7940 -0.3669 -0.5617
 6557TIP3   OH241161   3.861   0.539   5.481 -0.2763 -0.2740  0.1764
 6557TIP3    H141162   3.800   0.611   5.471 -0.3803 -0.3040  0.5807
 6557TIP3    H241163   3.844   0.482   5.405  1.8342  1.5641 -1.8457
 6558TIP3   OH241164   6.773   0.959   4.586 -0.1052 -0.4289  0.0222
 6558TIP3    H141165   6.771   0.872   4.626 -0.0016 -1.1460 -1.4716
 6558TIP3    H241166   6.862   0.969   4.553 -0.5425 -0.4255 -1.2059
 6559TIP3   OH241167   3.736   0.974  16.206 -0.0590  0.4867 -0.1896
 6559TIP3    H141168   3.767   1.045  16.149 -0.4772  2.0143  1.3863
 6559TIP3    H241169   3.705   1.019  16.285  0.3530 -1.5218  1.1930
 6560TIP3   OH241170   4.971   0.378   3.678  0.2456 -0.0287 -0.6723
 6560TIP3    H141171   5.028   0.455   3.675 -1.4386  1.3147 -0.1418
 6560TIP3    H241172   4.965   0.357   3.772  1.3274 -1.3436 -0.8697
 6561TIP3   OH241173   6.828   5.783  13.981 -0.5782  0.4553 -0.1384
 6561TIP3    H141174   6.767   5.711  13.999 -0.5795  0.1446 -1.3494
 6561TIP3    H241175   6.905   5.763  14.036 -0.3439 -0.7859 -0.8758
 6562TIP3   OH241176   3.994   2.007  14.082 -0.3088  0.0974  0.4066
 6562TIP3    H141177   4.077   2.016  14.128 -0.6305  0.0721  1.0056
 6562TIP3    H241178   4.002   1.926  14.033 -0.0323  0.0146  0.5877
 6563TIP3   OH241179   5.287   4.185   3.670 -0.0499  0.1725  0.0113
 6563TIP3    H141180   5.225   4.255   3.648 -0.9658 -0.8928 -0.9135
 6563TIP3    H241181   5.243   4.133   3.736  0.6039  0.4133  0.6492
 6564TIP3   OH241182   4.894   6.436   0.666  0.0144  0.2071 -0.1801
 6564TIP3    H141183   4.872   6.361   0.721  0.8503 -1.9259 -2.5389
 6564TIP3    H241184   4.809   6.473   0.641 -0.6953 -2.2348 -1.8100
 6565TIP3   OH241185   5.902   1.126   4.528  0.2804 -0.1581  0.2369
 6565TIP3    H141186   5.903   1.030   4.524 -1.2923 -0.1938 -0.0862
 6565TIP3    H241187   5.878   1.152   4.439  2.3253  0.6354 -0.1386
 6566TIP3   OH241188   0.183   5.938  12.393  0.0149  0.0353 -0.0351
 6566TIP3    H141189   0.239   5.860  12.399  0.5897  0.3801 -0.7048
 6566TIP3    H241190   0.232   6.005  12.441 -1.0971 -0.3262  1.6954
 6567TIP3   OH241191   0.150   0.458  16.742 -0.0001 -0.5953  0.1682
 6567TIP3    H141192   0.224   0.510  16.712  0.0724 -0.4943  0.5136
 6567TIP3    H241193   0.139   0.483  16.834 -0.6529 -0.3841  0.0360
 6568TIP3   OH241194   2.153   6.703  12.043 -0.0145  0.0572 -0.1086
 6568TIP3    H141195   2.235   6.659  12.066  1.2932  1.4385 -1.8749
 6568TIP3    H241196   2.178   6.768  11.977 -2.5413  0.5126 -0.7186
 6569TIP3   OH241197   1.667   5.435   1.134 -0.0548 -0.1204 -0.0629
 6569TIP3    H141198   1.741   5.377   1.116  0.5811 -0.0786  2.1028
 6569TIP3    H241199   1.661   5.491   1.057  0.1665 -2.1344 -1.6355
 6570TIP3   OH241200   4.696   6.484   6.504 -0.1333 -0.2793 -0.3301
 6570TIP3    H141201   4.681   6.405   6.555 -1.4812 -0.5136 -1.0394
 6570TIP3    H241202   4.665   6.555   6.559  1.4300 -0.1747  0.4631
 6571TIP3   OH241203   1.846   6.823  13.703 -0.1580 -0.0063 -0.2159
 6571TIP3    H141204   1.874   6.879  13.776  3.3536  0.2557 -1.5870
 6571TIP3    H241205   1.786   6.878  13.652  1.1047  1.5641 -0.0692
 6572TIP3   OH241206   6.438   1.397   5.751 -0.3766  0.2744  0.4091
 6572TIP3    H141207   6.474   1.392   5.839  1.0070 -1.4817 -0.1971
 6572TIP3    H241208   6.504   1.355   5.695 -1.5231  0.7003 -1.3642
 6573TIP3   OH241209   4.541   4.117   3.774  0.4737  0.3605 -0.1059
 6573TIP3    H141210   4.557   4.023   3.788  1.0183  0.4334 -0.2224
 6573TIP3    H241211   4.544   4.155   3.862 -2.5186 -0.1197  0.3058
 6574TIP3   OH241212   0.481   6.346  12.570 -0.4724  0.0773  0.0344
 6574TIP3    H141213   0.439   6.424  12.607 -0.8462 -0.1427  0.0798
 6574TIP3    H241214   0.543   6.319  12.637  0.5528  1.0476 -0.4970
 6575TIP3   OH241215   5.287   0.139   1.440 -0.2733  0.0540 -0.7473
 6575TIP3    H141216   5.347   0.151   1.366 -0.6660  0.4637 -1.0045
 6575TIP3    H241217   5.302   0.216   1.495 -0.8018  0.3371 -0.9873
 6576TIP3   OH241218   1.415   3.497  16.876  0.2924 -0.2328  0.5323
 6576TIP3    H141219   1.510   3.489  16.885  0.2370 -0.0803  1.3069
 6576TIP3    H241220   1.380   3.429  16.934 -0.0829  0.5948  1.2871
 6577TIP3   OH241221   2.862   0.138  13.311  0.0793  0.0739 -0.6797
 6577TIP3    H141222   2.782   0.102  13.274 -0.9545  0.4424  1.1069
 6577TIP3    H241223   2.852   0.233  13.301  1.0501  0.0874 -1.8683
 6578TIP3   OH241224   6.237   5.511  16.680 -0.3934  0.9876 -0.1590
 6578TIP3    H141225   6.247   5.580  16.614  1.6009 -0.0081 -0.9751
 6578TIP3    H241226   6.296   5.537  16.751  1.7179 -0.6178 -1.2052
 6579TIP3   OH241227   1.461   5.824  11.122  0.0438  0.2718  0.1596
 6579TIP3    H141228   1.525   5.889  11.152  2.3247 -1.3634 -0.8507
 6579TIP3    H241229   1.452   5.839  11.028 -1.5958  0.8645  0.3781
 6580TIP3   OH241230   3.270   5.624   1.053 -0.1569 -0.0645 -0.1223
 6580TIP3    H141231   3.194   5.672   1.020 -0.3724 -1.0343 -1.0825
 6580TIP3    H241232   3.342   5.652   0.996  0.1610  0.6300  0.6000
 6581TIP3   OH241233   0.917   4.357  16.426 -0.6409 -0.4822 -0.0572
 6581TIP3    H141234   0.829   4.392  16.443 -0.2786  2.2149 -2.8349
 6581TIP3    H241235   0.976   4.425  16.458  0.3377 -1.0237 -0.6583
 6582TIP3   OH241236   4.074   3.926   5.165  0.1604 -0.2186 -0.1422
 6582TIP3    H141237   3.989   3.962   5.142  0.0766  0.3384  0.9605
 6582TIP3    H241238   4.125   4.002   5.194  1.0477 -0.5384 -0.7940
 6583TIP3   OH241239   3.733   4.976   4.168  0.2680  0.1682 -0.3052
 6583TIP3    H141240   3.728   4.895   4.219 -0.5389  0.1318 -0.4179
 6583TIP3    H241241   3.722   5.046   4.233  3.9579  0.3963  0.2718
 6584TIP3   OH241242   2.044   6.256  10.603 -0.3062  0.1028  0.2197
 6584TIP3    H141243   1.961   6.215  10.579 -0.2175  0.6164 -1.0112
 6584TIP3    H241244   2.020   6.322  10.668 -0.7847 -0.1711  0.3264
 6585TIP3   OH241245   2.928   2.650  15.937  0.5187  0.3976 -0.4597
 6585TIP3    H141246   2.981   2.595  15.880  0.8552  0.9566 -0.6943
 6585TIP3    H241247   2.914   2.730  15.886 -1.1233  0.0034 -0.6923
 6586TIP3   OH241248   6.786   2.658   2.265  0.2811  0.0129  0.2878
 6586TIP3    H141249   6.693   2.680   2.273  0.0378 -0.2091 -1.5073
 6586TIP3    H241250   6.792   2.610   2.183  1.9443 -0.2844  0.5488
 6587TIP3   OH241251   0.823   3.888  12.251  0.1025  0.4464 -0.0624
 6587TIP3    H141252   0.812   3.906  12.344  1.3784 -0.4646  0.2834
 6587TIP3    H241253   0.784   3.802  12.238  0.6609  0.2128 -0.2055
 6588TIP3   OH241254   5.390   5.945  13.110  0.0522  0.2495  0.2852
 6588TIP3    H141255   5.378   5.899  13.193  2.3580 -0.1078  0.4755
 6588TIP3    H241256   5.415   5.876  13.048  1.8395  0.9659  0.1616
 6589TIP3   OH241257   4.780   3.644  15.666  0.5215  0.9243  0.1133
 6589TIP3    H141258   4.872   3.654  15.693  0.8182  0.1820 -0.5926
 6589TIP3    H241259   4.769   3.550  15.656  0.5341  1.1575 -2.7317
 6590TIP3   OH241260   3.758   0.595  13.314 -0.0229  0.2982  0.0907
 6590TIP3    H141261   3.828   0.643  13.358  1.3222 -1.1441 -0.3478
 6590TIP3    H241262   3.677   0.634  13.346  0.8608 -0.2516  3.3700
 6591TIP3   OH241263   1.060   5.986  15.647 -0.1679  0.3492  0.1217
 6591TIP3    H141264   1.016   5.907  15.616  1.2046 -0.0902 -0.8313
 6591TIP3    H241265   1.078   5.970  15.739 -0.4472 -0.1951  0.0801
 6592TIP3   OH241266   1.679   0.069  13.489  0.1004  0.2280 -0.7493
 6592TIP3    H141267   1.709   0.160  13.484  0.9741 -0.1124 -3.0914
 6592TIP3    H241268   1.584   0.075  13.500  0.2817  1.3816  0.4168
 6593TIP3   OH241269   2.569   0.567  11.639  0.2427 -0.0115  0.5180
 6593TIP3    H141270   2.510   0.512  11.690  1.3370 -0.4157  1.3938
 6593TIP3    H241271   2.633   0.506  11.601  0.9844  0.5575  0.8226
 6594TIP3   OH241272   6.315   1.035   0.266 -0.2711 -0.0381  0.0882
 6594TIP3    H141273   6.329   1.113   0.319 -1.2842 -0.3995  0.9294
 6594TIP3    H241274   6.365   0.966   0.310  0.0984 -0.0162 -0.2867
 6595TIP3   OH241275   6.676   4.944  11.978 -0.0313  0.4087 -0.4594
 6595TIP3    H141276   6.733   5.013  11.944  0.2972 -0.3917 -1.6054
 6595TIP3    H241277   6.591   4.987  11.989  0.7147  1.5674  1.0826
 6596TIP3   OH241278   4.665   3.786   4.257 -1.0293  0.0590 -0.4828
 6596TIP3    H141279   4.721   3.712   4.235 -0.3320  0.6833 -0.8419
 6596TIP3    H241280   4.716   3.863   4.233 -1.6504  0.6683  0.1054
 6597TIP3   OH241281   3.676   3.826   2.705  0.1838 -0.6941 -0.1597
 6597TIP3    H141282   3.722   3.759   2.756  0.6227 -0.6259 -0.4614
 6597TIP3    H241283   3.663   3.787   2.619 -0.5167 -0.7917 -0.0146
 6598TIP3   OH241284   5.137   3.439  11.663 -0.3133 -0.4973  0.8092
 6598TIP3    H141285   5.081   3.448  11.585 -1.4258 -2.3908  1.3274
 6598TIP3    H241286   5.221   3.408  11.629 -0.7539 -1.2004  0.3263
 6599TIP3   OH241287   3.822   6.369  15.655 -0.4423 -0.7444  0.5683
 6599TIP3    H141288   3.835   6.440  15.592  0.2186 -1.5669 -0.2362
 6599TIP3    H241289   3.730   6.346  15.647 -1.0056  0.8903  1.7906
 6600TIP3   OH241290   3.406   5.692   3.137  0.6851 -0.0199  0.6549
 6600TIP3    H141291   3.494   5.662   3.115  0.2929 -0.5798 -0.2392
 6600TIP3    H241292   3.358   5.612   3.158 -0.0418  0.0800 -0.5167
 6601TIP3   OH241293   2.661   1.498  13.430  0.0262  0.0957 -0.3636
 6601TIP3    H141294   2.653   1.452  13.346 -0.0854  0.1501 -0.3833
 6601TIP3    H241295   2.573   1.533  13.446  0.0139 -0.0260 -0.1594
 6602TIP3   OH241296   5.075   4.793   1.515 -0.5043 -0.2172 -0.3779
 6602TIP3    H141297   5.099   4.886   1.516  1.6469 -0.7094  1.3545
 6602TIP3    H241298   5.082   4.767   1.423 -1.2976  1.3227 -0.9190
 6603TIP3   OH241299   0.615   3.220   1.880  0.0044  0.1787  0.5642
 6603TIP3    H141300   0.709   3.202   1.883  0.0039 -2.7095 -4.7882
 6603TIP3    H241301   0.579   3.166   1.951  2.2075 -1.1639  0.7847
 6604TIP3   OH241302   3.333   0.641   2.722 -0.2157  0.1439 -0.0268
 6604TIP3    H141303   3.383   0.640   2.804 -0.7239  0.7307  0.2990
 6604TIP3    H241304   3.398   0.656   2.654  0.4031 -1.6820  0.1159
 6605TIP3   OH241305   4.289   3.450   3.379  0.1636 -0.6862 -0.4961
 6605TIP3    H141306   4.239   3.410   3.450  0.5702  0.8411  0.6936
 6605TIP3    H241307   4.351   3.383   3.352  0.4860 -1.0544  1.0814
 6606TIP3   OH241308   3.105   6.484   0.413 -0.5595 -0.8024 -0.0024
 6606TIP3    H141309   3.191   6.514   0.384 -0.1765 -1.6144  0.2628
 6606TIP3    H241310   3.046   6.507   0.342 -0.0692 -0.5116 -0.3203
 6607TIP3   OH241311   1.074   5.168   4.431 -0.3725  0.8568  0.4772
 6607TIP3    H141312   1.156   5.132   4.465 -0.5288 -0.4672 -0.4937
 6607TIP3    H241313   1.044   5.104   4.367 -3.2729  0.2502  2.2847
 6608TIP3   OH241314   5.194   1.408  10.575 -0.7783 -0.1328  0.3496
 6608TIP3    H141315   5.274   1.406  10.522 -0.6104  0.5564  0.5708
 6608TIP3    H241316   5.123   1.411  10.511 -0.6403 -0.8260  0.1507
 6609TIP3   OH241317   4.491   3.181   1.992  0.0131  0.0815  0.3129
 6609TIP3    H141318   4.499   3.206   2.084  0.6963  0.3819  0.1739
 6609TIP3    H241319   4.416   3.121   1.990  1.9835 -2.6288  1.6198
 6610TIP3   OH241320   2.055   3.990  13.433  0.0332  0.2974 -0.0589
 6610TIP3    H141321   2.062   3.905  13.475 -0.3527  0.2804 -0.0247
 6610TIP3    H241322   2.129   3.993  13.372 -1.7397 -1.4170 -2.4901
 6611TIP3   OH241323   0.959   6.236  14.342 -0.1069  0.0581 -0.1347
 6611TIP3    H141324   0.930   6.244  14.251  0.1761  0.1880 -0.2170
 6611TIP3    H241325   1.053   6.252  14.338 -0.0365 -0.2758  0.1353
 6612TIP3   OH241326   5.013   5.777   2.343 -0.5077 -0.4171  0.7920
 6612TIP3    H141327   5.007   5.855   2.397  0.6099 -0.2911  0.7499
 6612TIP3    H241328   5.106   5.756   2.340 -0.6522 -0.9932 -0.2714
 6613TIP3   OH241329   5.137   2.574  10.715 -0.4723  0.4727 -0.1055
 6613TIP3    H141330   5.045   2.555  10.696 -1.4401 -1.5969  5.0364
 6613TIP3    H241331   5.178   2.488  10.723  1.9805  1.3525 -1.9268
 6614TIP3   OH241332   3.561   1.595  13.551  0.0235 -0.3543  0.0564
 6614TIP3    H141333   3.493   1.659  13.532 -0.8849 -1.3045  0.0416
 6614TIP3    H241334   3.597   1.623  13.636  0.7736  1.0912 -0.6991
 6615TIP3   OH241335   1.465   2.869   3.209  0.2377  0.0011 -0.2542
 6615TIP3    H141336   1.480   2.948   3.262  0.8581 -0.1107 -0.2547
 6615TIP3    H241337   1.381   2.836   3.239  0.4136  0.1401  0.4147
 6616TIP3   OH241338   1.306   2.709   2.708 -0.4067  0.4335  0.1226
 6616TIP3    H141339   1.358   2.666   2.776  0.9695 -0.1360 -1.2200
 6616TIP3    H241340   1.345   2.796   2.699 -1.2253  0.8759  0.7195
 6617TIP3   OH241341   1.022   2.614  12.442  0.0045  0.1348 -0.3243
 6617TIP3    H141342   1.044   2.605  12.349  0.0750 -0.3060 -0.2629
 6617TIP3    H241343   1.099   2.655  12.482  0.4215 -0.7123 -0.2495
 6618TIP3   OH241344   0.727   3.964  11.503  0.0749 -0.6910 -0.2913
 6618TIP3    H141345   0.774   3.985  11.423 -0.5464 -0.4565 -0.6054
 6618TIP3    H241346   0.723   3.868  11.505  0.5847 -0.7145 -0.2414
 6619TIP3   OH241347   4.472   4.411   3.761 -0.0129  0.0455 -0.8238
 6619TIP3    H141348   4.520   4.482   3.719  0.9347 -0.2417 -0.2478
 6619TIP3    H241349   4.506   4.408   3.851  1.3251 -2.3025 -1.3271
 6620TIP3   OH241350   5.293   3.411   5.389 -0.0868  0.1985 -0.2651
 6620TIP3    H141351   5.239   3.333   5.402 -0.6379  0.7221  0.6858
 6620TIP3    H241352   5.381   3.383   5.412 -0.0277 -0.5210 -1.3117
 6621TIP3   OH241353   4.147   6.465   3.761 -0.3063 -0.1708  0.3816
 6621TIP3    H141354   4.172   6.465   3.669  0.2958  0.8714  0.5286
 6621TIP3    H241355   4.072   6.406   3.766  0.7733 -1.6623 -0.4541
 6622TIP3   OH241356   2.012   5.211  17.107 -0.0446 -0.2679  0.2138
 6622TIP3    H141357   2.057   5.156  17.042 -0.8658  0.3529 -0.9167
 6622TIP3    H241358   1.969   5.149  17.166  1.7088 -0.8614  0.9255
 6623TIP3   OH241359   5.895   6.295   6.192  0.3907  0.0454  0.1896
 6623TIP3    H141360   5.903   6.390   6.206 -2.9279  0.4161  0.2763
 6623TIP3    H241361   5.882   6.260   6.280  0.3909 -0.3375  0.0371
 6624TIP3   OH241362   2.246   0.933   5.343  0.8501 -0.6425 -0.1919
 6624TIP3    H141363   2.260   0.970   5.430 -1.4427  2.4474 -0.9675
 6624TIP3    H241364   2.170   0.979   5.309  0.3269 -3.2694 -3.0549
 6625TIP3   OH241365   4.544   1.909   4.073 -0.2532 -0.1295  0.0589
 6625TIP3    H141366   4.471   1.966   4.048 -0.1786  0.0147  0.1695
 6625TIP3    H241367   4.600   1.905   3.995  0.0574  0.4391  0.2507
 6626TIP3   OH241368   0.287   3.883   5.510 -0.0218 -0.3836 -0.8209
 6626TIP3    H141369   0.232   3.839   5.445 -0.3268  1.1565 -1.6553
 6626TIP3    H241370   0.229   3.898   5.584  0.3090 -2.0858 -0.1653
 6627TIP3   OH241371   6.331   3.485  11.640 -0.2689  0.0511 -0.5286
 6627TIP3    H141372   6.335   3.512  11.732  0.7790 -0.9759 -0.2454
 6627TIP3    H241373   6.336   3.390  11.643  1.9882  0.0735 -1.7274
 6628TIP3   OH241374   0.283   5.994  11.411  0.4176 -0.2644 -0.6532
 6628TIP3    H141375   0.298   5.949  11.327 -0.4230  0.8352 -1.4290
 6628TIP3    H241376   0.195   6.032  11.402  0.5664  0.3913  0.4878
 6629TIP3   OH241377   4.660   2.062   2.721 -0.0443  0.2102  0.2362
 6629TIP3    H141378   4.646   1.967   2.720  1.8771 -0.1168  0.3160
 6629TIP3    H241379   4.622   2.093   2.639 -1.0635 -0.5471  0.3976
 6630TIP3   OH241380   5.338   4.015  14.819  0.5851  0.2875  0.0386
 6630TIP3    H141381   5.347   3.995  14.913 -2.5758  0.5150  0.5016
 6630TIP3    H241382   5.350   3.931  14.775 -1.5299 -0.6098  1.0276
 6631TIP3   OH241383   3.404   0.745  11.951 -0.0627  0.4545 -0.4947
 6631TIP3    H141384   3.350   0.687  11.897 -1.3626  2.4814 -1.5189
 6631TIP3    H241385   3.381   0.722  12.041 -1.9251  0.5686 -0.8914
 6632TIP3   OH241386   6.825   0.471  11.663 -0.5506 -0.1864 -0.2822
 6632TIP3    H141387   6.750   0.510  11.709 -1.7483 -2.0514 -0.5620
 6632TIP3    H241388   6.819   0.508  11.574 -0.3419  0.6681  0.0455
 6633TIP3   OH241389   1.243   5.243  14.840  0.6382  0.0938  0.1853
 6633TIP3    H141390   1.210   5.173  14.784 -0.2230  1.8397 -1.6100
 6633TIP3    H241391   1.330   5.213  14.866  0.3472 -1.5778 -0.6053
 6634TIP3   OH241392   4.671   4.481  15.061 -0.2024  0.5663  0.1294
 6634TIP3    H141393   4.616   4.525  14.996  0.6048 -0.6072 -1.4281
 6634TIP3    H241394   4.700   4.401  15.018  1.1062  0.1718  1.6273
 6635TIP3   OH241395   0.794   4.118   1.588 -0.5960 -0.1269  0.0637
 6635TIP3    H141396   0.810   4.029   1.620 -1.7315 -0.6842 -0.8590
 6635TIP3    H241397   0.699   4.124   1.579 -0.4705  0.8576 -0.7577
 6636TIP3   OH241398   4.839   1.274   2.900  0.0666 -0.5288 -0.1876
 6636TIP3    H141399   4.745   1.285   2.914  0.2143  0.3511  0.1618
 6636TIP3    H241400   4.866   1.352   2.852  0.7991 -0.2686  0.6096
 6637TIP3   OH241401   3.129   4.611  13.676  0.0735  0.1182  0.4159
 6637TIP3    H141402   3.076   4.575  13.605 -0.4966 -0.0638  0.9241
 6637TIP3    H241403   3.123   4.706  13.664 -1.6625  0.1747  1.3527
 6638TIP3   OH241404   2.407   2.083  11.889 -0.4446 -0.2578 -0.2328
 6638TIP3    H141405   2.485   2.136  11.875  0.7026 -2.1274 -1.3567
 6638TIP3    H241406   2.369   2.117  11.970  1.1807  1.1153  0.0086
 6639TIP3   OH241407   3.191   2.480   3.842 -0.0519  0.3221  0.3042
 6639TIP3    H141408   3.271   2.436   3.870 -1.1830 -1.9014  0.2379
 6639TIP3    H241409   3.166   2.436   3.760 -0.0697  2.6223 -1.0296
 6640TIP3   OH241410   6.504   1.345   0.782 -0.2690  0.5003 -0.0468
 6640TIP3    H141411   6.446   1.288   0.833 -1.1939  1.8330  0.4547
 6640TIP3    H241412   6.544   1.287   0.718  0.2610 -1.0834  1.6101
 6641TIP3   OH241413   3.258   4.190  16.977 -0.1304 -0.3308 -0.7702
 6641TIP3    H141414   3.308   4.217  16.900 -1.6744 -0.6949 -1.9335
 6641TIP3    H241415   3.184   4.251  16.980  0.5615  0.4948  1.1926
 6642TIP3   OH241416   2.656   2.712  15.722 -0.1961  0.2733 -0.0361
 6642TIP3    H141417   2.747   2.740  15.735  0.0554 -0.3925 -0.3437
 6642TIP3    H241418   2.651   2.688  15.629 -0.9733  1.3302 -0.2899
 6643TIP3   OH241419   0.878   4.791  13.145 -0.5255  0.3868 -0.5763
 6643TIP3    H141420   0.855   4.710  13.190  0.5165 -0.7674 -2.0274
 6643TIP3    H241421   0.833   4.785  13.061  1.2488  0.2852 -1.5543
 6644TIP3   OH241422   3.782   2.554   0.519  0.1018  0.3877 -0.1524
 6644TIP3    H141423   3.821   2.637   0.490 -0.0514  0.5893  0.2063
 6644TIP3    H241424   3.791   2.495   0.444  1.2984  0.3612 -0.0132
 6645TIP3   OH241425   1.059   6.079  16.565  0.3448  0.5766 -0.0165
 6645TIP3    H141426   0.975   6.100  16.524  0.3577  0.8303  0.0804
 6645TIP3    H241427   1.041   6.006  16.623  0.0430  1.0840  0.5319
 6646TIP3   OH241428   3.225   4.889  16.505  0.3029  0.1874 -0.7751
 6646TIP3    H141429   3.203   4.944  16.430  1.7675  0.3891 -1.1012
 6646TIP3    H241430   3.163   4.816  16.500  0.6254 -0.0228 -2.4500
 6647TIP3   OH241431   4.015   5.952   1.161 -0.2187 -0.2974 -0.1467
 6647TIP3    H141432   4.049   5.981   1.245  1.0043  0.0672 -0.7510
 6647TIP3    H241433   3.924   5.928   1.179 -0.5560  1.5781  0.8842
 6648TIP3   OH241434   0.730   2.627  12.769  0.9148 -0.0469  0.4997
 6648TIP3    H141435   0.810   2.679  12.769  1.7571 -1.2846 -0.6389
 6648TIP3    H241436   0.704   2.623  12.861  0.3745  2.9842  0.5844
 6649TIP3   OH241437   0.660   0.714   4.485 -0.5962 -0.4499 -0.4863
 6649TIP3    H141438   0.755   0.728   4.494 -1.0086  0.9153  3.4648
 6649TIP3    H241439   0.633   0.779   4.420  0.9783  0.0151 -0.7336
 6650TIP3   OH241440   0.524   2.509   4.327  0.7703  0.7865  0.1510
 6650TIP3    H141441   0.580   2.516   4.404  1.2888  1.0888 -0.2527
 6650TIP3    H241442   0.552   2.428   4.284 -0.1326  0.1365  0.7610
 6651TIP3   OH241443   6.037   5.335  16.760  0.0134 -0.1011 -0.2139
 6651TIP3    H141444   6.044   5.346  16.855  0.8168  1.0182 -0.3738
 6651TIP3    H241445   6.110   5.386  16.725  1.0075 -2.1870 -1.3686
 6652TIP3   OH241446   2.933   4.108  17.087 -0.0519 -0.1577 -0.5958
 6652TIP3    H141447   2.926   4.064  17.003  0.3171 -0.6605 -0.3669
 6652TIP3    H241448   2.943   4.201  17.065  0.1302 -0.2989 -1.1075
 6653TIP3   OH241449   1.511   6.074  13.686 -0.4949  0.7093  0.0654
 6653TIP3    H141450   1.466   6.035  13.611  1.2897  0.6334 -1.0105
 6653TIP3    H241451   1.604   6.067  13.666  0.0273  1.3913  1.9477
 6654TIP3   OH241452   3.839   5.942  15.777 -0.4935 -0.2826 -0.0575
 6654TIP3    H141453   3.891   5.912  15.852  2.5227  0.1002 -1.8248
 6654TIP3    H241454   3.903   5.982  15.718 -2.8010 -0.0286 -2.5845
 6655TIP3   OH241455   4.427   4.299  12.888  0.4757  0.2295  0.0148
 6655TIP3    H141456   4.342   4.255  12.891  0.0887  1.0214  1.4183
 6655TIP3    H241457   4.490   4.227  12.877 -0.3348 -0.4011 -0.6276
 6656TIP3   OH241458   6.504   6.506   0.096 -0.8408  0.0041 -0.1642
 6656TIP3    H141459   6.570   6.461   0.042 -0.3868 -0.9043  1.1140
 6656TIP3    H241460   6.424   6.455   0.084 -1.3521  1.0880 -1.6902
 6657TIP3   OH241461   5.475   0.263  15.479  0.1929 -0.0888 -0.0771
 6657TIP3    H141462   5.542   0.324  15.511 -1.6591  1.4484  1.0798
 6657TIP3    H241463   5.415   0.318  15.429 -0.7249 -1.2508 -0.2812
 6658TIP3   OH241464   5.012   3.227  15.732  0.7416 -0.2620 -0.0055
 6658TIP3    H141465   5.057   3.159  15.782  1.3124 -0.1586 -0.3718
 6658TIP3    H241466   4.940   3.181  15.689  0.6185 -0.4694  0.4166
 6659TIP3   OH241467   3.181   0.897  16.693 -0.1649  0.0034  0.1437
 6659TIP3    H141468   3.274   0.876  16.706 -0.4155 -0.6391  0.9374
 6659TIP3    H241469   3.166   0.882  16.600  0.7243  0.9184 -0.1644
 6660TIP3   OH241470   2.059   5.152  13.507  0.7663 -0.2470 -0.3950
 6660TIP3    H141471   2.078   5.226  13.449  2.0717 -0.5742 -0.4118
 6660TIP3    H241472   2.114   5.081  13.475  2.9131  0.0439  2.2304
 6661TIP3   OH241473   4.833   0.323  15.412 -0.0589 -0.5631  0.0782
 6661TIP3    H141474   4.892   0.396  15.393 -0.0769 -1.1301 -2.7299
 6661TIP3    H241475   4.892   0.251  15.435  0.2720 -0.6205 -0.8675
 6662TIP3   OH241476   0.585   4.304   5.482  0.2359  0.2307 -0.3436
 6662TIP3    H141477   0.540   4.284   5.564  1.1706  0.6999  0.3101
 6662TIP3    H241478   0.518   4.297   5.415 -0.8324  0.9940  0.6033
 6663TIP3   OH241479   1.022   5.741  15.502 -0.4367  0.0776  0.0536
 6663TIP3    H141480   1.104   5.697  15.525  0.9306  2.3678 -0.0215
 6663TIP3    H241481   1.027   5.751  15.407  0.6351  2.6315  0.2898
 6664TIP3   OH241482   6.780   0.245  13.226 -0.5734 -0.5588  0.6903
 6664TIP3    H141483   6.757   0.247  13.133 -1.3456 -2.6726  0.7933
 6664TIP3    H241484   6.714   0.302  13.268 -0.9493 -0.5412  0.0930
 6665TIP3   OH241485   5.489   3.119  17.097  0.0464 -0.1101 -0.7599
 6665TIP3    H141486   5.442   3.041  17.068  0.3990 -1.4378  1.9086
 6665TIP3    H241487   5.434   3.157  17.165  1.3504  0.0884  0.2324
 6666TIP3   OH241488   5.509   2.950  15.460 -0.0971 -0.7064  0.4282
 6666TIP3    H141489   5.476   2.887  15.524 -0.0767 -0.6658  0.4789
 6666TIP3    H241490   5.557   3.014  15.513 -1.5757  0.3203  0.5872
 6667TIP3   OH241491   4.683   2.403  12.458  0.7204 -0.5071 -0.2431
 6667TIP3    H141492   4.777   2.405  12.443  1.1768 -1.3178  2.0919
 6667TIP3    H241493   4.667   2.321  12.504 -0.6572  0.8397  1.9140
 6668TIP3   OH241494   3.524   6.610   0.985  0.1189  0.3503 -0.3923
 6668TIP3    H141495   3.526   6.621   1.081  0.1492  1.8126 -0.5332
 6668TIP3    H241496   3.574   6.531   0.969  0.7159  0.4717  0.7659
 6669TIP3   OH241497   4.366   0.506  15.707  0.6625  0.2980 -0.1224
 6669TIP3    H141498   4.270   0.504  15.703  0.7026  0.5988 -1.5578
 6669TIP3    H241499   4.392   0.414  15.715  0.2817  0.1724 -0.3361
 6670TIP3   OH241500   6.722   0.098   0.285  0.4076  0.7164 -0.2160
 6670TIP3    H141501   6.703   0.174   0.231 -2.1459 -0.0095 -0.4596
 6670TIP3    H241502   6.714   0.129   0.375 -0.7287  0.7520 -0.3152
 6671TIP3   OH241503   3.320   5.362   1.583  0.2290  0.2832 -0.1931
 6671TIP3    H141504   3.346   5.271   1.597  0.4062  0.6182  1.9657
 6671TIP3    H241505   3.403   5.409   1.574  0.2680  0.6038  1.5290
 6672TIP3   OH241506   2.736   2.374  15.040  0.2735  0.0349  0.6429
 6672TIP3    H141507   2.673   2.440  15.011 -0.2758 -1.2558 -1.3005
 6672TIP3    H241508   2.798   2.422  15.095  1.8885  2.9992 -3.3291
 6673TIP3   OH241509   4.538   6.725  12.426 -0.0766 -0.0291 -0.0296
 6673TIP3    H141510   4.552   6.736  12.332  0.1389 -0.0230  0.0015
 6673TIP3    H241511   4.539   6.630  12.440  2.3832 -0.0249  0.3070
 6674TIP3   OH241512   4.952   4.241  14.513  0.5756  0.0115  0.0055
 6674TIP3    H141513   5.042   4.264  14.536  1.1768 -2.3526  0.2820
 6674TIP3    H241514   4.929   4.173  14.576  0.1017 -2.3826 -2.5840
 6675TIP3   OH241515   6.780   0.451  13.556  0.0454 -0.2623  0.1556
 6675TIP3    H141516   6.769   0.516  13.625  0.8371  0.8205 -0.6923
 6675TIP3    H241517   6.691   0.426  13.532 -0.2356 -1.2863  2.1005
 6676TIP3   OH241518   4.450   2.090  14.578  0.1188 -0.0724 -0.1679
 6676TIP3    H141519   4.486   2.075  14.491  0.0924  0.0851 -0.2070
 6676TIP3    H241520   4.447   2.004  14.619  0.6899 -0.0660 -0.1033
 6677TIP3   OH241521   4.726   4.591   0.158  0.1391  0.2968 -0.4467
 6677TIP3    H141522   4.820   4.577   0.153  0.1748 -0.0210  0.8376
 6677TIP3    H241523   4.691   4.546   0.082  0.7864 -1.9493  0.4912
 6678TIP3   OH241524   2.156   2.089  15.782 -0.4328 -0.2325  0.2239
 6678TIP3    H141525   2.142   2.041  15.863  1.0813 -0.4178  0.4053
 6678TIP3    H241526   2.242   2.059  15.751 -0.1548  1.2087 -0.4702
 6679TIP3   OH241527   4.299   1.668   2.193  0.1188  0.1533  0.1959
 6679TIP3    H141528   4.261   1.614   2.262  0.5321 -0.5988 -0.1541
 6679TIP3    H241529   4.344   1.606   2.135 -2.7363  0.3472 -2.4708
 6680TIP3   OH241530   1.305   1.228   3.553  0.1183  0.1248  0.4216
 6680TIP3    H141531   1.286   1.297   3.488  4.2945  0.8151 -0.3797
 6680TIP3    H241532   1.271   1.263   3.635 -0.7447  1.6542 -0.5243
 6681TIP3   OH241533   5.941   1.047   4.825  0.4191  0.5860  0.0436
 6681TIP3    H141534   6.018   1.044   4.881 -1.1333 -1.2829  2.2620
 6681TIP3    H241535   5.951   1.128   4.775  2.2906  1.9713  2.4378
 6682TIP3   OH241536   0.817   3.124  11.377 -0.0985 -0.2177 -0.5612
 6682TIP3    H141537   0.872   3.140  11.301  0.3314  0.1850 -0.1705
 6682TIP3    H241538   0.728   3.142  11.346 -0.1186 -1.6403 -1.4129
 6683TIP3   OH241539   5.137   3.882  15.294  0.1628 -0.3544  0.8914
 6683TIP3    H141540   5.073   3.841  15.353  0.6495 -1.3285  0.7638
 6683TIP3    H241541   5.137   3.974  15.319 -0.9673 -0.4237  1.1927
 6684TIP3   OH241542   6.589   6.272  16.116  0.0494 -0.0613 -0.1642
 6684TIP3    H141543   6.640   6.282  16.196  1.5201 -0.7198 -0.9798
 6684TIP3    H241544   6.630   6.331  16.053 -1.5865  1.0694 -0.2587
 6685TIP3   OH241545   6.139   2.672   5.588 -0.5928  0.2119  0.2722
 6685TIP3    H141546   6.170   2.582   5.586 -1.8005 -0.2143 -1.2895
 6685TIP3    H241547   6.205   2.719   5.639  0.3389 -1.4378  0.6556
 6686TIP3   OH241548   6.014   4.708   5.052  0.4044 -0.0688 -0.2269
 6686TIP3    H141549   6.017   4.747   4.965  0.0351 -0.5125 -0.4454
 6686TIP3    H241550   6.016   4.782   5.112 -1.1488  0.3542 -0.6500
 6687TIP3   OH241551   5.294   5.913   5.409 -0.3640  0.2493  0.6568
 6687TIP3    H141552   5.318   5.965   5.332 -0.1485 -0.0383  0.5295
 6687TIP3    H241553   5.198   5.912   5.408 -0.3855 -1.1964 -0.5948
 6688TIP3   OH241554   5.171   5.693  12.523 -0.1645 -0.1130  0.6055
 6688TIP3    H141555   5.084   5.733  12.522 -0.2864 -0.1991 -2.4605
 6688TIP3    H241556   5.231   5.766  12.506  0.1909 -0.3180  0.9741
 6689TIP3   OH241557   5.392   2.576  16.168 -0.3073 -0.3377  0.2132
 6689TIP3    H141558   5.418   2.546  16.082  0.1858 -2.2592  0.9881
 6689TIP3    H241559   5.395   2.672  16.162  0.5082 -0.4423 -1.6316
 6690TIP3   OH241560   2.877   5.960  17.011 -0.4197 -0.1824  0.2480
 6690TIP3    H141561   2.820   5.890  16.978 -1.5433  0.4024  0.8892
 6690TIP3    H241562   2.822   6.008  17.072  0.6291  0.7150  0.5037
 6691TIP3   OH241563   2.103   4.135  12.401  0.5430  0.0496  0.3547
 6691TIP3    H141564   2.117   4.047  12.437 -0.0357 -0.0557  0.3340
 6691TIP3    H241565   2.147   4.132  12.316 -1.5212 -1.0525 -0.7731
 6692TIP3   OH241566   1.143   1.376   0.112 -0.2540 -0.0305 -0.3865
 6692TIP3    H141567   1.184   1.402   0.030  2.3062 -1.5923  0.2680
 6692TIP3    H241568   1.124   1.458   0.158  2.5437  0.8293 -0.6207
 6693TIP3   OH241569   6.735   6.299  14.424 -0.5677 -0.7924 -0.0045
 6693TIP3    H141570   6.792   6.232  14.463 -1.1374 -0.4577  1.4971
 6693TIP3    H241571   6.710   6.263  14.339  1.2172 -1.3038 -0.3568
 6694TIP3   OH241572   4.999   4.313   4.740  0.1670 -0.3141 -0.2946
 6694TIP3    H141573   4.934   4.304   4.810  1.0620 -2.1352  0.3563
 6694TIP3    H241574   4.949   4.306   4.659 -0.7669  0.9812  0.1261
 6695TIP3   OH241575   0.954   0.551  13.922 -0.0956 -0.3818 -0.0502
 6695TIP3    H141576   0.898   0.581  13.850 -0.6997 -0.3209  0.4282
 6695TIP3    H241577   0.913   0.469  13.950 -0.0676 -0.2350  0.4342
 6696TIP3   OH241578   6.097   0.163  13.605  0.4709  0.4724 -0.0375
 6696TIP3    H141579   6.050   0.243  13.631 -1.6504 -0.7838  0.2457
 6696TIP3    H241580   6.029   0.096  13.601  1.8589 -0.9132 -2.2323
 6697TIP3   OH241581   6.439   3.597  12.731 -0.4944 -0.0803 -0.3702
 6697TIP3    H141582   6.451   3.659  12.803  2.8124 -0.6138 -0.3078
 6697TIP3    H241583   6.510   3.617  12.671 -1.5164 -1.4921 -2.1267
 6698TIP3   OH241584   4.994   3.433   5.593 -0.1671 -0.1906 -0.1416
 6698TIP3    H141585   5.014   3.448   5.686 -0.5657  1.1767 -0.2572
 6698TIP3    H241586   4.900   3.452   5.586  0.2426  1.6794 -1.1761
 6699TIP3   OH241587   6.507   0.906   2.346 -0.2606 -0.4746  0.1819
 6699TIP3    H141588   6.508   0.910   2.250  1.2704 -2.6903  0.0209
 6699TIP3    H241589   6.599   0.909   2.371 -0.6557  0.4057  1.6374
 6700TIP3   OH241590   0.608   1.259  16.563 -0.1269 -0.2554  0.0491
 6700TIP3    H141591   0.669   1.233  16.494  0.9170 -0.1735  0.9127
 6700TIP3    H241592   0.633   1.206  16.638 -0.1438  0.8404  0.8481
 6701TIP3   OH241593   6.649   0.931   0.197  0.6605 -0.2086  0.4722
 6701TIP3    H141594   6.722   0.923   0.259  1.7659  0.7768 -0.6539
 6701TIP3    H241595   6.606   1.012   0.222 -0.8429 -1.3623  1.8823
 6702TIP3   OH241596   0.918   0.500  12.438  0.0993 -0.3271 -0.0684
 6702TIP3    H141597   0.842   0.550  12.469  1.3151  0.2421  2.2029
 6702TIP3    H241598   0.908   0.414  12.479  0.4570 -0.3845 -0.0997
 6703TIP3   OH241599   0.489   6.570  10.632 -0.9944  0.2796 -0.3900
 6703TIP3    H141600   0.553   6.589  10.700  0.2017 -1.7927 -0.8425
 6703TIP3    H241601   0.538   6.580  10.550 -1.0613 -1.6944 -0.7336
 6704TIP3   OH241602   6.465   1.673   3.606 -0.0614 -0.1284  0.1084
 6704TIP3    H141603   6.466   1.656   3.700  0.0719  2.5725  0.6838
 6704TIP3    H241604   6.509   1.758   3.597  0.1803 -0.4582 -2.4298
 6705TIP3   OH241605   4.102   5.066  14.480  0.3568  0.3529 -0.2087
 6705TIP3    H141606   4.010   5.039  14.472  0.0346  1.3921 -0.0558
 6705TIP3    H241607   4.115   5.130  14.410  1.0108  0.1104 -0.3198
 6706TIP3   OH241608   2.681   5.784   0.321 -0.0215  0.6273  0.2567
 6706TIP3    H141609   2.756   5.734   0.289 -0.2446  0.8919 -0.7138
 6706TIP3    H241610   2.606   5.725   0.308 -0.1164  0.7339  0.3124
 6707TIP3   OH241611   6.236   3.807   5.137 -0.0726  0.4496 -0.4942
 6707TIP3    H141612   6.143   3.808   5.117  0.4669  1.4937 -3.5333
 6707TIP3    H241613   6.269   3.727   5.095  0.6319  0.9450 -0.9197
 6708TIP3   OH241614   4.519   1.521  16.082  0.0682 -0.0908  0.1645
 6708TIP3    H141615   4.518   1.493  15.990  0.9897 -1.1142  0.4461
 6708TIP3    H241616   4.438   1.570  16.092 -1.6163 -2.5222 -0.4372
 6709TIP3   OH241617   0.470   2.016   0.234  0.0005  0.5807  0.1403
 6709TIP3    H141618   0.400   2.062   0.281 -0.6002 -0.2113  0.0396
 6709TIP3    H241619   0.520   2.086   0.190 -0.1513  1.2271  0.9782
 6710TIP3   OH241620   4.518   4.160   2.929  0.1843  0.5254  0.3051
 6710TIP3    H141621   4.592   4.193   2.879  0.3409  0.1783  0.3057
 6710TIP3    H241622   4.501   4.073   2.891  0.2080  0.3236  0.7548
 6711TIP3   OH241623   3.833   2.073   0.780 -0.5024  0.4492 -0.5214
 6711TIP3    H141624   3.843   2.123   0.699 -0.7320  0.1834 -0.7154
 6711TIP3    H241625   3.771   2.004   0.758  0.5258 -0.4977 -0.5188
 6712TIP3   OH241626   4.505   3.510   3.088 -0.3801  0.7050 -0.0900
 6712TIP3    H141627   4.574   3.569   3.057 -0.4010  0.1233 -1.3243
 6712TIP3    H241628   4.551   3.446   3.142 -0.1989  1.2269  0.3836
 6713TIP3   OH241629   1.570   6.272  13.439  0.0222  0.4245 -0.3170
 6713TIP3    H141630   1.549   6.329  13.513  0.8063 -0.5396  0.6759
 6713TIP3    H241631   1.504   6.293  13.373 -0.3551  1.6960  0.4440
 6714TIP3   OH241632   0.359   4.850   0.011  0.2713 -0.3504  0.2252
 6714TIP3    H141633   0.282   4.794   0.025  0.1436 -0.5694 -1.2211
 6714TIP3    H241634   0.324   4.939   0.016 -0.2255 -0.4513 -1.0437
 6715TIP3   OH241635   4.117   0.875   3.959 -0.0431  0.4568  0.6530
 6715TIP3    H141636   4.163   0.823   4.025  0.3166 -1.7893 -1.2197
 6715TIP3    H241637   4.026   0.849   3.967  0.3735 -2.1058 -1.4969
 6716TIP3   OH241638   0.092   1.988   0.061 -0.1651 -0.1531 -0.2810
 6716TIP3    H141639   0.153   2.054   0.093  0.3700 -0.5492 -0.4620
 6716TIP3    H241640   0.143   1.907   0.059 -0.6128 -0.4343 -0.7069
 6717TIP3   OH241641   3.002   0.717  12.534  0.1324  0.3017 -0.5235
 6717TIP3    H141642   3.061   0.733  12.608  0.1830  0.1244 -0.5246
 6717TIP3    H241643   2.977   0.625  12.542  0.1193  0.2874 -0.7133
 6718TIP3   OH241644   0.812   5.322  11.230 -0.3906  0.5764  0.2780
 6718TIP3    H141645   0.783   5.374  11.156  0.2947 -0.0184 -0.4197
 6718TIP3    H241646   0.826   5.234  11.195  0.6096  0.4515  0.9404
 6719TIP3   OH241647   5.939   2.544   4.879  0.5854  0.0039  0.5043
 6719TIP3    H141648   5.880   2.615   4.904 -2.3942 -2.5586  1.3933
 6719TIP3    H241649   5.898   2.505   4.802  2.5792 -0.3306 -0.4441
 6720TIP3   OH241650   6.044   0.049   2.225 -0.0153  0.0980  0.9810
 6720TIP3    H141651   6.076  -0.016   2.162  1.9296  1.1063  0.8703
 6720TIP3    H241652   5.977   0.002   2.275 -2.2754 -0.4941 -2.3337
 6721TIP3   OH241653   0.575   3.315  14.545 -0.6070  0.4278  0.2364
 6721TIP3    H141654   0.610   3.395  14.584  0.4353  0.0230  0.1643
 6721TIP3    H241655   0.480   3.326  14.548 -0.4829  1.8693 -0.1940
 6722TIP3   OH241656   2.445   4.319   4.291  0.3580  0.3777  0.3974
 6722TIP3    H141657   2.445   4.372   4.212  0.7970 -0.0023  0.1379
 6722TIP3    H241658   2.372   4.258   4.280  0.2264  0.5303  0.4268
 6723TIP3   OH241659   2.181   3.335   3.727  0.4588 -0.3787 -0.6059
 6723TIP3    H141660   2.105   3.350   3.672  0.1447 -1.4080 -0.4785
 6723TIP3    H241661   2.179   3.406   3.792  0.1534  0.1387 -1.1773
 6724TIP3   OH241662   1.167   3.653   6.165 -0.9183 -0.5462  0.1910
 6724TIP3    H141663   1.181   3.605   6.246  0.7189  0.0643  0.3077
 6724TIP3    H241664   1.078   3.687   6.172 -0.9729 -0.9102  1.5060
 6725TIP3   OH241665   0.517   2.533   5.863 -0.6807  0.0871 -0.0260
 6725TIP3    H141666   0.536   2.622   5.834 -1.8297  0.3920  0.1093
 6725TIP3    H241667   0.471   2.544   5.946  2.5443 -0.7625  2.0411
 6726TIP3   OH241668   2.363   4.014  14.782 -0.4879  0.1177  0.3695
 6726TIP3    H141669   2.408   4.090  14.746 -0.6200 -0.1412 -0.3590
 6726TIP3    H241670   2.376   3.945  14.717 -2.3197  0.1662 -0.1140
 6727TIP3   OH241671   1.721   2.201   6.106 -0.1498  0.0807 -0.0621
 6727TIP3    H141672   1.801   2.152   6.124  0.2267  1.0982  1.1509
 6727TIP3    H241673   1.650   2.139   6.123  0.2580  0.2714  2.9494
 6728TIP3   OH241674   6.618   0.251   3.676 -0.0164  0.1761 -0.4196
 6728TIP3    H141675   6.608   0.159   3.702 -1.4493 -0.0487 -1.6549
 6728TIP3    H241676   6.530   0.287   3.679  0.0861  0.7544 -2.5773
 6729TIP3   OH241677   2.254   2.463   3.290  0.4928 -0.3828 -0.2587
 6729TIP3    H141678   2.220   2.493   3.374  0.5818 -0.8305 -0.0562
 6729TIP3    H241679   2.348   2.485   3.292  0.2211  0.9189 -0.8478
 6730TIP3   OH241680   1.944   5.120  16.210  0.0645 -0.4900 -0.6627
 6730TIP3    H141681   1.970   5.046  16.154  1.3617  0.1094 -0.9042
 6730TIP3    H241682   1.963   5.090  16.299 -0.9573 -1.0365 -0.6128
 6731TIP3   OH241683   6.505   4.267   3.023  0.0327  0.6044  1.1518
 6731TIP3    H141684   6.590   4.235   2.992  0.2722 -0.2915  2.6621
 6731TIP3    H241685   6.482   4.337   2.962  0.6942 -0.7534 -0.7329
 6732TIP3   OH241686   6.699   0.796   6.195 -0.3724 -0.3725  0.4741
 6732TIP3    H141687   6.710   0.798   6.290 -1.3101  0.1142  0.5882
 6732TIP3    H241688   6.785   0.771   6.161 -0.3037 -1.6006  1.4971
 6733TIP3   OH241689   3.580   0.093   2.042 -0.0443 -0.6252  0.0353
 6733TIP3    H141690   3.527   0.014   2.034 -0.9065 -0.1001  0.4543
 6733TIP3    H241691   3.670   0.061   2.045 -0.0863 -1.4053 -3.2941
 6734TIP3   OH241692   1.784   6.596   3.344 -0.0894 -0.9274 -0.3625
 6734TIP3    H141693   1.852   6.543   3.386  0.9853 -0.8506 -1.9531
 6734TIP3    H241694   1.703   6.548   3.363  0.4890 -1.5223  0.7575
 6735TIP3   OH241695   6.407   5.344   5.266 -0.1606  0.3077  0.3975
 6735TIP3    H141696   6.501   5.357   5.251  0.1001 -0.7704  0.9177
 6735TIP3    H241697   6.364   5.390   5.195  0.8614 -1.3861 -1.4330
 6736TIP3   OH241698   3.795   1.534   3.273 -0.1341 -0.3969 -0.6173
 6736TIP3    H141699   3.744   1.558   3.196 -2.0230 -1.3610  0.2452
 6736TIP3    H241700   3.774   1.441   3.288  0.8122 -0.4545  0.5826
 6737TIP3   OH241701   3.369   0.163  12.389  0.3378 -0.0091  0.7028
 6737TIP3    H141702   3.439   0.223  12.416  1.6899 -0.9144 -0.6515
 6737TIP3    H241703   3.400   0.125  12.308 -1.6165 -0.7028  0.2298
 6738TIP3   OH241704   5.492   5.508  12.788 -0.2828 -0.3353 -0.2564
 6738TIP3    H141705   5.552   5.459  12.732  0.0094 -0.6379  0.3187
 6738TIP3    H241706   5.420   5.448  12.805 -2.1798  0.8821 -3.1643
 6739TIP3   OH241707   1.989   5.609  12.800 -0.3416 -0.0688 -0.5070
 6739TIP3    H141708   1.954   5.674  12.739 -1.0641 -0.0193 -0.0503
 6739TIP3    H241709   1.956   5.525  12.768  0.8417 -0.2593 -1.2723
 6740TIP3   OH241710   1.117   3.656  16.831  0.4471 -0.2815  0.2471
 6740TIP3    H141711   1.132   3.629  16.922  0.7684 -3.2351 -0.5562
 6740TIP3    H241712   1.095   3.574  16.786  1.9448  0.7871 -2.6792
 6741TIP3   OH241713   6.563   1.592   0.321  0.0207 -0.1852  0.1600
 6741TIP3    H141714   6.588   1.540   0.245  1.5857  0.0383  0.4879
 6741TIP3    H241715   6.564   1.683   0.289 -0.1536 -0.1589  0.2301
 6742TIP3   OH241716   0.312   0.626  12.876  0.2523 -0.4324 -0.1474
 6742TIP3    H141717   0.265   0.573  12.940  1.4714 -0.3840  0.8260
 6742TIP3    H241718   0.317   0.570  12.798  0.3342 -1.2292  0.4153
 6743TIP3   OH241719   3.067   1.472  13.715 -0.5531  0.5670  0.3975
 6743TIP3    H141720   3.032   1.560  13.697 -0.3139  0.6018  0.0823
 6743TIP3    H241721   3.049   1.457  13.807 -1.8811  0.3697  0.1316
 6744TIP3   OH241722   4.511   4.923  15.580 -0.1823  0.6209 -0.4088
 6744TIP3    H141723   4.576   4.989  15.604  1.7376 -0.1603 -3.0100
 6744TIP3    H241724   4.547   4.841  15.612 -2.3785  0.6099  2.4716
 6745TIP3   OH241725   3.680   4.081   4.916 -0.5368 -0.1467  0.2263
 6745TIP3    H141726   3.587   4.101   4.918 -0.8949 -1.7424  0.8340
 6745TIP3    H241727   3.708   4.106   4.828 -0.7504  3.4504  1.0240
 6746TIP3   OH241728   5.637   4.927  12.510  0.2099 -0.4227  0.4934
 6746TIP3    H141729   5.674   4.891  12.590  0.0740 -5.2687 -1.2634
 6746TIP3    H241730   5.543   4.936  12.528  0.1377 -1.7578  0.8507
 6747TIP3   OH241731   1.468   1.100  12.166  0.0856 -0.0119 -0.3783
 6747TIP3    H141732   1.478   1.054  12.249 -1.1088 -1.0303 -0.7659
 6747TIP3    H241733   1.505   1.187  12.182  1.9414 -0.9131  0.5298
 6748TIP3   OH241734   3.306   2.743  15.899  0.0018  0.0147 -0.5892
 6748TIP3    H141735   3.269   2.809  15.840 -3.2138 -0.7869  0.3494
 6748TIP3    H241736   3.238   2.727  15.964  1.5891 -2.4977  0.6347
 6749TIP3   OH241737   1.888   1.851  12.914 -0.4258 -0.2935 -0.0866
 6749TIP3    H141738   1.830   1.848  12.990  0.0420  0.2567  0.2996
 6749TIP3    H241739   1.829   1.851  12.839 -1.0994  2.5399  0.3100
 6750TIP3   OH241740   5.287   4.386   6.445  0.2393 -0.4804  1.0574
 6750TIP3    H141741   5.199   4.374   6.410 -0.3153  1.9799  1.4214
 6750TIP3    H241742   5.343   4.333   6.389 -1.0015  0.9280 -1.6923
 6751TIP3   OH241743   0.939   0.697  16.666  0.0983  0.3250 -0.0989
 6751TIP3    H141744   0.891   0.694  16.583 -1.3654  1.1445  0.6791
 6751TIP3    H241745   1.031   0.701  16.640 -0.3265  0.6680 -1.6780
 6752TIP3   OH241746   3.058   1.961  14.182 -0.3889 -0.3193  0.5836
 6752TIP3    H141747   3.043   1.938  14.090  2.8462 -2.2046  0.3995
 6752TIP3    H241748   3.067   2.056  14.182  0.7060 -0.3863 -1.2605
 6753TIP3   OH241749   0.536   6.469   3.210  0.1501 -0.0614 -0.8242
 6753TIP3    H141750   0.537   6.499   3.119  1.1476  0.2697 -0.7226
 6753TIP3    H241751   0.447   6.439   3.225  0.3357 -1.4745 -2.3466
 6754TIP3   OH241752   4.313   3.576   2.605 -0.0603  0.2342 -0.4099
 6754TIP3    H141753   4.227   3.533   2.609  0.8581 -1.6247  0.8285
 6754TIP3    H241754   4.347   3.555   2.518 -0.3022 -0.1693 -0.4085
 6755TIP3   OH241755   5.475   4.825   0.707 -0.4497 -0.4141  0.2330
 6755TIP3    H141756   5.380   4.822   0.705 -0.4719 -0.0641  0.6473
 6755TIP3    H241757   5.499   4.897   0.649 -0.4437 -0.4201  0.2278
 6756TIP3   OH241758   1.974   4.880   1.543  0.4106  0.1569 -0.4434
 6756TIP3    H141759   1.918   4.923   1.607 -1.2702 -2.1598 -0.2205
 6756TIP3    H241760   1.918   4.865   1.467  1.1770 -0.7487 -0.8603
 6757TIP3   OH241761   2.498   6.201   3.326  0.3846  0.2183  0.7724
 6757TIP3    H141762   2.517   6.287   3.289 -0.1290  0.2649  0.5940
 6757TIP3    H241763   2.458   6.220   3.411  1.6714  0.1068  1.4183
 6758TIP3   OH241764   4.260   4.593   1.376 -0.2426 -0.1809 -0.2917
 6758TIP3    H141765   4.174   4.622   1.347 -0.8701 -0.4119  1.2312
 6758TIP3    H241766   4.242   4.532   1.448  1.2065  0.8424  1.0104
 6759TIP3   OH241767   3.907   4.662   5.667 -0.0138 -0.1659 -0.1922
 6759TIP3    H141768   3.817   4.694   5.657  0.7150  1.7603 -1.0795
 6759TIP3    H241769   3.903   4.570   5.640 -1.3188  0.4916 -2.5597
 6760TIP3   OH241770   4.962   5.616  16.715  0.2408 -0.3529  0.2838
 6760TIP3    H141771   4.932   5.537  16.759 -0.1883  0.5352  1.6361
 6760TIP3    H241772   5.044   5.591  16.673  0.1538 -1.4824  0.7772
 6761TIP3   OH241773   1.594   5.866   5.351 -0.3160 -0.5122 -0.1190
 6761TIP3    H141774   1.663   5.803   5.332  0.5116  0.0771  0.8336
 6761TIP3    H241775   1.572   5.903   5.265 -0.7618 -1.9931 -0.6820
 6762TIP3   OH241776   2.363   5.831  11.136  0.3467 -0.0760 -0.1503
 6762TIP3    H141777   2.351   5.772  11.061  0.3087  0.7606 -0.8070
 6762TIP3    H241778   2.285   5.887  11.135  2.2025  2.7444 -2.0566
 6763TIP3   OH241779   3.510   6.463  16.964 -0.2203 -0.0911 -0.1309
 6763TIP3    H141780   3.447   6.455  16.892  1.0295 -0.5140 -1.2076
 6763TIP3    H241781   3.524   6.557  16.973  0.9977 -0.1044 -1.6952
 6764TIP3   OH241782   4.115   1.860  15.514  0.1769  0.3768  0.1815
 6764TIP3    H141783   4.172   1.797  15.471 -1.9991 -2.2805  0.9097
 6764TIP3    H241784   4.049   1.807  15.558 -1.1371  3.1597  1.8703
 6765TIP3   OH241785   6.337   4.199  11.491  0.0653  0.1194  0.4214
 6765TIP3    H141786   6.300   4.223  11.576 -0.9135 -0.5381  0.1986
 6765TIP3    H241787   6.337   4.280  11.441 -0.0637  0.3547  0.7972
 6766TIP3   OH241788   2.938   3.592  15.606  0.5714  0.0529 -0.3188
 6766TIP3    H141789   2.900   3.662  15.659 -0.2126  1.0127 -2.0572
 6766TIP3    H241790   2.877   3.519  15.615 -1.2222  1.1986 -2.1674
 6767TIP3   OH241791   1.893   4.542   1.242 -0.2595 -0.1200 -0.3030
 6767TIP3    H141792   1.818   4.600   1.229 -2.9492 -2.7793  1.8651
 6767TIP3    H241793   1.912   4.506   1.155 -1.0961  1.0364 -0.9829
 6768TIP3   OH241794   0.139   0.226  15.360 -0.0542 -0.0567 -0.2087
 6768TIP3    H141795   0.172   0.247  15.447 -0.4634 -3.3445  0.8699
 6768TIP3    H241796   0.207   0.171  15.321  0.0234  1.1859 -1.9440
 6769TIP3   OH241797   2.015   2.458   0.605 -0.1603  0.2730  0.2977
 6769TIP3    H141798   1.947   2.391   0.615 -1.4075  1.4683  0.0732
 6769TIP3    H241799   1.982   2.515   0.536  0.5192  1.5321  0.9874
 6770TIP3   OH241800   3.257   6.176  10.947  0.8801  0.3212  0.3897
 6770TIP3    H141801   3.330   6.238  10.952  0.7623  0.8027 -2.4255
 6770TIP3    H241802   3.242   6.163  10.853 -2.4339 -0.0647  0.8413
 6771TIP3   OH241803   2.669   2.321   4.036  0.0966 -0.0666  0.5704
 6771TIP3    H141804   2.760   2.320   4.008  0.6020  1.9774  1.8429
 6771TIP3    H241805   2.633   2.238   4.006  1.7226  0.0506 -2.0161
 6772TIP3   OH241806   3.104   0.867   2.602  0.2419  0.2995  0.0621
 6772TIP3    H141807   3.082   0.960   2.592 -0.3751  0.0940 -0.5804
 6772TIP3    H241808   3.073   0.826   2.521  1.0694 -0.3670  0.0710
 6773TIP3   OH241809   4.163   4.279  16.525 -0.2786  0.7056 -0.7237
 6773TIP3    H141810   4.244   4.306  16.483  0.8175 -1.6943 -0.2870
 6773TIP3    H241811   4.183   4.280  16.619 -1.5493  2.3953 -0.4130
 6774TIP3   OH241812   1.915   6.322   4.487 -0.0858  0.7429 -0.2304
 6774TIP3    H141813   1.995   6.278   4.518  0.4222 -0.2165 -2.7057
 6774TIP3    H241814   1.943   6.410   4.463  0.3600  0.2819 -1.4735
 6775TIP3   OH241815   0.934   2.322   4.045  0.0807  1.0370  0.2421
 6775TIP3    H141816   0.986   2.330   4.125  1.0066  1.7948 -0.4038
 6775TIP3    H241817   0.883   2.403   4.043 -0.8680  0.4633  0.6795
 6776TIP3   OH241818   6.603   1.536   2.884  0.0055 -0.0344  0.2149
 6776TIP3    H141819   6.682   1.486   2.902 -0.1388 -0.1990  0.3868
 6776TIP3    H241820   6.555   1.536   2.967  0.7618  1.7612  0.7056
 6777TIP3   OH241821   2.331   6.014  12.166  0.2569 -0.0636 -0.0824
 6777TIP3    H141822   2.278   6.043  12.091 -3.3465  1.3905  2.7415
 6777TIP3    H241823   2.301   5.925  12.183  1.2195 -0.4671 -0.4108
 6778TIP3   OH241824   5.524   0.376  13.904  0.4659  0.0525 -0.1065
 6778TIP3    H141825   5.490   0.366  13.993  0.5903 -0.6736 -0.1331
 6778TIP3    H241826   5.474   0.312  13.853 -0.7775  1.5796 -0.9041
 6779TIP3   OH241827   2.332   2.691  16.879 -0.3584  0.0499  0.0380
 6779TIP3    H141828   2.291   2.620  16.928 -0.5222  0.3042  0.2730
 6779TIP3    H241829   2.258   2.745  16.850 -0.1533  0.8589  0.9980
 6780TIP3   OH241830   1.765   3.874  11.365 -0.0065  0.0546 -0.0515
 6780TIP3    H141831   1.814   3.944  11.407  1.3110 -0.7504 -0.1862
 6780TIP3    H241832   1.697   3.851  11.429  0.3284  0.6101  0.5124
 6781TIP3   OH241833   3.485   4.432  12.948  0.0968  0.9552 -0.4327
 6781TIP3    H141834   3.552   4.487  12.907  0.2003  0.4743 -0.9035
 6781TIP3    H241835   3.403   4.481  12.936  0.0983  0.7259 -1.3659
 6782TIP3   OH241836   4.495   5.089   2.344  0.7348  0.3543 -0.2775
 6782TIP3    H141837   4.548   5.019   2.306 -1.5099 -0.9169 -1.2560
 6782TIP3    H241838   4.488   5.154   2.273 -2.4039 -1.4485 -1.8786
 6783TIP3   OH241839   0.460   2.208   3.085 -0.1677  0.0713  0.5851
 6783TIP3    H141840   0.503   2.131   3.122  0.2345 -0.2692 -0.5485
 6783TIP3    H241841   0.387   2.172   3.033  0.3098  0.4112 -0.3376
 6784TIP3   OH241842   1.756   6.441  12.238 -0.0069 -0.1200 -0.0482
 6784TIP3    H141843   1.694   6.488  12.182  1.0047  0.8307 -0.3979
 6784TIP3    H241844   1.833   6.497  12.241  0.0253 -0.1908  2.2174
 6785TIP3   OH241845   3.875   2.639  14.372  0.0488 -0.3007  0.6438
 6785TIP3    H141846   3.950   2.657  14.429  0.4116  3.1071 -0.6746
 6785TIP3    H241847   3.912   2.589  14.300  0.2028 -1.9921  1.8465
 6786TIP3   OH241848   0.569   3.017  16.526 -0.7654  0.8399  0.1920
 6786TIP3    H141849   0.613   2.968  16.457  1.4462  1.6713  0.9173
 6786TIP3    H241850   0.544   2.951  16.590 -1.5431  0.2307 -0.7042
 6787TIP3   OH241851   6.326   3.437   4.076  0.3779  0.4006  0.1924
 6787TIP3    H141852   6.236   3.418   4.050 -0.1138  0.6247  1.6371
 6787TIP3    H241853   6.358   3.354   4.114  0.5605  0.5093  0.2777
 6788TIP3   OH241854   5.503   4.611   5.395  0.1600  0.0729  0.4753
 6788TIP3    H141855   5.565   4.684   5.405 -0.4053  0.6652 -0.2373
 6788TIP3    H241856   5.420   4.645   5.428 -0.8321  0.8009 -2.4731
 6789TIP3   OH241857   4.249   1.876   5.662  0.1619 -0.2368 -0.3201
 6789TIP3    H141858   4.321   1.918   5.615  0.2801  0.8195  0.7762
 6789TIP3    H241859   4.185   1.946   5.676 -0.4259 -0.8283  0.0146
 6790TIP3   OH241860   5.073   0.556   0.977  0.0200 -0.6974  0.1111
 6790TIP3    H141861   5.102   0.592   1.061 -0.0175 -2.7147  1.0358
 6790TIP3    H241862   5.004   0.617   0.948  1.1013  0.8960  0.7283
 6791TIP3   OH241863   3.456   5.561   2.319 -0.0192  0.5019 -0.2621
 6791TIP3    H141864   3.466   5.563   2.414 -2.6438  2.7346  0.0957
 6791TIP3    H241865   3.533   5.606   2.285  1.6417 -1.4977  0.6062
 6792TIP3   OH241866   3.846   5.650  14.447  0.1097  0.1191 -0.6093
 6792TIP3    H141867   3.924   5.705  14.441  0.5772 -0.5161 -0.4769
 6792TIP3    H241868   3.821   5.654  14.539 -0.4805  0.9372 -0.7902
 6793TIP3   OH241869   1.550   5.801  16.273  0.2743 -0.2676 -0.5172
 6793TIP3    H141870   1.619   5.771  16.215 -0.1294  2.0036 -2.3240
 6793TIP3    H241871   1.468   5.771  16.233  0.0287  0.7205 -0.7927
 6794TIP3   OH241872   4.573   3.841  15.425 -0.0211 -0.2004 -0.3347
 6794TIP3    H141873   4.623   3.909  15.380 -0.9757 -0.3792 -1.7297
 6794TIP3    H241874   4.541   3.883  15.505 -1.0807  1.1847 -1.4470
 6795TIP3   OH241875   4.352   4.189   2.464 -0.3871  0.2221 -0.3662
 6795TIP3    H141876   4.365   4.118   2.401 -1.9389 -0.2397 -0.2062
 6795TIP3    H241877   4.322   4.263   2.411 -0.2601  0.2869 -0.3477
 6796TIP3   OH241878   3.468   4.084   5.278  0.9901 -0.1791 -0.5295
 6796TIP3    H141879   3.469   4.124   5.191  0.9665  0.0377 -0.4304
 6796TIP3    H241880   3.422   4.148   5.333  4.2261  1.4494  0.5120
 6797TIP3   OH241881   4.552   1.948   0.095 -0.0050  0.3427 -0.0974
 6797TIP3    H141882   4.480   1.885   0.087  0.0189  0.3538 -0.4075
 6797TIP3    H241883   4.604   1.915   0.169 -1.0460  1.0596  0.9997
 6798TIP3   OH241884   6.836   5.941   0.430 -0.0541 -0.6535  0.1631
 6798TIP3    H141885   6.777   5.958   0.503  1.0000  0.9297  0.7125
 6798TIP3    H241886   6.811   6.005   0.363  1.1016  0.1644  0.4743
 6799TIP3   OH241887   4.908   3.703  15.984 -0.2580  0.4919 -0.4999
 6799TIP3    H141888   4.969   3.661  16.044  0.8688  1.1657 -1.1543
 6799TIP3    H241889   4.850   3.632  15.956  1.1671 -0.5005 -1.0352
 6800TIP3   OH241890   0.440   4.279   3.270  0.6023 -0.0559 -0.4652
 6800TIP3    H141891   0.349   4.266   3.243  1.4283 -0.9284 -3.1191
 6800TIP3    H241892   0.452   4.374   3.269 -0.4576  0.1297  0.7756
 6801TIP3   OH241893   6.422   3.233   1.072  0.0926 -0.0970  0.2853
 6801TIP3    H141894   6.495   3.273   1.025  0.9089 -0.4380  1.2225
 6801TIP3    H241895   6.362   3.306   1.088  0.6619  0.3824  0.2994
 6802TIP3   OH241896   0.738   0.204  11.584  0.0624 -0.0991 -0.5428
 6802TIP3    H141897   0.802   0.138  11.557 -0.0572 -1.2154  1.7158
 6802TIP3    H241898   0.663   0.190  11.526  0.9304 -0.3756 -1.6250
 6803TIP3   OH241899   4.298   3.242  17.005 -0.1894 -0.2264  0.2564
 6803TIP3    H141900   4.279   3.325  17.050 -0.0098 -1.1665  2.1598
 6803TIP3    H241901   4.297   3.265  16.912  0.5380  2.0491  0.7422
 6804TIP3   OH241902   3.675   1.679  13.304  0.1967  0.3895  0.2797
 6804TIP3    H141903   3.719   1.598  13.280 -2.2187 -1.1567  0.7500
 6804TIP3    H241904   3.680   1.682  13.400  1.5355  1.5990  0.2041
 6805TIP3   OH241905   0.556   6.609   2.195 -0.1296 -0.0883  0.2262
 6805TIP3    H141906   0.481   6.605   2.136  1.1898  0.9464 -1.5998
 6805TIP3    H241907   0.609   6.532   2.172  0.3203  0.2364  0.1653
 6806TIP3   OH241908   0.296   1.587  14.790 -0.6459  0.1944 -0.1084
 6806TIP3    H141909   0.376   1.549  14.754 -2.0313 -1.3059 -1.8119
 6806TIP3    H241910   0.256   1.633  14.716 -1.9167 -0.1013  0.3668
 6807TIP3   OH241911   6.468   2.689   3.918 -0.3595 -0.2945 -0.4357
 6807TIP3    H141912   6.535   2.621   3.908  1.4969  1.3536  0.1074
 6807TIP3    H241913   6.445   2.686   4.011  1.0895  0.9583  0.0047
 6808TIP3   OH241914   2.452   3.150  10.578  0.0082  0.7214  0.0857
 6808TIP3    H141915   2.488   3.183  10.496 -0.0347  2.4942  0.7195
 6808TIP3    H241916   2.496   3.202  10.646 -0.9927  0.3065  1.0907
 6809TIP3   OH241917   2.926   0.264   4.333  0.6780 -0.1146  0.0619
 6809TIP3    H141918   2.882   0.242   4.250  2.6975  1.0247 -1.4010
 6809TIP3    H241919   2.857   0.259   4.399 -1.0599 -0.8533 -1.7189
 6810TIP3   OH241920   6.526   3.027  14.644  0.7850 -0.1839  0.6698
 6810TIP3    H141921   6.585   3.102  14.633 -0.2069  0.9765  2.5857
 6810TIP3    H241922   6.551   2.966  14.575  1.1693  2.2042 -1.4860
 6811TIP3   OH241923   1.109   4.068   1.050  0.6903 -0.3406 -0.2288
 6811TIP3    H141924   1.202   4.086   1.038  0.4121  1.5817  0.1453
 6811TIP3    H241925   1.083   4.123   1.124 -0.6765 -1.1424 -0.0710
 6812TIP3   OH241926   0.660   4.906   3.130 -0.0464  0.0400  0.5161
 6812TIP3    H141927   0.664   4.991   3.174 -0.9450  2.3054 -3.3110
 6812TIP3    H241928   0.570   4.875   3.146 -0.3453  0.7969  0.3304
 6813TIP3   OH241929   1.630   6.456   4.809 -0.0615  0.7123  0.1542
 6813TIP3    H141930   1.656   6.388   4.746 -0.7759  0.2962  0.3025
 6813TIP3    H241931   1.683   6.532   4.785  1.7245 -0.2611  0.7816
 6814TIP3   OH241932   3.700   5.695  12.197  0.0458  0.0889 -0.4536
 6814TIP3    H141933   3.693   5.771  12.254  0.4749  0.8766 -1.4221
 6814TIP3    H241934   3.673   5.727  12.111  0.6886 -0.7285 -0.9729
 6815TIP3   OH241935   2.447   1.491  13.696 -0.2582 -0.1454  0.6464
 6815TIP3    H141936   2.541   1.507  13.701 -0.1094 -0.6934 -0.1915
 6815TIP3    H241937   2.428   1.488  13.602 -1.4161  1.6495  0.7710
 6816TIP3   OH241938   3.341   6.465  15.436  0.5180  0.0928  0.6973
 6816TIP3    H141939   3.399   6.471  15.360 -1.0122  1.0306 -0.4754
 6816TIP3    H241940   3.367   6.537  15.492 -0.2769  1.3084 -0.4323
 6817TIP3   OH241941   0.486   6.463  14.050 -0.2031  0.1423 -0.2439
 6817TIP3    H141942   0.403   6.435  14.087 -1.1366  1.3790 -1.3261
 6817TIP3    H241943   0.529   6.382  14.022 -1.2251 -0.4712 -0.0550
 6818TIP3   OH241944   5.273   6.779   2.452 -0.3606 -0.0194  0.2224
 6818TIP3    H141945   5.364   6.755   2.470 -0.3466 -0.2992 -0.2014
 6818TIP3    H241946   5.225   6.751   2.530  0.2529  2.3142  1.5178
 6819TIP3   OH241947   5.627   0.729   2.379 -0.1175  0.0056  0.4975
 6819TIP3    H141948   5.688   0.798   2.354 -1.2931  1.1193  0.6164
 6819TIP3    H241949   5.668   0.688   2.456  1.7357 -1.0409 -0.9808
 6820TIP3   OH241950   5.329   3.790  10.778 -0.0558  0.3770 -0.2855
 6820TIP3    H141951   5.270   3.850  10.732 -0.3644 -0.4386 -0.9741
 6820TIP3    H241952   5.402   3.776  10.718  0.4025  0.6711  0.1944
 6821TIP3   OH241953   1.863   6.192  13.057  0.2681  0.1782  0.4572
 6821TIP3    H141954   1.767   6.190  13.051  0.2535  0.2602  0.6728
 6821TIP3    H241955   1.883   6.276  13.099  0.4773  0.6265 -0.5060
 6822TIP3   OH241956   0.644   0.405  12.242  0.4434 -0.5880  0.0450
 6822TIP3    H141957   0.643   0.457  12.322 -0.9140 -0.2357 -0.1887
 6822TIP3    H241958   0.677   0.464  12.174 -1.0626  0.0025 -0.2121
 6823TIP3   OH241959   3.318   3.601  14.179  0.4449  0.3911  0.2151
 6823TIP3    H141960   3.266   3.656  14.239 -0.0286 -0.9728  1.0909
 6823TIP3    H241961   3.381   3.557  14.236  1.3312  0.5859 -0.5884
 6824TIP3   OH241962   6.554   4.752   3.683  0.6276  0.1075 -0.2390
 6824TIP3    H141963   6.539   4.690   3.611 -1.7378  0.2684  0.0210
 6824TIP3    H241964   6.526   4.836   3.647 -1.0073  0.1163  0.9325
 6825TIP3   OH241965   2.562   2.750   2.391  0.5908  0.9776  0.1477
 6825TIP3    H141966   2.651   2.726   2.367  0.8218 -0.6007  2.2744
 6825TIP3    H241967   2.572   2.813   2.463 -0.0055  1.2436  0.0044
 6826TIP3   OH241968   1.754   0.874   3.369 -0.3699  0.5395  0.6499
 6826TIP3    H141969   1.817   0.809   3.401  1.0907  1.4235 -0.2800
 6826TIP3    H241970   1.781   0.890   3.279 -0.6050  2.4908  0.8896
 6827TIP3   OH241971   3.524   1.972  11.399  0.1186  0.1573  0.0835
 6827TIP3    H141972   3.592   2.024  11.441  0.0425  0.4335 -0.1284
 6827TIP3    H241973   3.543   1.981  11.305 -0.8388  1.1136 -0.0363
 6828TIP3   OH241974   1.575   1.349   5.255 -0.4779 -0.2871  0.5321
 6828TIP3    H141975   1.524   1.299   5.318 -0.7842  0.8238  1.1992
 6828TIP3    H241976   1.511   1.374   5.188 -0.2221 -1.1835 -0.0616
 6829TIP3   OH241977   1.110   6.111  14.904 -0.0425  0.2032  0.0077
 6829TIP3    H141978   1.097   6.084  14.995 -1.8877  0.5488 -0.1271
 6829TIP3    H241979   1.101   6.030  14.853 -0.2303  0.2126  0.0274
 6830TIP3   OH241980   0.243   4.434   2.236 -0.4016 -0.4412  0.3193
 6830TIP3    H141981   0.267   4.406   2.324 -2.2537 -2.0359  0.3825
 6830TIP3    H241982   0.304   4.388   2.179 -0.4909 -1.0175  0.6764
 6831TIP3   OH241983   5.414   2.522   4.589  0.0560  0.1636 -0.0066
 6831TIP3    H141984   5.481   2.535   4.656  1.7890  0.9546 -1.8006
 6831TIP3    H241985   5.448   2.566   4.512 -0.5334 -3.0267 -2.2892
 6832TIP3   OH241986   3.194   1.457   2.771 -0.0271 -1.2196  0.2401
 6832TIP3    H141987   3.190   1.551   2.751 -0.5114 -1.6311 -1.8366
 6832TIP3    H241988   3.279   1.445   2.814  0.8795 -0.0917 -1.1439
 6833TIP3   OH241989   3.490   2.236   0.682  0.0890 -0.1629 -0.1718
 6833TIP3    H141990   3.469   2.143   0.679 -1.0060  0.0897 -1.1792
 6833TIP3    H241991   3.477   2.267   0.592  1.9136  0.6701 -0.1992
 6834TIP3   OH241992   1.113   2.898  13.546 -0.1599  0.4227 -0.1716
 6834TIP3    H141993   1.081   2.927  13.631  0.7253  0.7008  0.0872
 6834TIP3    H241994   1.170   2.970  13.517  0.4006 -0.1414 -0.4893
 6835TIP3   OH241995   5.700   5.273  15.840 -0.8371  0.4448  0.3838
 6835TIP3    H141996   5.780   5.273  15.787  0.2067 -0.0807  1.8743
 6835TIP3    H241997   5.722   5.327  15.916 -2.3438  1.3128  0.2510
 6836TIP3   OH241998   6.702   4.575   2.883 -0.1633 -0.1776  0.1212
 6836TIP3    H141999   6.623   4.629   2.878 -0.3043 -0.3688  0.2708
 6836TIP3    H242000   6.723   4.555   2.792  0.5172  1.0325 -0.0147
 6837TIP3   OH242001   5.454   4.497  13.507  0.3768  0.0479  0.3802
 6837TIP3    H142002   5.477   4.546  13.586  0.9749  0.5507 -0.0931
 6837TIP3    H242003   5.359   4.502  13.502  0.4131  0.9960  0.4522
 6838TIP3   OH242004   1.199   4.791   3.286 -0.0889  0.1181  0.0673
 6838TIP3    H142005   1.187   4.702   3.318  0.4894 -0.1980 -0.5641
 6838TIP3    H242006   1.174   4.847   3.360  0.0224 -0.5701  0.6355
 6839TIP3   OH242007   5.233   1.071   2.365 -0.2629 -0.4647  0.6293
 6839TIP3    H142008   5.188   1.150   2.338 -0.1017 -0.1144  1.3591
 6839TIP3    H242009   5.186   1.041   2.443  1.6384  0.7977  2.3936
 6840TIP3   OH242010   4.440   0.445  16.929  0.2552  0.3958  0.6063
 6840TIP3    H142011   4.403   0.512  16.987 -0.2570  0.4722  0.1880
 6840TIP3    H242012   4.499   0.493  16.871  1.7921  0.1599  1.8777
 6841TIP3   OH242013   1.273   0.681  14.638  0.0972  0.2986  0.1504
 6841TIP3    H142014   1.355   0.637  14.613 -0.8486 -1.7583  0.4965
 6841TIP3    H242015   1.250   0.732  14.561  1.4159  0.4841 -0.1562
 6842TIP3   OH242016   4.648   3.670   5.719 -0.0303 -0.0880 -0.0841
 6842TIP3    H142017   4.566   3.705   5.754 -0.5085 -0.2805 -0.9803
 6842TIP3    H242018   4.701   3.649   5.796 -0.2605  1.3395  0.4938
 6843TIP3   OH242019   3.248   2.088  12.627 -0.1412 -0.4898 -0.0657
 6843TIP3    H142020   3.295   2.130  12.699 -0.8268  2.1330 -1.0260
 6843TIP3    H242021   3.284   2.128  12.548 -1.0693 -1.5217 -1.0392
 6844TIP3   OH242022   6.609   1.765   4.740 -0.0927  0.2619  0.3853
 6844TIP3    H142023   6.655   1.759   4.656 -0.2429  0.2970  0.2994
 6844TIP3    H242024   6.673   1.802   4.800  0.8580 -2.0566  0.9108
 6845TIP3   OH242025   1.576   4.878   2.510 -0.8137 -0.0692  0.2516
 6845TIP3    H142026   1.595   4.817   2.438 -2.5139 -0.1221 -0.1917
 6845TIP3    H242027   1.592   4.964   2.473 -0.5369 -0.1516  0.1799
 6846TIP3   OH242028   2.659   2.512  11.989  0.3422  0.2413  0.3711
 6846TIP3    H142029   2.738   2.497  11.937  0.8012  0.6798  0.9280
 6846TIP3    H242030   2.684   2.489  12.078 -0.1284  0.4857  0.5691
 6847TIP3   OH242031   1.134   0.021   2.480  0.2343 -0.6367 -0.3722
 6847TIP3    H142032   1.051  -0.011   2.516  0.7780 -1.0219  0.5719
 6847TIP3    H242033   1.200  -0.008   2.543  1.0829 -0.2863 -1.0856
 6848TIP3   OH242034   2.478   2.657   5.485 -0.0339  0.3527  0.0190
 6848TIP3    H142035   2.445   2.568   5.496 -0.0092  0.3563  0.1225
 6848TIP3    H242036   2.459   2.700   5.568  2.6446 -0.4212  1.1395
 6849TIP3   OH242037   4.063   2.818   2.658  0.6573  0.0083 -0.2499
 6849TIP3    H142038   4.109   2.836   2.740 -1.6408 -1.1208  1.3848
 6849TIP3    H242039   4.106   2.740   2.623  1.4002  0.2612  0.0910
 6850TIP3   OH242040   0.406   2.703   4.822  0.1523 -0.0135 -0.0118
 6850TIP3    H142041   0.350   2.774   4.854  1.9205  1.1030  0.7985
 6850TIP3    H242042   0.366   2.623   4.857 -1.8985  0.5289 -0.9602
 6851TIP3   OH242043   3.840   0.314   0.844 -0.5467  0.0260  0.5732
 6851TIP3    H142044   3.771   0.326   0.910 -1.4320  0.9073 -0.4726
 6851TIP3    H242045   3.881   0.400   0.837 -0.6935  0.0386 -0.2628
 6852TIP3   OH242046   0.915   5.204  11.978 -0.3123  0.5419  0.0028
 6852TIP3    H142047   0.978   5.138  12.008 -0.9542 -0.4715 -0.7965
 6852TIP3    H242048   0.963   5.286  11.982  0.5550  0.0122  0.9050
 6853TIP3   OH242049   5.522   2.111   0.423  0.0198  0.1663 -0.5519
 6853TIP3    H142050   5.557   2.196   0.397  1.4589  0.3640  1.7496
 6853TIP3    H242051   5.591   2.071   0.476 -0.5628 -2.5303 -1.6277
 6854TIP3   OH242052   0.916   0.486   3.657  0.0828  0.2555 -0.1593
 6854TIP3    H142053   0.875   0.499   3.571 -2.3166  0.7244  0.9808
 6854TIP3    H242054   0.901   0.568   3.703  0.5809 -0.2890  1.0169
 6855TIP3   OH242055   6.358   5.770   2.366 -0.3399  0.1800  0.1852
 6855TIP3    H142056   6.294   5.820   2.315 -0.0272  0.8948  0.4756
 6855TIP3    H242057   6.308   5.732   2.438 -0.8588 -1.1427 -0.8316
 6856TIP3   OH242058   3.013   1.899   2.551  0.0261  0.7824  0.0566
 6856TIP3    H142059   2.951   1.827   2.561 -0.1033  1.0581  1.3343
 6856TIP3    H242060   2.965   1.965   2.501 -1.2439  1.5426  2.1479
 6857TIP3   OH242061   4.836   4.448   5.507  0.0978  0.0984  0.1322
 6857TIP3    H142062   4.788   4.375   5.468  1.6534 -0.7384 -0.2763
 6857TIP3    H242063   4.768   4.512   5.529 -1.1031 -0.6121 -1.3295
 6858TIP3   OH242064   1.637   0.159   2.782 -0.0379  0.0818  0.0349
 6858TIP3    H142065   1.649   0.071   2.746 -1.0739  0.0057 -0.1446
 6858TIP3    H242066   1.709   0.210   2.745  0.1987 -0.5337 -0.3700
 6859TIP3   OH242067   5.244   0.727  16.671 -0.1961 -0.2277 -0.0409
 6859TIP3    H142068   5.289   0.791  16.725 -0.6018 -0.0461  0.0904
 6859TIP3    H242069   5.196   0.672  16.733 -2.3290  1.2414 -0.2614
 6860TIP3   OH242070   5.850   5.744   5.288  0.0347  0.4804 -0.0007
 6860TIP3    H142071   5.785   5.750   5.358  0.2945  0.0092  0.2862
 6860TIP3    H242072   5.924   5.696   5.327 -0.8981 -2.3128 -1.3723
 6861TIP3   OH242073   0.391   0.554  13.476  0.1999  0.5150 -0.2254
 6861TIP3    H142074   0.326   0.584  13.541 -1.4994  0.5664 -1.8633
 6861TIP3    H242075   0.409   0.464  13.500  2.6410  1.5980  2.6270
 6862TIP3   OH242076   4.701   5.713   0.085  0.0485 -0.3716 -0.1335
 6862TIP3    H142077   4.666   5.733  -0.002  0.7180 -0.3954 -0.4141
 6862TIP3    H242078   4.760   5.638   0.070  2.1688  1.2003 -0.1244
 6863TIP3   OH242079   4.228   0.104   0.209  0.5047 -0.1317 -0.0201
 6863TIP3    H142080   4.171   0.047   0.157  1.5195 -0.6471 -0.5894
 6863TIP3    H242081   4.180   0.118   0.290 -1.4315  1.2177 -1.3075
 6864TIP3   OH242082   5.647   2.260   5.740 -0.2661  0.6272 -0.2140
 6864TIP3    H142083   5.658   2.234   5.649  1.7117  0.7170 -0.0450
 6864TIP3    H242084   5.713   2.209   5.788 -1.2816  0.5613  1.1747
 6865TIP3   OH242085   2.127   3.715   2.753  0.0248  0.0691 -0.2179
 6865TIP3    H142086   2.056   3.751   2.701  0.5380  0.9396 -0.3238
 6865TIP3    H242087   2.142   3.628   2.716  0.3527  0.6520 -1.5071
 6866TIP3   OH242088   4.490   1.365   0.744  0.1102  0.1468  0.1357
 6866TIP3    H142089   4.540   1.346   0.823 -1.9905 -1.6866  1.1505
 6866TIP3    H242090   4.414   1.415   0.776 -0.3274  0.1381 -0.8500
 6867TIP3   OH242091   5.177   5.515   5.369 -0.3844 -0.0720  0.4880
 6867TIP3    H142092   5.175   5.426   5.405 -0.1047 -0.4735 -0.4580
 6867TIP3    H242093   5.173   5.572   5.445 -4.7608 -0.8189  1.0651
 6868TIP3   OH242094   6.760   1.983   0.781 -0.1188 -0.2418 -0.3665
 6868TIP3    H142095   6.759   1.954   0.873 -1.5006 -0.1262 -0.3371
 6868TIP3    H242096   6.813   2.063   0.783 -0.5313  0.0282  0.4209
 6869TIP3   OH242097   5.236   4.641   4.077 -0.6078 -0.2267 -0.2108
 6869TIP3    H142098   5.201   4.594   4.153  0.8544 -0.6001  0.2638
 6869TIP3    H242099   5.318   4.679   4.109 -1.0014  1.3835 -1.0293
 6870TIP3   OH242100   2.698   3.331  13.483 -0.7765 -0.1240 -0.1846
 6870TIP3    H142101   2.631   3.299  13.543  0.3295 -0.2213  1.0607
 6870TIP3    H242102   2.767   3.365  13.540  1.5375 -2.5767 -1.2407
 6871TIP3   OH242103   6.756   0.197   2.706  0.2564  0.1814 -0.2290
 6871TIP3    H142104   6.775   0.291   2.700 -0.7653  0.4363  0.3487
 6871TIP3    H242105   6.749   0.169   2.614 -1.4727  1.1193 -0.4340
 6872TIP3   OH242106   4.267   4.219  13.856 -0.6188 -0.0344 -0.0749
 6872TIP3    H142107   4.247   4.217  13.949 -2.8207  2.2127 -0.3809
 6872TIP3    H242108   4.327   4.293  13.846 -0.2173 -0.4021 -0.4111
 6873TIP3   OH242109   0.709   6.010  16.560  0.2272 -0.3800  0.2124
 6873TIP3    H142110   0.703   5.917  16.578  1.3205 -0.0179  2.8507
 6873TIP3    H242111   0.736   6.015  16.468 -1.4329 -2.5596 -0.4754
 6874TIP3   OH242112   1.231   1.138  15.538 -0.2490  0.1225  0.2670
 6874TIP3    H142113   1.233   1.179  15.452 -0.4392  0.5004  0.4397
 6874TIP3    H242114   1.316   1.158  15.576 -0.0493 -0.3041  0.0484
 6875TIP3   OH242115   6.384   3.802   1.568  0.1571  0.1958 -0.0159
 6875TIP3    H142116   6.310   3.858   1.591 -0.6093 -0.6869 -0.2824
 6875TIP3    H242117   6.423   3.844   1.491  0.9275  1.5313  1.0520
 6876TIP3   OH242118   1.060   0.212   3.389  0.5336  0.0329  0.3355
 6876TIP3    H142119   1.124   0.249   3.328 -0.4443 -1.4264 -1.6893
 6876TIP3    H242120   0.979   0.207   3.339  0.0023 -2.4185  1.2802
 6877TIP3   OH242121   5.466   6.636  14.279 -0.2579 -0.0407 -0.0875
 6877TIP3    H142122   5.377   6.663  14.299 -0.4829  0.2669 -1.3812
 6877TIP3    H242123   5.504   6.712  14.235  0.8734  0.0840  1.0490
 6878TIP3   OH242124   2.637   6.745  11.768 -0.7991 -0.3957 -0.1539
 6878TIP3    H142125   2.605   6.817  11.713 -0.3590  0.5243  0.7732
 6878TIP3    H242126   2.650   6.784  11.854  1.9493 -0.9228 -0.2594
 6879TIP3   OH242127   5.502   4.103  14.296 -0.0997  0.1547 -0.1123
 6879TIP3    H142128   5.515   4.019  14.253 -0.9452  0.0146 -0.1088
 6879TIP3    H242129   5.440   4.150  14.238 -1.1968 -0.0099  0.8900
 6880TIP3   OH242130   0.734   0.308   3.987  0.5655  0.3440  0.0709
 6880TIP3    H142131   0.715   0.396   3.953 -0.1383 -0.8106 -2.8102
 6880TIP3    H242132   0.819   0.285   3.949  0.3399 -0.5509  0.0848
 6881TIP3   OH242133   0.507   4.492  11.143  0.1757 -0.8233  0.0690
 6881TIP3    H142134   0.462   4.546  11.209 -3.4697 -3.6679  0.2445
 6881TIP3    H242135   0.505   4.546  11.064 -1.2100  0.2364  0.7693
 6882TIP3   OH242136   0.826   3.004  14.982  0.1607 -0.2517 -0.2552
 6882TIP3    H142137   0.892   3.008  14.912 -1.0021  0.8852 -1.3492
 6882TIP3    H242138   0.747   3.042  14.943 -0.6792 -0.0348  1.5410
 6883TIP3   OH242139   6.638   2.436  14.589 -0.0694  0.1416  0.4727
 6883TIP3    H142140   6.668   2.522  14.618 -1.6712  0.9603 -0.1421
 6883TIP3    H242141   6.582   2.455  14.513 -1.4313 -1.3233  1.0549
 6884TIP3   OH242142   2.920   4.968  12.302  0.4729 -0.0591  0.7915
 6884TIP3    H142143   2.841   4.992  12.351  0.9238 -1.3856  2.2184
 6884TIP3    H242144   2.956   4.892  12.348  1.0148 -1.2986 -1.5158
 6885TIP3   OH242145   1.748   1.777  13.385  0.2666 -0.1838  0.1360
 6885TIP3    H142146   1.811   1.749  13.451  1.4090  0.3167 -0.7191
 6885TIP3    H242147   1.686   1.832  13.433 -1.5755 -3.3547  1.7067
 6886TIP3   OH242148   1.953   2.508   4.338 -0.0661  0.4516 -0.0957
 6886TIP3    H142149   2.038   2.475   4.309  1.0978  1.1574  2.2576
 6886TIP3    H242150   1.910   2.432   4.378  0.3599  0.5503  0.5645
 6887TIP3   OH242151   2.740   5.822  15.658  0.1723 -0.2785  0.2103
 6887TIP3    H142152   2.669   5.867  15.705 -0.6799 -1.5572  0.1713
 6887TIP3    H242153   2.759   5.879  15.584 -1.0999 -0.1236 -0.0145
 6888TIP3   OH242154   2.398   2.337   3.703  0.8868  0.3458  0.2954
 6888TIP3    H142155   2.433   2.423   3.681 -1.2165  0.7162 -2.0497
 6888TIP3    H242156   2.473   2.278   3.693  1.9177  1.6656  0.0016
 6889TIP3   OH242157   1.095   2.122  13.535 -0.3616  0.1325 -0.4305
 6889TIP3    H142158   1.126   2.137  13.446 -0.5910  0.2719 -0.4887
 6889TIP3    H242159   0.999   2.127  13.529 -0.6046 -2.8043 -0.7505
 6890TIP3   OH242160   0.716   2.502   3.119  0.0530 -0.0616 -0.4062
 6890TIP3    H142161   0.748   2.415   3.098  1.8596 -0.2274  2.5502
 6890TIP3    H242162   0.787   2.561   3.094 -0.1784  0.3119 -0.1976
 6891TIP3   OH242163   3.367   0.173  14.148 -0.2608 -0.3178 -0.5690
 6891TIP3    H142164   3.435   0.111  14.174 -1.0693 -0.6264  0.9515
 6891TIP3    H242165   3.379   0.248  14.205  0.7026  0.9951 -2.3907
 6892TIP3   OH242166   5.154   2.286  12.032 -0.1766 -0.1852 -0.0980
 6892TIP3    H142167   5.244   2.314  12.047  0.0661 -0.9645 -0.0608
 6892TIP3    H242168   5.148   2.277  11.937 -1.0089  2.4247 -0.3580
 6893TIP3   OH242169   0.013   3.442   1.816 -0.2378 -0.7942  0.0666
 6893TIP3    H142170   0.108   3.454   1.814  0.1203 -3.0334 -3.1366
 6893TIP3    H242171  -0.019   3.490   1.740 -1.2176 -2.6807 -0.7673
 6894TIP3   OH242172   2.351   0.306   5.578 -0.0494  0.1851 -0.4990
 6894TIP3    H142173   2.290   0.344   5.516 -0.9458 -0.4636 -0.0366
 6894TIP3    H242174   2.356   0.369   5.649 -0.3988  0.1090 -0.4075
 6895TIP3   OH242175   3.045   4.158  13.095 -0.5905 -0.3724  0.3674
 6895TIP3    H142176   2.998   4.241  13.090 -0.1717  0.0294  2.1598
 6895TIP3    H242177   3.105   4.159  13.020  0.1473  1.4588  0.9161
 6896TIP3   OH242178   3.344   3.273   4.839  0.0117 -0.0049 -0.1166
 6896TIP3    H142179   3.360   3.204   4.775 -0.7841 -2.4882  2.1566
 6896TIP3    H242180   3.414   3.337   4.825  0.3196 -0.8349 -2.8492
 6897TIP3   OH242181   5.956   0.012  13.350  0.2519  0.4198 -0.5152
 6897TIP3    H142182   5.916   0.079  13.405  1.1140  0.7226 -0.2440
 6897TIP3    H242183   5.894  -0.001  13.279 -1.4928 -0.8670  1.1531
 6898TIP3   OH242184   1.929   4.864  13.042 -0.1214 -0.1571 -0.0859
 6898TIP3    H142185   1.934   4.797  12.973 -0.4254 -0.4337  0.1535
 6898TIP3    H242186   1.992   4.930  13.016  1.8660 -1.5852  0.8056
 6899TIP3   OH242187   0.716   0.022  13.245  0.0768  0.5450 -0.3591
 6899TIP3    H142188   0.797   0.072  13.234 -0.2772  1.5199  1.1245
 6899TIP3    H242189   0.735  -0.041  13.314 -0.4428  0.8320  0.0536
 6900TIP3   OH242190   0.636   2.250   1.737 -0.3054 -0.0783 -0.0237
 6900TIP3    H142191   0.687   2.172   1.759 -2.1275 -1.1051  0.8990
 6900TIP3    H242192   0.569   2.217   1.677 -0.0597  1.1520 -0.9869
 6901TIP3   OH242193   5.098   1.470  12.402 -0.9662  0.4014  0.5221
 6901TIP3    H142194   5.006   1.490  12.385 -0.7317  0.8074 -0.3210
 6901TIP3    H242195   5.145   1.549  12.374 -0.2741 -0.1775  0.0243
 6902TIP3   OH242196   0.561   6.438   2.469  0.7752  0.2706 -0.4224
 6902TIP3    H142197   0.508   6.371   2.425 -0.2001  1.2186 -0.7476
 6902TIP3    H242198   0.549   6.517   2.416 -2.7971  2.3166  2.8671
 6903TIP3   OH242199   4.991   0.639  11.472  0.0515 -0.2087 -0.7247
 6903TIP3    H142200   5.061   0.694  11.436 -0.0938  0.7196  0.3606
 6903TIP3    H242201   4.934   0.700  11.518 -1.0272 -1.0696 -0.8926
 6904TIP3   OH242202   3.072   4.277   3.938  0.5594 -0.1102 -0.2721
 6904TIP3    H142203   3.001   4.249   3.996  1.9460 -1.0723  1.0182
 6904TIP3    H242204   3.111   4.353   3.982  0.3605  0.4309 -0.9915
 6905TIP3   OH242205   2.830   3.410  14.754 -0.0071 -0.2057 -0.4953
 6905TIP3    H142206   2.791   3.407  14.842  1.0950 -0.1802  0.0137
 6905TIP3    H242207   2.857   3.319  14.737 -0.5286 -0.2789 -0.9641
 6906TIP3   OH242208   3.890   2.230   4.235 -0.1367 -0.4717  0.4436
 6906TIP3    H142209   3.963   2.218   4.174 -0.4104 -0.0750  0.0276
 6906TIP3    H242210   3.867   2.142   4.262 -0.3892 -0.7097 -0.4866
 6907TIP3   OH242211   4.227   1.678  15.774  0.1153 -0.5399  0.5153
 6907TIP3    H142212   4.282   1.605  15.745 -0.7219 -1.3300  0.8544
 6907TIP3    H242213   4.175   1.700  15.697  0.8810  0.2089  0.1938
 6908TIP3   OH242214   2.228   6.050  15.709 -0.4392 -0.1113 -0.9042
 6908TIP3    H142215   2.222   6.056  15.614 -1.1743 -1.4674 -0.9717
 6908TIP3    H242216   2.140   6.071  15.741  0.0283  1.2730 -0.4322
 6909TIP3   OH242217   6.364   2.385  17.137 -0.3412 -0.1825 -0.9415
 6909TIP3    H142218   6.404   2.408  17.054  0.5247  0.5142 -0.3459
 6909TIP3    H242219   6.407   2.441  17.202 -1.6664 -0.0148 -0.1516
 6910TIP3   OH242220   2.116   0.623  14.689 -0.2177 -0.3306 -0.1770
 6910TIP3    H142221   2.142   0.539  14.651 -1.2763 -0.2747 -1.0875
 6910TIP3    H242222   2.044   0.602  14.748 -0.5909 -0.0545 -0.5275
 6911TIP3   OH242223   1.797   3.103   2.724  0.3452  0.4828 -0.5633
 6911TIP3    H142224   1.816   3.035   2.659  1.7356  0.6219 -0.3347
 6911TIP3    H242225   1.866   3.093   2.789  0.8204  2.3532 -0.7274
 6912TIP3   OH242226   4.951   4.441  15.912 -0.4476 -0.4719  0.0212
 6912TIP3    H142227   4.936   4.533  15.890 -0.2525 -0.6695 -1.0180
 6912TIP3    H242228   4.901   4.427  15.992 -0.5889  0.5036  0.1201
 6913TIP3   OH242229   2.535   3.708   1.888  0.5946 -0.3170  0.4070
 6913TIP3    H142230   2.486   3.782   1.924 -1.8846 -1.1811 -0.9332
 6913TIP3    H242231   2.540   3.726   1.794  0.2214 -1.6692  0.1018
 6914TIP3   OH242232   6.029   2.310   3.653 -0.6209 -0.1795 -0.0435
 6914TIP3    H142233   5.987   2.325   3.568 -0.0933  0.1586 -0.2486
 6914TIP3    H242234   5.958   2.318   3.717 -0.7674  0.9655 -0.3419
 6915TIP3   OH242235   5.354   2.850  11.411  0.4454  0.2007 -0.4805
 6915TIP3    H142236   5.390   2.895  11.487 -2.2231 -0.3769  1.2239
 6915TIP3    H242237   5.335   2.761  11.442 -0.8177 -0.0167 -1.7800
 6916TIP3   OH242238   6.118   3.394   5.596  0.0968  0.4980 -0.1022
 6916TIP3    H142239   6.083   3.394   5.685  1.3354 -0.1035  0.4103
 6916TIP3    H242240   6.213   3.404   5.607  0.5282 -1.7494 -1.2239
 6917TIP3   OH242241   0.903   1.421   1.600 -0.4342 -0.6984  0.6456
 6917TIP3    H142242   0.874   1.360   1.532  0.1026 -0.2704  0.0150
 6917TIP3    H242243   0.997   1.432   1.584 -0.0379 -1.5038  2.1922
 6918TIP3   OH242244   2.476   6.315  14.725 -0.1164 -0.0283 -0.1634
 6918TIP3    H142245   2.491   6.321  14.630  1.2547  0.5227  0.0701
 6918TIP3    H242246   2.560   6.288  14.761 -0.8357 -1.0235  0.8395
 6919TIP3   OH242247   1.752   5.054  17.066 -0.0750  0.4324 -0.5025
 6919TIP3    H142248   1.715   4.967  17.053 -1.1960  1.0088 -1.3767
 6919TIP3    H242249   1.817   5.042  17.134 -0.8151 -0.9294  0.0126
 6920TIP3   OH242250   5.997   4.015   5.445  0.6143  0.2638 -0.1111
 6920TIP3    H142251   6.007   4.110   5.437 -0.0819  0.2356 -1.6007
 6920TIP3    H242252   5.980   3.985   5.356  1.0622 -1.2994  0.3055
 6921TIP3   OH242253   6.504   3.888   3.379 -0.7451 -0.0515  0.1623
 6921TIP3    H142254   6.532   3.886   3.470 -1.4252 -0.8274  0.3640
 6921TIP3    H242255   6.580   3.856   3.330 -1.6749 -3.6038  0.8272
 6922TIP3   OH242256   4.398   6.142  11.045 -0.2207 -0.5835  0.2774
 6922TIP3    H142257   4.361   6.089  11.115 -0.4951 -2.1531 -0.9782
 6922TIP3    H242258   4.478   6.096  11.020  1.1536  1.2491  1.1079
 6923TIP3   OH242259   2.105   1.999   3.295 -0.1138 -0.2875 -0.0651
 6923TIP3    H142260   2.015   1.967   3.296 -0.0626 -0.7935 -3.0395
 6923TIP3    H242261   2.098   2.088   3.259  0.4983  0.2084  0.9815
 6924TIP3   OH242262   2.269   1.654   3.323 -0.6003 -0.1509 -0.5422
 6924TIP3    H142263   2.241   1.592   3.392  0.0183 -0.0040 -0.1531
 6924TIP3    H242264   2.248   1.740   3.359 -0.2452 -0.0719 -0.5276
 6925TIP3   OH242265   3.004   4.263   4.450  0.2186  0.0152 -0.2271
 6925TIP3    H142266   2.928   4.301   4.494  0.4110 -0.2270  0.3275
 6925TIP3    H242267   2.990   4.280   4.357  0.2790  1.4097 -0.0035
 6926TIP3   OH242268   4.375   6.685   0.950  0.2162  0.1492  0.2443
 6926TIP3    H142269   4.367   6.693   0.855 -0.2885 -2.9284 -0.0510
 6926TIP3    H242270   4.432   6.610   0.965 -3.3003 -2.4686  2.2100
 6927TIP3   OH242271   2.514   1.848  10.890 -0.0930  0.4206 -0.9425
 6927TIP3    H142272   2.607   1.830  10.877  0.4588  2.3858  0.0628
 6927TIP3    H242273   2.492   1.914  10.825 -0.5472  0.7006 -0.5142
 6928TIP3   OH242274   2.884   0.187   1.438  0.3811  0.2985 -0.0449
 6928TIP3    H142275   2.921   0.104   1.407  0.9878  0.6036 -0.1545
 6928TIP3    H242276   2.840   0.224   1.362  0.6381  0.3669 -0.1612
 6929TIP3   OH242277   4.943   5.607   5.808 -0.4179 -0.5991 -0.2037
 6929TIP3    H142278   4.922   5.594   5.901  1.1349  0.0179  0.2649
 6929TIP3    H242279   4.923   5.523   5.767 -0.8503 -0.9756  0.7477
 6930TIP3   OH242280   1.140   5.430  13.711  0.1768  0.8196 -0.1176
 6930TIP3    H142281   1.045   5.436  13.705  0.2371  0.9306 -1.2670
 6930TIP3    H242282   1.172   5.475  13.632  1.1068 -1.4599 -1.1327
 6931TIP3   OH242283   4.444   1.984   3.197  0.2617  0.4134 -0.0313
 6931TIP3    H142284   4.482   2.068   3.175  1.1793  0.3754  1.2901
 6931TIP3    H242285   4.350   1.994   3.180  0.3658  1.6948  0.0853
 6932TIP3   OH242286   3.987   2.103  16.316  0.1719 -0.4151 -0.3140
 6932TIP3    H142287   4.072   2.086  16.357  0.4824 -0.0018 -0.7757
 6932TIP3    H242288   3.998   2.187  16.272 -0.4539 -0.3991 -0.4468
 6933TIP3   OH242289   3.749   1.548   4.575  0.0954 -0.6584  0.1787
 6933TIP3    H142290   3.701   1.481   4.624  0.1189  0.5391  1.9028
 6933TIP3    H242291   3.739   1.522   4.483  0.2000 -3.0852  0.7895
 6934TIP3   OH242292   3.816   1.268  15.661 -0.4798 -0.6772 -0.4592
 6934TIP3    H142293   3.907   1.245  15.683 -0.2609 -0.2895 -0.9359
 6934TIP3    H242294   3.769   1.185  15.667  0.1011 -1.0801 -1.1410
 6935TIP3   OH242295   4.636   0.144   5.458 -0.4960 -0.2021  0.2498
 6935TIP3    H142296   4.586   0.093   5.522 -0.5674 -0.9649 -0.3971
 6935TIP3    H242297   4.618   0.235   5.481 -2.7675 -0.4258 -0.3723
 6936TIP3   OH242298   3.060   1.321  11.432 -0.2186  1.0313  0.7847
 6936TIP3    H142299   3.142   1.273  11.444  0.4982  1.6459 -1.1946
 6936TIP3    H242300   2.994   1.253  11.418  0.2874  0.5642  0.6303
 6937TIP3   OH242301   1.337   4.637  14.420 -0.3722  0.3344  0.2326
 6937TIP3    H142302   1.428   4.609  14.432 -0.7068 -0.5929  0.6323
 6937TIP3    H242303   1.342   4.733  14.418  0.5324  0.3137  0.9239
 6938TIP3   OH242304   2.792   2.934   0.381  0.6748  0.9330  0.4580
 6938TIP3    H142305   2.836   2.929   0.296 -1.5867  1.3955 -0.8142
 6938TIP3    H242306   2.857   2.901   0.443  1.9954 -0.5857 -1.5932
 6939TIP3   OH242307   4.621   0.071   5.193 -0.1814 -0.1467  0.4100
 6939TIP3    H142308   4.698   0.020   5.169  0.6248  1.2793 -0.1225
 6939TIP3    H242309   4.629   0.084   5.288  2.0660  2.7227 -0.0151
 6940TIP3   OH242310   6.461   4.495   2.346  0.2704 -0.1299 -0.3793
 6940TIP3    H142311   6.511   4.574   2.326 -0.1512  0.1442 -0.3697
 6940TIP3    H242312   6.382   4.503   2.292  0.2121 -0.5302 -0.3570
 6941TIP3   OH242313   1.409   4.667  10.580  0.5490  0.6433  0.1242
 6941TIP3    H142314   1.431   4.686  10.671 -0.1822  0.1978  0.4075
 6941TIP3    H242315   1.492   4.641  10.540  1.2355  2.6358  0.1645
 6942TIP3   OH242316   4.086   2.634  13.928  0.7449  0.5687  0.1931
 6942TIP3    H142317   4.080   2.607  14.020  1.8604  0.9813  0.4057
 6942TIP3    H242318   4.037   2.566  13.881  1.5100 -0.5562  0.9456
 6943TIP3   OH242319   5.098   2.145  16.432  0.6338  0.0566 -0.0798
 6943TIP3    H142320   5.153   2.069  16.413 -1.5767 -1.3668 -1.2518
 6943TIP3    H242321   5.091   2.146  16.528  1.3966 -0.6822 -0.0035
 6944TIP3   OH242322   2.014   2.465  15.133 -0.2019  0.0553  0.2652
 6944TIP3    H142323   2.005   2.515  15.214  1.0555 -1.4618  1.4132
 6944TIP3    H242324   2.100   2.423  15.141 -0.0323 -0.1003 -1.8913
 6945TIP3   OH242325   5.997   6.115   1.413  0.2188 -0.0245  0.1701
 6945TIP3    H142326   5.940   6.103   1.488  0.4961  0.5544  0.4861
 6945TIP3    H242327   5.951   6.075   1.340  0.0521 -0.7998  0.6956
 6946TIP3   OH242328   3.369   2.208  15.824  0.1941 -0.5441 -0.3579
 6946TIP3    H142329   3.297   2.250  15.776  0.5964  1.1862  0.4919
 6946TIP3    H242330   3.334   2.193  15.912  0.3471 -1.2288 -0.4081
 6947TIP3   OH242331   3.248   3.690   0.837 -0.7077  0.3885  0.0614
 6947TIP3    H142332   3.186   3.673   0.908 -0.5979  0.1984  0.1144
 6947TIP3    H242333   3.304   3.760   0.870 -0.4038  0.0287  0.3253
 6948TIP3   OH242334   5.989   3.102  11.993 -0.0111  0.1681 -0.4964
 6948TIP3    H142335   5.951   3.091  11.906 -0.0979 -0.3746 -0.3937
 6948TIP3    H242336   6.083   3.085  11.981 -0.1761 -0.9034 -0.3000
 6949TIP3   OH242337   0.554   1.888  16.876  0.0243 -0.0807 -0.8425
 6949TIP3    H142338   0.542   1.880  16.971 -0.3055 -0.4074 -0.9108
 6949TIP3    H242339   0.643   1.857  16.861 -0.6349 -2.0397 -0.8915
 6950TIP3   OH242340   0.838   2.059  13.644  0.2181  0.3127 -0.4534
 6950TIP3    H142341   0.867   2.144  13.675  0.6524 -0.6250  1.9253
 6950TIP3    H242342   0.768   2.078  13.582  0.5153  2.3845 -0.2077
 6951TIP3   OH242343   2.408   3.297  12.870 -0.1261 -0.2780 -0.3570
 6951TIP3    H142344   2.421   3.207  12.901 -2.2011 -0.9520 -1.2714
 6951TIP3    H242345   2.364   3.341  12.943  1.9249  0.3954  0.5505
 6952TIP3   OH242346   1.085   0.608   2.371  0.4345 -0.5341  0.9301
 6952TIP3    H142347   1.063   0.658   2.449  0.7703  0.4321  0.4286
 6952TIP3    H242348   1.168   0.646   2.341 -0.3553  0.0438 -0.6455
 6953TIP3   OH242349   1.533   0.909   1.648  0.0677  0.0901 -0.0203
 6953TIP3    H142350   1.546   0.815   1.639 -1.2842 -0.0372 -0.9564
 6953TIP3    H242351   1.484   0.919   1.729  1.4287  0.1376  0.8278
 6954TIP3   OH242352   5.743   3.794   3.472  0.5605 -0.5341 -0.4184
 6954TIP3    H142353   5.797   3.799   3.550 -1.0809 -1.5125  0.8347
 6954TIP3    H242354   5.655   3.775   3.504  0.2475 -3.4817 -2.6174
 6955TIP3   OH242355   1.860   4.776  11.699  0.5271 -0.0099 -0.1316
 6955TIP3    H142356   1.802   4.742  11.631 -0.4460  1.4294 -0.0666
 6955TIP3    H242357   1.947   4.747  11.673 -0.1380 -1.8093 -0.5069
 6956TIP3   OH242358   1.026   4.265  10.915  0.4506  0.0859  0.0183
 6956TIP3    H142359   1.032   4.351  10.874  0.7728 -0.1536 -0.4397
 6956TIP3    H242360   0.964   4.216  10.860  1.4078 -0.4634 -0.6145
 6957TIP3   OH242361   2.964   0.745   4.328 -0.0963  0.1294 -0.5470
 6957TIP3    H142362   3.026   0.680   4.297  0.3835 -0.5527  1.6717
 6957TIP3    H242363   2.909   0.765   4.251  0.9069 -1.5032 -1.7455
 6958TIP3   OH242364   5.145   3.012   5.584 -0.0980 -0.3285  0.1353
 6958TIP3    H142365   5.057   3.043   5.604  0.3714 -0.2022  2.2258
 6958TIP3    H242366   5.176   3.070   5.514 -1.0553  0.7281  0.5645
 6959TIP3   OH242367   1.670   1.186  16.592  0.3794  0.6419 -0.2779
 6959TIP3    H142368   1.664   1.144  16.506  1.4637  0.1830 -0.1500
 6959TIP3    H242369   1.754   1.233  16.590 -0.3271  1.9440 -0.0319
 6960TIP3   OH242370   5.240   0.015  14.774  0.0888  0.7360 -0.5109
 6960TIP3    H142371   5.321   0.026  14.824 -0.4910  2.0739  0.1714
 6960TIP3    H242372   5.200  -0.063  14.812  0.5005  0.7325 -0.0665
 6961TIP3   OH242373   3.003   4.868  14.011 -0.3377  0.5995 -0.5022
 6961TIP3    H142374   2.913   4.892  14.033 -0.8415  0.2715 -2.0626
 6961TIP3    H242375   3.055   4.901  14.083 -1.4378  2.8483 -0.6622
 6962TIP3   OH242376   4.544   1.503  11.656  0.2455  0.4675  0.5414
 6962TIP3    H142377   4.514   1.415  11.678  0.0005 -0.3074 -2.3779
 6962TIP3    H242378   4.623   1.516  11.708  0.4922 -1.6389  0.7836
 6963TIP3   OH242379   0.427   3.634  10.504  0.3250  0.2588  0.0977
 6963TIP3    H142380   0.428   3.728  10.483  2.6808  0.6134  1.3827
 6963TIP3    H242381   0.368   3.627  10.580  1.5200  1.0585  1.1475
 6964TIP3   OH242382   5.742   4.051  16.949 -0.2259  0.7258  0.0926
 6964TIP3    H142383   5.653   4.048  16.915 -0.1554 -0.5466 -0.0207
 6964TIP3    H242384   5.798   4.041  16.872 -0.0312 -0.2473  0.3452
 6965TIP3   OH242385   1.080   4.598   1.808  0.3327  0.8368 -0.1324
 6965TIP3    H142386   1.133   4.538   1.860  2.2035  0.2500 -2.5060
 6965TIP3    H242387   1.049   4.545   1.735 -0.4010  2.0997 -0.7689
 6966TIP3   OH242388   4.971   0.147  12.976 -0.2161 -0.4201 -0.4054
 6966TIP3    H142389   5.048   0.091  12.987  0.9315  1.0247 -0.7249
 6966TIP3    H242390   4.972   0.205  13.052 -0.3982  0.2876 -0.9354
 6967TIP3   OH242391   5.915   3.541   0.555 -0.1049 -0.0796 -0.5785
 6967TIP3    H142392   5.827   3.550   0.592  0.1336  1.3467 -0.2989
 6967TIP3    H242393   5.972   3.538   0.631  0.0767 -1.2808 -0.7549
 6968TIP3   OH242394   6.159   6.357   0.812  0.5277  0.4089 -0.0133
 6968TIP3    H142395   6.180   6.346   0.905  0.9377 -1.3506 -0.2748
 6968TIP3    H242396   6.223   6.421   0.780  1.2049  0.0759  0.6472
 6969TIP3   OH242397   4.904   6.306   5.596  0.3215 -0.1500  0.8162
 6969TIP3    H142398   4.877   6.215   5.579  3.1011 -1.2133  1.4850
 6969TIP3    H242399   4.907   6.346   5.509  0.2446 -1.0798  0.3701
 6970TIP3   OH242400   4.234   6.023   0.960  0.0155 -0.0719 -0.1086
 6970TIP3    H142401   4.173   5.987   0.896  0.6867  0.5082 -1.1251
 6970TIP3    H242402   4.179   6.065   1.026 -0.7173 -1.3249  0.1184
 6971TIP3   OH242403   3.761   2.704  13.389  0.4498  0.4073 -0.0986
 6971TIP3    H142404   3.844   2.666  13.359  0.8321  2.8760 -2.6591
 6971TIP3    H242405   3.772   2.798  13.374 -1.9097  1.1173  1.9808
 6972TIP3   OH242406   1.342   3.561   3.196 -0.1160  0.4758  0.0061
 6972TIP3    H142407   1.413   3.534   3.138  0.1444  0.0401  0.5209
 6972TIP3    H242408   1.273   3.496   3.182 -0.1537  0.5161  0.0014
 6973TIP3   OH242409   0.624   4.160  16.459  0.7280  0.3180  0.1620
 6973TIP3    H142410   0.567   4.102  16.410  0.6795 -1.4403  2.1491
 6973TIP3    H242411   0.713   4.134  16.435  0.8152 -2.6835  3.0307
 6974TIP3   OH242412   2.566   4.063  12.111  0.2569  0.8966  0.0160
 6974TIP3    H142413   2.640   4.108  12.152  1.5371 -0.9490 -0.1365
 6974TIP3    H242414   2.562   3.978  12.156 -1.1760  0.5710 -0.6538
 6975TIP3   OH242415   3.861   4.269  12.367 -0.2816  0.5702  0.7136
 6975TIP3    H142416   3.807   4.309  12.435 -0.5490  0.5585  0.5115
 6975TIP3    H242417   3.949   4.269  12.403 -0.1467  1.9666  0.4540
 6976TIP3   OH242418   6.599   4.575  10.891  0.4756  0.2291 -0.4901
 6976TIP3    H142419   6.515   4.578  10.845  0.2694 -0.3926 -0.1643
 6976TIP3    H242420   6.662   4.548  10.824  0.7316  2.2934 -1.1497
 6977TIP3   OH242421   5.733   4.468  14.695  0.0251  0.0214  0.0925
 6977TIP3    H142422   5.808   4.506  14.741  0.3169 -0.7303  0.2450
 6977TIP3    H242423   5.756   4.376  14.684 -1.0602 -0.3038  0.4930
 6978TIP3   OH242424   0.991   4.295  14.506  0.0684  0.3796 -0.1358
 6978TIP3    H142425   0.993   4.230  14.575  0.1430  1.1864  0.6358
 6978TIP3    H242426   0.910   4.345  14.522 -0.9368 -0.6341 -1.7761
 6979TIP3   OH242427   6.588   1.605  15.625  0.7348 -0.6103 -0.1520
 6979TIP3    H142428   6.538   1.597  15.707  0.0462 -1.2761 -0.6286
 6979TIP3    H242429   6.536   1.557  15.560  1.1852  0.0496 -1.0221
 6980TIP3   OH242430   6.379   1.473   6.360 -0.6224  0.0024  0.4158
 6980TIP3    H142431   6.376   1.550   6.417 -1.0937 -0.4326  0.9873
 6980TIP3    H242432   6.288   1.451   6.344 -0.4991 -0.8308  0.8074
 6981TIP3   OH242433   2.291   4.502  15.406  0.4025  0.5235 -0.0008
 6981TIP3    H142434   2.325   4.480  15.494  4.0243 -0.3701 -1.4181
 6981TIP3    H242435   2.330   4.588  15.387 -0.4947  0.7863 -0.6747
 6982TIP3   OH242436   1.025   2.098   0.147  0.2686 -0.6210 -0.1326
 6982TIP3    H142437   1.039   2.005   0.130  1.2802 -0.5365  0.1812
 6982TIP3    H242438   1.056   2.111   0.237  0.8269  0.1602 -0.4283
 6983TIP3   OH242439   3.128   0.782   5.992  0.1553  0.2683  0.3059
 6983TIP3    H142440   3.133   0.805   6.085  0.1242  0.0994  0.3488
 6983TIP3    H242441   3.121   0.867   5.948 -0.2129  0.3340  0.4825
 6984TIP3   OH242442   2.701   4.450   1.582  0.3636 -0.6618  0.0486
 6984TIP3    H142443   2.738   4.434   1.495 -0.4961  1.1162 -0.7140
 6984TIP3    H242444   2.609   4.424   1.574 -0.3420  1.6728 -0.3885
 6985TIP3   OH242445   1.334   1.179   1.953  0.7783  0.4305  0.3225
 6985TIP3    H142446   1.308   1.230   1.876  0.2266 -0.1253  0.1296
 6985TIP3    H242447   1.297   1.226   2.027  1.2085  0.9033  0.2427
 6986TIP3   OH242448   0.698   0.518   1.546  0.3450  0.0482  0.5676
 6986TIP3    H142449   0.695   0.455   1.474  0.1911  1.1712 -0.4517
 6986TIP3    H242450   0.621   0.497   1.599  0.5820 -0.9427  0.5370
 6987TIP3   OH242451   2.458   2.065  13.521 -0.4557 -0.8248  0.2814
 6987TIP3    H142452   2.442   2.159  13.529 -0.5630 -0.8338  0.1818
 6987TIP3    H242453   2.552   2.058  13.506 -0.6096 -0.6528 -0.8837
 6988TIP3   OH242454   4.230   5.804  14.186 -0.0869  0.7260  0.1528
 6988TIP3    H142455   4.163   5.737  14.174 -0.9188  1.7448 -1.2002
 6988TIP3    H242456   4.181   5.885  14.200  0.8601  1.4293 -0.4664
 6989TIP3   OH242457   2.219   6.225   1.653  0.3883 -0.3148 -0.1494
 6989TIP3    H142458   2.210   6.319   1.641  0.6133 -0.1554  0.8816
 6989TIP3    H242459   2.271   6.196   1.578 -1.9619 -0.0721 -2.0199
 6990TIP3   OH242460   3.722   1.189  11.539  0.5549 -0.2149  0.2978
 6990TIP3    H142461   3.756   1.165  11.453  1.1529 -0.3800  0.5776
 6990TIP3    H242462   3.782   1.256  11.571 -0.5908  1.0536 -0.0974
 6991TIP3   OH242463   3.127   4.086   3.247  0.1624 -0.0219 -0.0538
 6991TIP3    H142464   3.154   4.117   3.160 -0.0168  0.1407 -0.0513
 6991TIP3    H242465   3.197   4.026   3.273 -0.3123 -0.9329 -0.7860
 6992TIP3   OH242466   3.773   0.598   0.752 -0.3282 -0.3288 -0.0624
 6992TIP3    H142467   3.687   0.555   0.754 -0.5139 -0.0016  2.7515
 6992TIP3    H242468   3.761   0.677   0.804  1.5932 -0.0664  0.0468
 6993TIP3   OH242469   5.927   1.018  14.651 -0.3915 -0.8421 -0.5547
 6993TIP3    H142470   6.021   1.000  14.657  0.0224  1.3177  0.1843
 6993TIP3    H242471   5.916   1.062  14.567  0.0204  2.5147  0.9826
 6994TIP3   OH242472   5.724   1.339   5.640 -0.2074 -0.3763  0.1843
 6994TIP3    H142473   5.778   1.314   5.565 -1.0756 -2.0894  0.0691
 6994TIP3    H242474   5.634   1.335   5.607 -0.5472 -0.2698  1.0724
 6995TIP3   OH242475   0.721   4.254  14.243 -0.6299  0.4144 -0.1631
 6995TIP3    H142476   0.810   4.240  14.277  0.5894  1.6607 -2.6164
 6995TIP3    H242477   0.676   4.300  14.315  1.6104  2.3397  0.1676
 6996TIP3   OH242478   3.232   5.339   3.752 -0.5068  0.6650 -0.2473
 6996TIP3    H142479   3.229   5.277   3.679  1.4533  2.4104 -1.9459
 6996TIP3    H242480   3.168   5.305   3.815  0.5721 -3.1123 -0.9550
 6997TIP3   OH242481   2.122   5.524  13.397  0.2776 -0.2462 -0.7267
 6997TIP3    H142482   2.188   5.455  13.396 -0.9127 -1.4237 -0.7485
 6997TIP3    H242483   2.088   5.526  13.307 -1.4659 -1.4490 -0.1516
 6998TIP3   OH242484   0.460   5.111  14.027 -0.3354  0.0616 -0.7143
 6998TIP3    H142485   0.422   5.024  14.014  2.2393 -1.1950 -0.4905
 6998TIP3    H242486   0.447   5.129  14.120 -0.2379 -0.4093 -0.6073
 6999TIP3   OH242487   4.480   2.434  16.078 -0.4607  0.1424 -0.1498
 6999TIP3    H142488   4.393   2.395  16.065 -0.3858  0.0042 -0.2430
 6999TIP3    H242489   4.468   2.498  16.148 -0.2364 -1.2389  1.2161
 7000TIP3   OH242490   5.618   4.738   3.580  0.3611 -0.1005  0.3102
 7000TIP3    H142491   5.669   4.723   3.660  1.4387  2.6635  0.2295
 7000TIP3    H242492   5.553   4.804   3.605  0.9878  1.1323 -1.1665
 7001TIP3   OH242493   4.439   2.235   0.518 -0.1871  0.5934  0.2358
 7001TIP3    H142494   4.475   2.306   0.570 -1.3746  0.9038  0.6677
 7001TIP3    H242495   4.344   2.243   0.528 -0.3797 -0.4273 -0.5385
 7002TIP3   OH242496   4.590   2.254  15.681 -0.2342 -0.4892 -0.2712
 7002TIP3    H142497   4.677   2.225  15.652  0.1772  2.3995 -2.3824
 7002TIP3    H242498   4.608   2.319  15.748 -0.7367  0.3736 -0.9622
 7003TIP3   OH242499   4.038   3.958   2.863  0.4013  0.4419 -0.3585
 7003TIP3    H142500   3.967   3.999   2.814 -1.0631 -2.2266 -0.6341
 7003TIP3    H242501   4.056   3.877   2.816  0.9109 -0.8412  1.9102
 7004TIP3   OH242502   0.398   5.964   2.560 -0.1684 -0.1538  0.3676
 7004TIP3    H142503   0.480   6.000   2.595  0.2919  0.6734 -1.4323
 7004TIP3    H242504   0.329   6.008   2.610  0.4563  1.2053  0.0889
 7005TIP3   OH242505   1.271   3.679  15.019 -0.2240 -0.0348  0.5899
 7005TIP3    H142506   1.339   3.613  15.030  1.6594  1.8721  1.0039
 7005TIP3    H242507   1.240   3.698  15.108  0.1189  0.4749  0.6091
 7006TIP3   OH242508   5.508   4.805   1.840  0.2898 -0.3751 -0.8901
 7006TIP3    H142509   5.420   4.829   1.812 -0.3393 -2.5535 -1.0074
 7006TIP3    H242510   5.497   4.771   1.929  1.5059  1.9122  0.2198
 7007TIP3   OH242511   0.876   5.965  13.878 -0.1633 -0.1275  0.4559
 7007TIP3    H142512   0.820   5.892  13.906  1.4234 -0.4870  2.9099
 7007TIP3    H242513   0.916   5.997  13.958  2.3366  0.8276 -1.0751
 7008TIP3   OH242514   6.014   0.742   6.213  0.3493  0.2500 -0.0710
 7008TIP3    H142515   5.940   0.797   6.239  0.0961  0.6264 -1.5171
 7008TIP3    H242516   5.985   0.653   6.234  0.5150  0.5659  1.6983
 7009TIP3   OH242517   3.285   3.215   0.299  0.5332 -0.0092 -0.6933
 7009TIP3    H142518   3.308   3.273   0.226  0.3520  0.4216 -0.4166
 7009TIP3    H242519   3.279   3.128   0.260 -0.3542  0.3277 -1.3631
 7010TIP3   OH242520   6.809   5.325  16.319  0.0221 -0.2146  0.2095
 7010TIP3    H142521   6.800   5.393  16.386  0.4364 -0.3647  0.4220
 7010TIP3    H242522   6.820   5.373  16.237 -2.2415 -0.0029 -0.0396
 7011TIP3   OH242523   3.199   3.961   0.662  0.3746 -0.3458  0.3535
 7011TIP3    H142524   3.160   3.883   0.623  2.2252 -0.0940 -2.2438
 7011TIP3    H242525   3.282   3.972   0.616  1.4089  1.6798  2.4931
 7012TIP3   OH242526   4.409   0.923   3.247  0.7001 -0.5728 -0.4286
 7012TIP3    H142527   4.376   0.949   3.161  0.0248 -0.7778 -0.2350
 7012TIP3    H242528   4.478   0.986   3.266  0.7090 -0.3943 -1.0243
 7013TIP3   OH242529   5.606   3.780   5.076  0.8796 -0.0201 -0.2283
 7013TIP3    H142530   5.516   3.749   5.079  0.3517  1.2171 -1.5540
 7013TIP3    H242531   5.646   3.748   5.156 -0.3652 -1.7009 -0.2307
 7014TIP3   OH242532   6.396   5.245  14.250  0.2534  0.5519 -0.0984
 7014TIP3    H142533   6.339   5.279  14.181 -0.4322  2.6517  1.3756
 7014TIP3    H242534   6.475   5.298  14.244  0.9667 -0.5318 -0.4403
 7015TIP3   OH242535   0.123   4.811   1.040  0.0163  0.2485  0.3672
 7015TIP3    H142536   0.161   4.877   1.098  1.1599 -0.3028  0.2913
 7015TIP3    H242537   0.180   4.811   0.963 -0.9306  0.3104 -0.3454
 7016TIP3   OH242538   5.324   1.428   1.633 -0.1191 -0.8175 -0.6814
 7016TIP3    H142539   5.411   1.461   1.610 -1.2776  2.9698 -0.2825
 7016TIP3    H242540   5.338   1.334   1.648  3.8557 -0.4147 -0.6114
 7017TIP3   OH242541   2.985   6.106  16.405 -0.7275  0.3467 -0.3894
 7017TIP3    H142542   3.045   6.168  16.445  0.4521 -0.6319 -0.5530
 7017TIP3    H242543   2.985   6.031  16.464 -2.1026  0.4634 -0.2061
 7018TIP3   OH242544   3.085   6.234  13.961 -0.4653  0.3412 -0.0409
 7018TIP3    H142545   3.063   6.300  13.895 -2.5081  0.2002  0.4246
 7018TIP3    H242546   3.001   6.216  14.005 -0.1014 -2.9415 -0.4831
 7019TIP3   OH242547   2.437   6.330  15.371  0.1929  0.1905  0.6131
 7019TIP3    H142548   2.517   6.318  15.319 -0.4643  0.9014 -0.5975
 7019TIP3    H242549   2.446   6.417  15.409 -0.5998  0.8192 -0.6133
 7020TIP3   OH242550   3.360   1.930  11.986 -0.1917 -0.4432  0.4416
 7020TIP3    H142551   3.362   1.896  11.897 -1.0788 -1.8747  0.9315
 7020TIP3    H242552   3.452   1.941  12.010  0.0622 -0.6692 -0.4172
 7021TIP3   OH242553   5.626   4.326  16.532 -0.0198  0.2224 -0.5500
 7021TIP3    H142554   5.672   4.290  16.456  0.6112  0.1575 -0.1469
 7021TIP3    H242555   5.693   4.332  16.600 -0.5070  0.5690 -0.0908
 7022TIP3   OH242556   5.843   0.545   5.931  1.1603  0.2201 -0.1695
 7022TIP3    H142557   5.778   0.609   5.960  1.6672  0.7586 -0.1944
 7022TIP3    H242558   5.884   0.515   6.012  0.4061 -0.6524 -0.0954
 7023TIP3   OH242559   3.504   4.299  16.196 -0.5110 -0.2329  0.0825
 7023TIP3    H142560   3.498   4.319  16.102  1.5283 -0.1742 -0.0959
 7023TIP3    H242561   3.597   4.313  16.217 -0.9950  0.1060  2.2054
 7024TIP3   OH242562   4.835   1.815   2.939 -0.1648  0.6241  0.0745
 7024TIP3    H142563   4.833   1.857   3.025 -0.0630 -1.3737  1.1138
 7024TIP3    H242564   4.927   1.820   2.913  0.2268 -0.6544  1.1123
 7025TIP3   OH242565   5.056   0.276  12.355 -0.1674 -0.2294  0.1448
 7025TIP3    H142566   5.137   0.226  12.356 -0.2349 -0.4125 -1.2878
 7025TIP3    H242567   4.993   0.219  12.309  0.0327  1.4946 -2.5197
 7026TIP3   OH242568   1.481   3.463   5.831  0.3123  0.3660 -0.2596
 7026TIP3    H142569   1.514   3.396   5.770  1.1166  1.0169 -0.5590
 7026TIP3    H242570   1.531   3.449   5.911 -1.6163 -1.3009  0.7445
 7027TIP3   OH242571   5.892   0.858   0.433  0.0607 -0.0455  0.3334
 7027TIP3    H142572   5.819   0.800   0.412 -0.3452  1.1077 -1.7353
 7027TIP3    H242573   5.952   0.849   0.359  1.1223  0.4092  1.1162
 7028TIP3   OH242574   1.511   2.980   6.668  0.5324  0.5115 -0.2416
 7028TIP3    H142575   1.515   3.005   6.576 -0.2032  0.2898 -0.3371
 7028TIP3    H242576   1.600   2.953   6.689  0.3397 -1.1850 -1.3853
 7029TIP3   OH242577   6.340   0.427   4.803 -0.3717  0.2744  0.0326
 7029TIP3    H142578   6.377   0.516   4.805 -0.1832  0.2129 -0.6987
 7029TIP3    H242579   6.393   0.379   4.867  0.1125  0.4661 -0.2161
 7030TIP3   OH242580   0.248   4.794  14.593  0.4653 -0.2908  0.6372
 7030TIP3    H142581   0.318   4.836  14.643  0.2954  0.5078  0.2309
 7030TIP3    H242582   0.275   4.803  14.502 -0.8354  1.3963  0.3497
 7031TIP3   OH242583   4.176   4.126   0.527 -0.0147 -0.0830 -0.2665
 7031TIP3    H142584   4.192   4.201   0.470  0.6193 -1.1614 -1.5816
 7031TIP3    H242585   4.195   4.157   0.615  0.5857  1.1963 -0.8294
 7032TIP3   OH242586   5.680   3.943  13.894  0.0907 -0.6839 -0.3493
 7032TIP3    H142587   5.621   3.992  13.836 -0.4547  0.9205  1.4513
 7032TIP3    H242588   5.766   3.955  13.855 -0.4402 -0.8578 -1.6106
 7033TIP3   OH242589   6.602   0.871   5.131  0.0209 -0.3605  0.3677
 7033TIP3    H142590   6.692   0.841   5.134 -0.3448 -1.4269  2.0552
 7033TIP3    H242591   6.554   0.799   5.090 -0.1045  0.1332 -0.3735
 7034TIP3   OH242592   2.360   0.383  11.742 -0.5786 -0.6015 -0.0081
 7034TIP3    H142593   2.391   0.297  11.770  0.5624 -0.5700 -1.1190
 7034TIP3    H242594   2.299   0.409  11.811  1.3967 -0.9297  1.9708
 7035TIP3   OH242595   5.576   2.163   0.021 -0.3059  0.2191 -0.2190
 7035TIP3    H142596   5.568   2.070  -0.003  2.0206 -0.3218  0.8895
 7035TIP3    H242597   5.487   2.188   0.046 -0.8823 -1.9268  0.1353
 7036TIP3   OH242598   3.791   6.773   1.972  0.3369 -0.5321 -0.3898
 7036TIP3    H142599   3.792   6.690   2.020  1.4453 -0.4427 -0.2354
 7036TIP3    H242600   3.883   6.792   1.956  0.0486  0.2555 -1.1514
 7037TIP3   OH242601   5.985   6.595  16.995 -0.6554 -0.1882  0.4771
 7037TIP3    H142602   5.890   6.588  16.983 -0.5552  0.7100 -1.0706
 7037TIP3    H242603   6.012   6.664  16.935  1.2200 -1.6156 -0.4231
 7038TIP3   OH242604   4.566   1.868   1.527  0.2408 -0.1538  0.5979
 7038TIP3    H142605   4.573   1.773   1.541  1.1337 -0.5321 -1.9048
 7038TIP3    H242606   4.652   1.902   1.551  0.0201 -0.0164  1.1976
 7039TIP3   OH242607   1.531   1.455   2.119  0.0350  0.1401  0.2478
 7039TIP3    H142608   1.452   1.414   2.156 -0.9558  3.6247  2.4167
 7039TIP3    H242609   1.506   1.477   2.029  0.5244 -3.4675 -0.9278
 7040TIP3   OH242610   5.296   6.385  12.389  0.4046  0.4339 -0.7193
 7040TIP3    H142611   5.291   6.430  12.473  0.4649  0.0330 -0.4999
 7040TIP3    H242612   5.381   6.409  12.353  0.7408 -0.0597 -0.2803
 7041TIP3   OH242613   2.576   2.862   4.214 -0.0100  0.3684 -0.6778
 7041TIP3    H142614   2.498   2.817   4.183  0.8472 -1.7419  0.0837
 7041TIP3    H242615   2.588   2.832   4.304  1.6266  0.6687 -0.7579
 7042TIP3   OH242616   0.885   3.778   2.387 -0.1114  0.0206 -0.2580
 7042TIP3    H142617   0.899   3.685   2.371  0.1283 -0.0865  0.5731
 7042TIP3    H242618   0.934   3.822   2.317 -0.3536 -0.4711 -0.7441
 7043TIP3   OH242619   6.417   6.569  16.337  0.3089  0.2175  0.1859
 7043TIP3    H142620   6.502   6.551  16.297  0.1093  0.4587 -0.3600
 7043TIP3    H242621   6.398   6.659  16.313  0.2553  0.4197  0.9723
 7044TIP3   OH242622   3.800   5.309   3.806 -0.0957  0.0468 -0.8608
 7044TIP3    H142623   3.863   5.278   3.741 -0.1420 -0.1458 -0.8167
 7044TIP3    H242624   3.728   5.344   3.754 -1.8629 -3.4268 -1.0864
 7045TIP3   OH242625   1.133   3.045  15.446  0.0767 -0.4581 -0.4596
 7045TIP3    H142626   1.203   2.986  15.472  0.9780  0.7571 -0.0070
 7045TIP3    H242627   1.078   3.053  15.524  1.2910  1.1017  0.3083
 7046TIP3   OH242628   0.200   1.034   1.791 -0.4728  0.1159 -0.0299
 7046TIP3    H142629   0.225   1.109   1.738  1.3537 -1.3356 -1.3774
 7046TIP3    H242630   0.256   1.039   1.869 -2.4352  1.6877  1.3674
 7047TIP3   OH242631   0.566   4.475   4.804  0.1804  0.1670 -0.4155
 7047TIP3    H142632   0.481   4.436   4.781  0.6325 -0.8442 -0.4173
 7047TIP3    H242633   0.544   4.545   4.865 -0.8364  1.2847 -1.9940
 7048TIP3   OH242634   5.606   6.290   1.566 -0.4862  0.1904  0.1091
 7048TIP3    H142635   5.696   6.321   1.572 -0.4874  0.0104  1.3355
 7048TIP3    H242636   5.561   6.334   1.638 -0.9627 -1.0460  0.6000
 7049TIP3   OH242637   4.760   2.942  13.365 -0.3775 -0.0880  0.3852
 7049TIP3    H142638   4.840   2.994  13.377 -0.7123  0.4949  0.1272
 7049TIP3    H242639   4.689   3.001  13.388 -0.6882 -1.2541  2.8438
 7050TIP3   OH242640   0.518   4.007  14.314  0.0770  0.4243  0.2054
 7050TIP3    H142641   0.600   3.984  14.270 -0.8431 -2.1053 -0.3519
 7050TIP3    H242642   0.452   4.006  14.245 -0.8480 -0.3201  1.0692
 7051TIP3   OH242643   2.069   6.588   2.528 -0.2857 -0.0503 -0.3303
 7051TIP3    H142644   1.989   6.624   2.490 -0.8927 -2.0850 -1.1382
 7051TIP3    H242645   2.124   6.565   2.453  0.8306  0.8000  0.2006
 7052TIP3   OH242646   3.591   0.958   4.264 -0.7615  0.3262 -0.2282
 7052TIP3    H142647   3.568   0.999   4.347 -1.2237  1.2323 -0.7860
 7052TIP3    H242648   3.682   0.983   4.248 -0.1876 -1.0545  0.6875
 7053TIP3   OH242649   6.671   4.895  15.045 -0.2545  0.2930 -0.0166
 7053TIP3    H142650   6.738   4.854  14.991 -1.2864 -0.9161 -0.4210
 7053TIP3    H242651   6.599   4.913  14.985 -2.3597 -3.1625  1.1946
 7054TIP3   OH242652   6.334   2.063   2.248 -0.3034 -0.3789  0.0739
 7054TIP3    H142653   6.303   1.977   2.277  2.0092 -2.1658 -2.2361
 7054TIP3    H242654   6.255   2.110   2.222 -1.6832 -1.5968  1.7896
 7055TIP3   OH242655   2.835   2.646   2.313  0.4603  0.4351  0.5258
 7055TIP3    H142656   2.842   2.696   2.232 -0.2909 -0.0050  0.1690
 7055TIP3    H242657   2.918   2.659   2.357  0.9143  0.6242 -0.3578
 7056TIP3   OH242658   2.338   2.328   4.775 -0.6929  0.5213  0.2276
 7056TIP3    H142659   2.288   2.307   4.854 -2.0594 -1.8582 -1.1418
 7056TIP3    H242660   2.348   2.244   4.730  1.6696  1.4807 -1.2554
 7057TIP3   OH242661   2.287   2.884   0.034  0.2931 -0.2572  0.1261
 7057TIP3    H142662   2.339   2.928  -0.033  0.0434  1.8912  1.2213
 7057TIP3    H242663   2.199   2.880  -0.002  0.3768 -0.0420 -0.1059
 7058TIP3   OH242664   1.068   3.602   1.314  0.2464 -0.2667 -0.0054
 7058TIP3    H142665   1.009   3.567   1.382 -0.5365  0.7516 -0.1457
 7058TIP3    H242666   1.018   3.672   1.273  2.1686  1.8034  1.0026
 7059TIP3   OH242667   5.953   2.793  10.370 -0.5764 -0.5615 -0.1042
 7059TIP3    H142668   6.047   2.783  10.381 -0.6509  0.4970  2.0540
 7059TIP3    H242669   5.916   2.718  10.417 -0.8631 -2.6045 -3.3153
 7060TIP3   OH242670   2.070   0.112   0.569  0.3964 -0.3549 -0.2950
 7060TIP3    H142671   2.127   0.052   0.617  0.7903 -0.1858 -0.5534
 7060TIP3    H242672   2.105   0.199   0.586  0.2050 -0.2472 -0.4398
 7061TIP3   OH242673   5.311   3.549   4.357 -0.1091 -0.0312 -0.5200
 7061TIP3    H142674   5.381   3.607   4.325 -0.5202  0.2093 -0.9987
 7061TIP3    H242675   5.263   3.603   4.421  0.5686 -0.4341  0.3482
 7062TIP3   OH242676   4.760   1.817  14.820 -0.3880 -0.1685  0.8732
 7062TIP3    H142677   4.748   1.821  14.915 -0.6729 -0.9381  0.8833
 7062TIP3    H242678   4.800   1.731  14.805 -0.2091  0.0081  0.3118
 7063TIP3   OH242679   1.994   0.087   2.144  0.1235 -0.1248 -0.2810
 7063TIP3    H142680   1.938   0.032   2.090 -0.8511 -0.5209  1.0782
 7063TIP3    H242681   2.083   0.067   2.113 -0.3107 -1.3254 -0.8473
 7064TIP3   OH242682   1.589   4.727   1.497 -0.0711 -0.0167 -0.3814
 7064TIP3    H142683   1.684   4.719   1.501  0.0380 -0.0625 -2.4108
 7064TIP3    H242684   1.557   4.637   1.497 -0.1366 -0.0018  0.2266
 7065TIP3   OH242685   3.341   5.440   6.742 -0.5898 -0.6578  0.4909
 7065TIP3    H142686   3.259   5.464   6.784  0.3480  0.8018  1.6334
 7065TIP3    H242687   3.380   5.524   6.715  1.0112 -1.1934  0.9888
 7066TIP3   OH242688   6.602   0.231  13.733  0.3045 -0.3657 -0.2396
 7066TIP3    H142689   6.518   0.189  13.751  1.3895 -1.9191  1.6644
 7066TIP3    H242690   6.623   0.204  13.643 -0.4284 -1.4591 -0.1094
 7067TIP3   OH242691   1.638   2.060   5.761  0.0462  0.2853  0.4819
 7067TIP3    H142692   1.728   2.084   5.740  0.3776 -0.3672  1.1054
 7067TIP3    H242693   1.609   2.126   5.824  0.2151  0.2842  0.5612
 7068TIP3   OH242694   2.355   4.287   0.250 -0.5651 -0.5033 -0.0429
 7068TIP3    H142695   2.410   4.212   0.273 -0.0993 -0.1106  0.1433
 7068TIP3    H242696   2.329   4.324   0.334 -0.8795 -0.5119 -0.1346
 7069TIP3   OH242697   0.125   1.775   1.601 -0.0852 -0.4207 -0.0306
 7069TIP3    H142698   0.150   1.694   1.556  3.0610  0.0874  0.6183
 7069TIP3    H242699   0.120   1.840   1.531  1.6758 -0.3071 -0.0920
 7070TIP3   OH242700   6.780   4.632   0.807 -0.3966 -0.0146 -0.7957
 7070TIP3    H142701   6.856   4.608   0.861 -1.1050  0.3017  0.3856
 7070TIP3    H242702   6.789   4.725   0.791 -0.4975  0.0106 -0.7104
 7071TIP3   OH242703   3.232   2.053  14.632 -0.1080  0.3836 -0.5871
 7071TIP3    H142704   3.228   2.023  14.541  2.1595 -0.6197 -0.4167
 7071TIP3    H242705   3.167   2.001  14.678 -0.6479  0.2699 -1.4685
 7072TIP3   OH242706   2.361   3.455  16.986  0.0143 -0.3147  0.0854
 7072TIP3    H142707   2.297   3.416  17.046  0.5651 -2.4724 -0.6438
 7072TIP3    H242708   2.387   3.537  17.029 -1.9540 -0.2283  1.2149
 7073TIP3   OH242709   2.140   4.645   0.634 -0.0819 -0.3434  0.3904
 7073TIP3    H142710   2.121   4.575   0.696 -1.3874  1.4760  2.1826
 7073TIP3    H242711   2.061   4.700   0.635  1.1763  1.5762 -0.3536
 7074TIP3   OH242712   3.020   3.232   5.046 -0.3276 -0.3185  0.4181
 7074TIP3    H142713   3.094   3.261   5.100  0.4578 -1.4640  0.0022
 7074TIP3    H242714   2.971   3.312   5.027  1.1405  0.5652  0.2086
 7075TIP3   OH242715   6.564   6.259  10.453  0.2490 -0.3959 -0.7137
 7075TIP3    H142716   6.593   6.325  10.391 -1.0495 -0.6006 -1.5698
 7075TIP3    H242717   6.569   6.177  10.405 -0.5292 -0.5911 -0.4832
 7076TIP3   OH242718   5.642   3.976   1.633  0.0658 -0.1258 -0.2267
 7076TIP3    H142719   5.690   3.904   1.592  0.5928 -0.1299  0.3707
 7076TIP3    H242720   5.627   4.039   1.562  1.5467  0.1726 -0.3057
 7077TIP3   OH242721   4.400   2.637   0.845  0.3298 -0.3440 -0.0234
 7077TIP3    H142722   4.467   2.570   0.836  0.7015 -0.1377  1.0063
 7077TIP3    H242723   4.335   2.616   0.779  1.3126 -0.6607 -0.9233
 7078TIP3   OH242724   4.622   4.630   4.013  0.0946  0.4583 -0.3769
 7078TIP3    H142725   4.559   4.700   4.027  0.6586  0.7393  0.8756
 7078TIP3    H242726   4.658   4.646   3.925 -0.0859  1.4887 -0.2714
 7079TIP3   OH242727   0.922   3.732   1.015 -0.7879 -0.2230  0.6272
 7079TIP3    H142728   0.889   3.762   1.100  0.0803 -2.1264  1.6750
 7079TIP3    H242729   1.017   3.741   1.021 -0.6390 -1.4423  0.3022
 7080TIP3   OH242730   6.621   2.228  17.098 -0.1418  0.4707 -0.2712
 7080TIP3    H142731   6.697   2.195  17.051  0.4908  1.7152 -0.1571
 7080TIP3    H242732   6.634   2.198  17.189  0.0115  0.3696 -0.3270
 7081TIP3   OH242733   1.326   4.109   0.410 -0.1327 -0.3085  0.2380
 7081TIP3    H142734   1.357   4.158   0.486 -2.0017 -0.0680  0.9006
 7081TIP3    H242735   1.241   4.075   0.436 -0.5381 -0.7712 -1.5342
 7082TIP3   OH242736   1.932   3.005   0.301 -0.5051 -0.1062 -0.1653
 7082TIP3    H142737   2.002   2.941   0.313  0.5479  1.1152  0.5864
 7082TIP3    H242738   1.905   2.995   0.210  2.0080  0.6547 -1.0929
 7083TIP3   OH242739   6.237   6.707   2.939  0.0009  0.2971  0.0744
 7083TIP3    H142740   6.185   6.752   3.007 -0.7590 -1.6408  0.8624
 7083TIP3    H242741   6.189   6.626   2.923  1.9723 -0.8443 -0.3341
 7084TIP3   OH242742   3.151   4.081   1.834 -0.3385 -0.0133  0.0993
 7084TIP3    H142743   3.188   4.125   1.910 -0.9061  0.0682  0.3314
 7084TIP3    H242744   3.078   4.030   1.868 -0.5194 -0.0782 -0.3693
 7085TIP3   OH242745   2.489   5.380   2.793 -0.1785 -0.2132  0.3722
 7085TIP3    H142746   2.466   5.413   2.706 -0.9431 -2.3750 -0.3136
 7085TIP3    H242747   2.546   5.447   2.830 -0.9200  1.3957 -1.2519
 7086TIP3   OH242748   6.107   1.941   3.256  0.2583  0.1176 -0.0418
 7086TIP3    H142749   6.089   1.878   3.187 -1.1714  0.9407 -0.4723
 7086TIP3    H242750   6.102   2.026   3.213 -0.1352  0.6169  0.9488
 7087TIP3   OH242751   4.912   6.761   3.138  0.0595 -0.0904  0.8483
 7087TIP3    H142752   4.910   6.856   3.155 -1.5455 -0.2472  1.7016
 7087TIP3    H242753   4.876   6.752   3.050 -0.0046  0.0698  0.8581
 7088TIP3   OH242754   2.001   2.727  17.081 -0.0937 -0.7223  0.5914
 7088TIP3    H142755   2.083   2.746  17.036 -0.5325 -1.1371 -0.4025
 7088TIP3    H242756   1.960   2.658  17.029 -0.6369 -1.1870  1.6066
 7089TIP3   OH242757   0.555   6.006  11.344 -0.4646 -0.4641  0.1033
 7089TIP3    H142758   0.483   5.975  11.399 -0.7068 -0.5341 -0.2455
 7089TIP3    H242759   0.611   5.930  11.332 -1.1316 -0.8247 -0.8683
 7090TIP3   OH242760   0.321   6.749  15.565 -0.1526 -0.7319 -0.2895
 7090TIP3    H142761   0.376   6.687  15.517  2.8449  1.6013 -0.2140
 7090TIP3    H242762   0.375   6.778  15.638 -0.8141  2.7591 -0.9715
 7091TIP3   OH242763   2.061   6.236  12.747  0.0370  0.6507  0.2889
 7091TIP3    H142764   2.105   6.304  12.797  1.1607  0.1957 -0.0641
 7091TIP3    H242765   2.129   6.199  12.692 -0.3540 -1.3534  1.0866
 7092TIP3   OH242766   6.772   3.789  12.573  0.3073 -0.3485 -0.3558
 7092TIP3    H142767   6.859   3.770  12.539  1.3579  1.2388  1.2762
 7092TIP3    H242768   6.769   3.744  12.658  0.2566  1.0131  0.3992
 7093TIP3   OH242769   0.294   1.153  11.193  0.3904 -0.5172 -0.0912
 7093TIP3    H142770   0.214   1.136  11.242  0.1480 -2.7008 -1.0762
 7093TIP3    H242771   0.289   1.245  11.168 -1.6588 -0.5283  0.1421
 7094TIP3   OH242772   1.490   3.548   0.464 -0.3391 -0.6091 -0.0369
 7094TIP3    H142773   1.475   3.471   0.411  0.4660 -1.4892  0.9699
 7094TIP3    H242774   1.531   3.515   0.544 -3.0358  0.4069  1.9296
 7095TIP3   OH242775   2.012   4.212   5.376  0.3263 -0.0256 -0.2108
 7095TIP3    H142776   1.959   4.137   5.350  0.0936 -0.3941  1.2245
 7095TIP3    H242777   2.024   4.262   5.295 -3.1518  0.6853 -0.4796
 7096TIP3   OH242778   5.537   1.277   1.432  0.6306  0.7347 -0.0005
 7096TIP3    H142779   5.613   1.250   1.380  0.1652 -0.0771 -0.2903
 7096TIP3    H242780   5.482   1.324   1.370  0.3008  0.1859 -0.1369
 7097TIP3   OH242781   4.730   6.468  11.921  0.2090 -0.2247 -0.4711
 7097TIP3    H142782   4.687   6.549  11.894  0.2828 -0.2707 -0.7377
 7097TIP3    H242783   4.756   6.426  11.838  1.3797  0.1381 -0.3048
 7098TIP3   OH242784   2.928   0.990  12.523 -0.1266  0.4564  0.3214
 7098TIP3    H142785   2.955   1.015  12.611 -0.2477 -0.1236  0.5335
 7098TIP3    H242786   2.944   0.895  12.520  0.3119  0.5521 -0.4385
 7099TIP3   OH242787   3.341   1.658   5.873 -0.2619  0.7596  0.1575
 7099TIP3    H142788   3.433   1.675   5.892 -0.6554  1.1445  1.9433
 7099TIP3    H242789   3.319   1.719   5.803  0.2830  2.3466  1.3017
 7100TIP3   OH242790   5.542   1.840   0.104  0.0279 -0.2548 -0.0952
 7100TIP3    H142791   5.606   1.869   0.169 -0.3795 -0.7437  0.5375
 7100TIP3    H242792   5.458   1.842   0.150 -0.3886  0.1494 -0.8454
 7101TIP3   OH242793   4.199   4.440   2.331 -0.5566  0.5189 -0.3495
 7101TIP3    H142794   4.126   4.411   2.386 -1.3639  0.3097 -1.4763
 7101TIP3    H242795   4.192   4.535   2.330  1.2686  0.7890  2.2482
 7102TIP3   OH242796   6.693   3.237  14.504  0.0473 -0.2486  0.5909
 7102TIP3    H142797   6.599   3.248  14.494 -0.0603 -2.0827 -1.0641
 7102TIP3    H242798   6.727   3.326  14.513 -1.7734  0.4797  0.6050
 7103TIP3   OH242799   3.601   2.527  14.992  0.0513  0.0027 -0.0223
 7103TIP3    H142800   3.526   2.585  14.980  1.0195  1.1362 -0.7957
 7103TIP3    H242801   3.592   2.494  15.081 -0.6461  1.1765  0.3619
 7104TIP3   OH242802   6.257   0.068   5.366 -0.0257  0.8418  0.3741
 7104TIP3    H142803   6.253   0.155   5.405 -2.0185  0.8861  0.1633
 7104TIP3    H242804   6.213   0.012   5.429  0.1228  0.2129 -0.0721
 7105TIP3   OH242805   2.670   3.314  10.709  0.6404 -0.0913 -0.2442
 7105TIP3    H142806   2.763   3.325  10.691  0.6212 -1.3883 -1.3237
 7105TIP3    H242807   2.644   3.395  10.753  2.2674  0.2900  0.0865
 7106TIP3   OH242808   2.904   2.044   6.230 -0.1464 -0.1798  0.1640
 7106TIP3    H142809   2.897   2.090   6.146 -0.3510 -0.1302  0.2075
 7106TIP3    H242810   2.998   2.040   6.247 -0.0765 -0.5867 -0.2877
 7107TIP3   OH242811   3.126   4.649  10.144  0.2188  0.2429  0.1889
 7107TIP3    H142812   3.186   4.692  10.206 -0.5076  1.0856  0.3333
 7107TIP3    H242813   3.152   4.557  10.146  1.4058  0.5605  0.3604
 7108TIP3   OH242814   2.139   0.350  16.926 -0.4819  0.5550 -0.5610
 7108TIP3    H142815   2.234   0.355  16.919 -0.2158 -1.1712  1.2276
 7108TIP3    H242816   2.117   0.262  16.895 -1.3241  0.3788  0.4976
 7109TIP3   OH242817   4.439   5.637   5.583 -0.7961 -0.5169 -0.1495
 7109TIP3    H142818   4.388   5.581   5.642 -1.1839 -1.6752 -1.5148
 7109TIP3    H242819   4.373   5.680   5.529 -0.4114 -0.2072 -0.3696
 7110TIP3   OH242820   1.922   3.853  14.236 -0.1548 -0.2304  0.1415
 7110TIP3    H142821   2.007   3.815  14.258  0.4763  0.9680 -0.1390
 7110TIP3    H242822   1.930   3.946  14.261 -1.3669 -0.0931  0.0752
 7111TIP3   OH242823   2.120   5.462   5.719 -0.2092 -0.4839  0.2633
 7111TIP3    H142824   2.082   5.512   5.647  2.7451  0.3745 -0.8480
 7111TIP3    H242825   2.113   5.371   5.691  0.1900 -0.2117 -0.7886
 7112TIP3   OH242826   5.337   3.429  14.794 -0.5197 -0.2539  0.3794
 7112TIP3    H142827   5.357   3.455  14.704  1.9468 -0.9420  0.6405
 7112TIP3    H242828   5.243   3.438  14.802 -0.7124  0.5004 -2.0586
 7113TIP3   OH242829   4.657   2.615  17.042 -0.0523 -0.2838  0.3078
 7113TIP3    H142830   4.641   2.665  16.962 -1.0431  0.1260  0.7404
 7113TIP3    H242831   4.708   2.673  17.097 -1.1453  0.2621  0.7831
 7114TIP3   OH242832   5.123   0.646  12.405 -0.4356 -0.1722 -0.0154
 7114TIP3    H142833   5.164   0.630  12.490 -2.4564 -1.2264  0.8309
 7114TIP3    H242834   5.133   0.740  12.390 -0.3168  0.0782  1.5425
 7115TIP3   OH242835   5.786   1.937   4.445 -0.3706 -0.3309 -0.3410
 7115TIP3    H142836   5.840   1.964   4.370 -1.3977 -0.3740 -1.1200
 7115TIP3    H242837   5.844   1.945   4.521  0.3794  0.7242 -1.0037
 7116TIP3   OH242838   4.584   1.325  13.170 -0.5234  0.4624 -0.2943
 7116TIP3    H142839   4.608   1.414  13.198  0.6767  0.7806 -2.1850
 7116TIP3    H242840   4.489   1.321  13.181 -0.2429  0.5717  3.5550
 7117TIP3   OH242841   5.249   2.091   4.347  0.0032  0.5090 -0.2473
 7117TIP3    H142842   5.291   2.116   4.265 -0.2045  3.6680  0.4703
 7117TIP3    H242843   5.271   1.999   4.359 -0.7573 -0.3752 -4.2916
 7118TIP3   OH242844   2.556   4.151   2.254  0.2891 -0.0465 -0.1528
 7118TIP3    H142845   2.479   4.095   2.253  0.5964 -0.4794 -1.3962
 7118TIP3    H242846   2.627   4.094   2.222  1.0670  0.4246  0.6937
 7119TIP3   OH242847   2.636   0.345   3.736  0.1970  0.0973  0.4911
 7119TIP3    H142848   2.694   0.418   3.713  2.0878 -1.3203  0.6190
 7119TIP3    H242849   2.553   0.368   3.694  1.3771  1.2349 -1.3820
 7120TIP3   OH242850   0.108   4.006   0.750  0.1995 -0.3219 -0.1118
 7120TIP3    H142851   0.017   4.017   0.779  0.3093 -2.4648  1.2521
 7120TIP3    H242852   0.156   4.075   0.796 -0.7130  0.8382 -0.8557
 7121TIP3   OH242853   0.624   4.828   6.142 -0.8055 -0.2553  0.0529
 7121TIP3    H142854   0.708   4.853   6.180 -0.4015  0.7983 -1.4535
 7121TIP3    H242855   0.627   4.732   6.139  0.6558 -0.2193 -0.6252
 7122TIP3   OH242856   4.672   4.010  11.033 -0.4666  0.2765 -0.0068
 7122TIP3    H142857   4.723   4.019  11.114 -2.0411  1.3125  0.9276
 7122TIP3    H242858   4.638   3.920  11.036 -1.4434  0.6549  1.1042
 7123TIP3   OH242859   2.401   1.675  15.108  0.1810 -0.3354 -0.1651
 7123TIP3    H142860   2.348   1.754  15.116  2.3642  1.1936  0.1172
 7123TIP3    H242861   2.359   1.612  15.166 -0.6669  1.1784  0.9412
 7124TIP3   OH242862   6.623   3.645   5.307  0.1398 -0.4362 -0.1994
 7124TIP3    H142863   6.587   3.715   5.252  0.1384 -1.9799 -2.2612
 7124TIP3    H242864   6.561   3.637   5.380 -0.4406  0.9571 -0.5068
 7125TIP3   OH242865   2.810   1.848   5.478  0.0662 -0.4489  0.3031
 7125TIP3    H142866   2.826   1.929   5.525 -1.8211 -0.0129  0.2795
 7125TIP3    H242867   2.897   1.814   5.458  0.8918  0.7245  1.7280
 7126TIP3   OH242868   6.752   3.183  15.544 -0.2803  0.0295 -0.0543
 7126TIP3    H142869   6.710   3.165  15.460 -0.8501  1.7094 -0.1509
 7126TIP3    H242870   6.686   3.160  15.609  0.4714 -2.1389  0.0248
 7127TIP3   OH242871   1.579   3.102  13.459 -0.5973 -0.0409 -0.1594
 7127TIP3    H142872   1.623   3.171  13.409  0.0380 -0.4486 -0.1764
 7127TIP3    H242873   1.616   3.021  13.424 -0.0645 -0.3283  1.0504
 7128TIP3   OH242874   4.662   5.342   1.085  0.1172  0.4153 -0.0316
 7128TIP3    H142875   4.624   5.338   1.172  1.0710 -1.2479  0.3586
 7128TIP3    H242876   4.609   5.283   1.032 -0.6588  1.6627 -0.7007
 7129TIP3   OH242877   1.232   3.733   3.022  0.0568  0.1957 -0.1896
 7129TIP3    H142878   1.252   3.689   3.105 -0.6055 -0.9917 -0.6399
 7129TIP3    H242879   1.139   3.714   3.007  0.0486  0.8222 -0.9688
 7130TIP3   OH242880   3.538   3.407   3.547  0.1945  0.2518  0.1852
 7130TIP3    H142881   3.547   3.360   3.630  0.5497 -1.9807 -1.0478
 7130TIP3    H242882   3.445   3.402   3.526  0.1598  0.4996  0.2826
 7131TIP3   OH242883   6.448   3.963  15.374  0.0699 -0.4082 -0.1628
 7131TIP3    H142884   6.362   3.921  15.370 -0.2106  0.0850  0.4793
 7131TIP3    H242885   6.439   4.029  15.442  1.1446 -0.7645  0.3421
 7132TIP3   OH242886   3.799   2.140  15.748 -0.1864 -0.4217 -1.0650
 7132TIP3    H142887   3.733   2.206  15.766 -1.2645 -1.7811  0.1764
 7132TIP3    H242888   3.750   2.058  15.743  1.3945 -1.4815 -0.0683
 7133TIP3   OH242889   6.800   0.948   3.009 -0.5246  0.4725  0.1483
 7133TIP3    H142890   6.889   0.976   3.029 -0.1097  0.1984 -1.2375
 7133TIP3    H242891   6.745   1.019   3.041  0.0409 -0.0177  2.3978
 7134TIP3   OH242892   2.738   6.319  14.055 -0.3402  0.1723  0.5514
 7134TIP3    H142893   2.778   6.243  14.097 -0.4526 -0.5258 -0.5377
 7134TIP3    H242894   2.718   6.379  14.126 -0.3278 -0.8599  1.4497
 7135TIP3   OH242895   0.352   1.644  13.744  0.0551 -0.3704  0.3836
 7135TIP3    H142896   0.433   1.623  13.697 -0.8938 -0.1089 -1.4586
 7135TIP3    H242897   0.381   1.677  13.829  1.8588 -0.6222 -0.0966
 7136TIP3   OH242898   6.114   2.294   5.766 -0.1939  0.2231 -0.1007
 7136TIP3    H142899   6.197   2.271   5.807  0.6508  1.6275 -0.9440
 7136TIP3    H242900   6.077   2.210   5.738  0.6814 -0.4629  0.7223
 7137TIP3   OH242901   4.159   0.611   3.546 -0.4773 -0.4832 -0.2121
 7137TIP3    H142902   4.180   0.672   3.617 -0.9599 -0.2574 -0.2535
 7137TIP3    H242903   4.216   0.637   3.474 -2.1619  1.3878 -0.9879
 7138TIP3   OH242904   5.593   1.635   2.304 -0.3116  0.2351 -0.0447
 7138TIP3    H142905   5.644   1.666   2.229  0.6105  0.0006  0.4691
 7138TIP3    H242906   5.502   1.648   2.278  0.0017  2.6320 -0.1521
 7139TIP3   OH242907   4.359   2.496  12.223  0.4231  0.2449  0.1312
 7139TIP3    H142908   4.428   2.548  12.266  1.3367 -0.9856  0.2299
 7139TIP3    H242909   4.283   2.554  12.221  0.7825  0.8882  2.0728
 7140TIP3   OH242910   1.607   1.666   2.389 -1.0744 -0.2837  0.1500
 7140TIP3    H142911   1.630   1.574   2.380 -1.1206 -0.3167  0.3534
 7140TIP3    H242912   1.663   1.698   2.460  0.4079  0.3509 -1.2329
 7141TIP3   OH242913   0.505   3.079   5.154  0.1796  0.1062 -0.1391
 7141TIP3    H142914   0.519   3.018   5.226 -1.7200 -0.4849 -0.2069
 7141TIP3    H242915   0.486   3.023   5.078 -0.1385  0.7453 -0.5419
 7142TIP3   OH242916   6.587   5.182  17.145 -0.2054  0.1438  0.1467
 7142TIP3    H142917   6.556   5.101  17.104  0.2542 -0.3765  0.8003
 7142TIP3    H242918   6.590   5.246  17.074  0.2545 -0.6433 -0.5617
 7143TIP3   OH242919   1.435   0.279   1.526  0.0463 -0.1015 -0.0425
 7143TIP3    H142920   1.421   0.227   1.604 -1.3462  0.5935  0.2048
 7143TIP3    H242921   1.386   0.360   1.542 -0.2970  0.0394 -1.6328
 7144TIP3   OH242922   6.060   3.730   1.221 -0.0974  0.4588  0.4428
 7144TIP3    H142923   6.150   3.705   1.202 -0.5497 -0.5976 -0.4333
 7144TIP3    H242924   6.008   3.653   1.199 -1.3968  1.5873 -0.6914
 7145TIP3   OH242925   4.226   1.233  11.563 -0.1593  0.3944 -0.4326
 7145TIP3    H142926   4.176   1.265  11.488 -1.9979  0.5749  0.7920
 7145TIP3    H242927   4.174   1.260  11.639  0.6641 -1.4200  0.8328
 7146TIP3   OH242928   6.722   3.612   0.106 -0.4897 -0.1491 -0.1930
 7146TIP3    H142929   6.816   3.625   0.099 -0.7277  2.4121  0.5616
 7146TIP3    H242930   6.689   3.690   0.151 -3.2220 -0.0702 -2.0675
 7147TIP3   OH242931   4.524   4.867  11.836  0.9126 -0.8537  0.0342
 7147TIP3    H142932   4.448   4.809  11.831 -2.0027  2.4942  1.4546
 7147TIP3    H242933   4.520   4.919  11.755  2.1031 -1.0289 -0.1543
 7148TIP3   OH242934   0.750   3.072  11.061  0.2698 -0.5300  0.4291
 7148TIP3    H142935   0.682   3.110  11.117 -0.2683 -0.9171  0.0523
 7148TIP3    H242936   0.827   3.067  11.117  0.0310  0.0602  0.8184
 7149TIP3   OH242937   6.457   0.300   5.018  0.6895  0.0122 -0.9616
 7149TIP3    H142938   6.502   0.216   5.007 -1.9738 -1.5406 -0.8909
 7149TIP3    H242939   6.455   0.313   5.113 -3.5858 -2.8320 -0.3902
 7150TIP3   OH242940   1.219   4.734  10.847  0.9172  0.2719  0.0049
 7150TIP3    H142941   1.213   4.747  10.942  1.1981 -2.7351  0.5604
 7150TIP3    H242942   1.313   4.741  10.828  0.9582  0.0595  0.1225
 7151TIP3   OH242943   1.094   6.751  15.754 -0.0639 -0.2246 -0.6794
 7151TIP3    H142944   1.128   6.720  15.670  0.7522 -1.3206  0.0297
 7151TIP3    H242945   1.074   6.670  15.803  0.9831  0.3697  0.7832
 7152TIP3   OH242946   4.665   1.519   0.938 -0.0936  0.1868 -0.1367
 7152TIP3    H142947   4.627   1.607   0.933 -0.2277  0.2038  0.9991
 7152TIP3    H242948   4.634   1.484   1.021  0.6134 -0.6343 -0.2071
 7153TIP3   OH242949   2.476   5.045  12.806 -0.3401 -0.1614  0.3287
 7153TIP3    H142950   2.417   5.088  12.744 -1.5310  0.2425  1.6834
 7153TIP3    H242951   2.509   5.117  12.860  0.9550 -0.4634 -0.0410
 7154TIP3   OH242952   1.751   2.681  14.220 -0.8728  0.4115 -0.1560
 7154TIP3    H142953   1.693   2.752  14.247 -0.4968  0.6260  0.0916
 7154TIP3    H242954   1.836   2.705  14.255 -0.6978 -0.0572 -0.2558
 7155TIP3   OH242955   5.552   2.472   0.375  0.5214 -0.1054 -0.4055
 7155TIP3    H142956   5.620   2.465   0.442 -0.7406 -0.0532  0.9473
 7155TIP3    H242957   5.505   2.552   0.398 -1.0263 -1.0192 -0.2750
 7156TIP3   OH242958   0.680   3.347  11.735 -0.5001 -0.1912 -0.5043
 7156TIP3    H142959   0.634   3.394  11.665 -1.8432 -0.4756  0.1444
 7156TIP3    H242960   0.675   3.255  11.710 -0.1855 -0.2118 -0.4881
 7157TIP3   OH242961   4.613   3.582  12.008 -0.0834  1.0248 -0.5545
 7157TIP3    H142962   4.528   3.563  11.969 -0.7948  1.7270  0.6033
 7157TIP3    H242963   4.601   3.564  12.101  1.4269 -0.1356 -0.5425
 7158TIP3   OH242964   3.280   2.633  13.042  0.7484  0.4231  0.2054
 7158TIP3    H142965   3.210   2.628  13.106 -1.5881  0.8415 -2.1438
 7158TIP3    H242966   3.280   2.725  13.014  1.5076  0.1877 -0.6153
 7159TIP3   OH242967   4.888   5.531   2.506 -0.1749 -0.0274  0.1565
 7159TIP3    H142968   4.904   5.600   2.441  0.1482 -0.3342 -0.0921
 7159TIP3    H242969   4.894   5.576   2.591  1.7177 -0.0441  0.0811
 7160TIP3   OH242970   6.146   4.669   5.805 -0.2407  0.4059  0.4607
 7160TIP3    H142971   6.168   4.673   5.898  0.2793  1.1885  0.3116
 7160TIP3    H242972   6.057   4.634   5.803 -0.9086  1.9382  1.3534
 7161TIP3   OH242973   3.650   3.207  12.392  0.2854  0.4400  0.3795
 7161TIP3    H142974   3.631   3.143  12.323 -0.3679  1.6734 -0.6166
 7161TIP3    H242975   3.618   3.290  12.358 -3.5301  0.6235  3.5782
 7162TIP3   OH242976   2.094   4.465  14.558  0.0585 -0.1655 -0.0439
 7162TIP3    H142977   2.169   4.511  14.520  1.2569 -1.9149  0.0407
 7162TIP3    H242978   2.131   4.382  14.589 -1.4926 -0.1530  2.0686
 7163TIP3   OH242979   6.182   3.931   6.204 -0.2255  0.1213  0.0404
 7163TIP3    H142980   6.183   3.882   6.286 -0.8778 -0.8905 -0.5338
 7163TIP3    H242981   6.093   3.920   6.170  0.9749 -2.6616 -2.6278
 7164TIP3   OH242982   4.500   0.706  17.114 -0.0157  0.0892  0.3814
 7164TIP3    H142983   4.553   0.720  17.192  0.0652 -0.1769  0.3730
 7164TIP3    H242984   4.562   0.678  17.047 -0.2446 -0.7486  0.5134
 7165TIP3   OH242985   3.913   0.966   3.737  0.1739 -0.0157 -0.1927
 7165TIP3    H142986   3.841   1.028   3.741  0.1640 -0.0558  2.4207
 7165TIP3    H242987   3.992   1.020   3.737  0.1648  0.0912  2.0626
 7166TIP3   OH242988   4.899   2.249   3.146  0.6677  0.1120  0.2707
 7166TIP3    H142989   4.928   2.219   3.060 -0.3837 -0.7676  0.1953
 7166TIP3    H242990   4.901   2.344   3.140  1.0900  0.0609 -0.5581
 7167TIP3   OH242991   4.844   5.663  10.611  0.0215  0.1568  0.0893
 7167TIP3    H142992   4.751   5.683  10.600 -0.1546 -0.6556  0.0283
 7167TIP3    H242993   4.857   5.658  10.705 -0.2200 -0.6838  0.0876
 7168TIP3   OH242994   2.515   6.675   3.457 -0.0163  0.0231  0.4986
 7168TIP3    H142995   2.477   6.705   3.539  1.7322  2.5445  0.4885
 7168TIP3    H242996   2.472   6.729   3.390  0.5372 -0.0556  0.0697
 7169TIP3   OH242997   1.246   2.412   5.282 -0.7946  0.1878  0.4037
 7169TIP3    H142998   1.295   2.494   5.281  0.3755 -0.2461  4.6105
 7169TIP3    H242999   1.158   2.437   5.253 -0.0176  2.5277 -0.1773
 7170TIP3   OH243000   5.927   4.205  15.272  0.5018  0.1907  0.4578
 7170TIP3    H143001   5.889   4.120  15.293 -2.4319  1.4462  0.8372
 7170TIP3    H243002   6.017   4.186  15.247 -0.4067 -3.1807 -0.8291
 7171TIP3   OH243003   5.726   5.899   5.492 -0.4983 -0.5849  0.4990
 7171TIP3    H143004   5.779   5.917   5.569 -0.7007  3.0969 -0.0166
 7171TIP3    H243005   5.644   5.864   5.527 -0.2887  0.2500  1.9144
 7172TIP3   OH243006   1.537   1.041   5.676 -0.3824  0.1378  0.5486
 7172TIP3    H143007   1.481   1.115   5.700  2.6900  3.0304 -0.3422
 7172TIP3    H243008   1.616   1.053   5.729  0.3481 -2.4733  0.2090
 7173TIP3   OH243009   0.637   3.497  10.871 -0.1127 -0.6559  0.7152
 7173TIP3    H143010   0.637   3.492  10.775 -1.3106 -0.9558  0.7114
 7173TIP3    H243011   0.676   3.414  10.899  0.7652 -0.3272  0.4933
 7174TIP3   OH243012   0.112   3.694  17.186 -0.0408  0.2532 -0.3893
 7174TIP3    H143013   0.131   3.623  17.126  0.1599  0.5827 -0.7170
 7174TIP3    H243014   0.177   3.762  17.165 -1.8480  1.6294 -1.8965
 7175TIP3   OH243015   3.806   6.157   4.508  0.5448  0.3176 -0.7590
 7175TIP3    H143016   3.893   6.147   4.470  0.9078  2.0265 -0.4365
 7175TIP3    H243017   3.746   6.144   4.434  1.0239 -1.1937 -0.9187
 7176TIP3   OH243018   0.631   3.591  13.665 -0.5258 -0.2901 -0.4352
 7176TIP3    H143019   0.668   3.662  13.613  0.0493  0.0581  0.4287
 7176TIP3    H243020   0.702   3.527  13.672 -0.1291  0.2664  1.0163
 7177TIP3   OH243021   5.234   6.361  13.144 -0.2928  0.1134  0.3024
 7177TIP3    H143022   5.214   6.286  13.089 -2.7766  0.9587 -0.0549
 7177TIP3    H243023   5.185   6.433  13.105  2.2387  2.0639  0.4354
 7178TIP3   OH243024   4.637   0.369  11.856 -0.1899 -0.1898 -0.4852
 7178TIP3    H143025   4.712   0.343  11.909  0.9588  1.1665 -1.3680
 7178TIP3    H243026   4.615   0.456  11.888 -0.8246 -0.2156 -0.8469
 7179TIP3   OH243027   3.215   1.661   1.089  0.1744 -0.2855 -0.3448
 7179TIP3    H143028   3.292   1.695   1.134  0.1942 -0.3051 -0.3637
 7179TIP3    H243029   3.208   1.714   1.009  0.4904 -0.6499 -0.6149
 7180TIP3   OH243030   2.768   6.315   5.624 -0.1377  0.7255 -0.3092
 7180TIP3    H143031   2.736   6.225   5.612 -0.6532  0.7541  0.7323
 7180TIP3    H243032   2.777   6.349   5.535 -1.3970  0.1522 -0.6780
 7181TIP3   OH243033   0.704   2.999  10.638  0.0688  0.0513  1.0208
 7181TIP3    H143034   0.658   3.048  10.571  0.4049  1.5540  1.8458
 7181TIP3    H243035   0.735   3.065  10.700  1.6670 -1.0723  1.5043
 7182TIP3   OH243036   4.086   4.279  15.397  0.1640 -0.0720 -0.3212
 7182TIP3    H143037   4.118   4.319  15.315  0.4138 -1.2480 -0.8127
 7182TIP3    H243038   4.005   4.327  15.416 -1.2701 -1.3934 -2.6422
 7183TIP3   OH243039   0.055   3.071   4.018  0.4328  0.2117 -0.1586
 7183TIP3    H143040   0.011   3.078   3.933 -0.1421 -1.5667 -0.0531
 7183TIP3    H243041   0.117   2.999   4.007  1.9059  1.3729  0.3072
 7184TIP3   OH243042   1.138   5.219   0.989  0.0326 -0.1589  0.5665
 7184TIP3    H143043   1.106   5.305   1.017  1.3936 -0.5138  3.5414
 7184TIP3    H243044   1.213   5.202   1.045  1.7614 -1.9704 -2.0688
 7185TIP3   OH243045   1.078   5.358  15.608  0.4229  0.1002 -0.4042
 7185TIP3    H143046   1.035   5.284  15.567 -1.6169  0.5815  0.7417
 7185TIP3    H243047   1.034   5.369  15.693  2.0880  1.3135  0.3858
 7186TIP3   OH243048   5.845   2.581  13.485 -0.8127  0.3884  0.1102
 7186TIP3    H143049   5.837   2.676  13.488 -1.3485  0.3347  0.6259
 7186TIP3    H243050   5.934   2.563  13.514  0.1838  0.8380 -2.3613
 7187TIP3   OH243051   4.121   3.379   0.469  0.3745  0.4057  0.0172
 7187TIP3    H143052   4.077   3.463   0.478  0.1905  0.2486  0.6765
 7187TIP3    H243053   4.060   3.316   0.508  1.5201  0.2971  1.7736
 7188TIP3   OH243054   0.883   6.133   5.681 -0.5687 -0.3483 -0.2407
 7188TIP3    H143055   0.956   6.118   5.741 -1.4637  1.1965  1.3190
 7188TIP3    H243056   0.923   6.174   5.605  0.3934 -0.9747 -0.0970
 7189TIP3   OH243057   4.165   5.367  13.234  0.3386 -0.3694 -0.0530
 7189TIP3    H143058   4.259   5.371  13.252  0.2992 -1.1877  0.3741
 7189TIP3    H243059   4.128   5.440  13.284  1.0258  1.6833 -2.3482
 7190TIP3   OH243060   2.904   1.342   0.166 -0.0799 -0.0173  0.0693
 7190TIP3    H143061   2.949   1.426   0.171  2.3928 -1.1686 -1.0604
 7190TIP3    H243062   2.927   1.298   0.249  3.3404 -1.6244 -1.5247
 7191TIP3   OH243063   4.740   0.178   4.398  0.6031  0.0172 -0.7092
 7191TIP3    H143064   4.759   0.178   4.305 -1.5183  0.1059 -1.1790
 7191TIP3    H243065   4.704   0.091   4.416 -0.1763  0.4228 -0.2506
 7192TIP3   OH243066   0.272   6.394   3.246 -0.0177 -0.7938 -0.6585
 7192TIP3    H143067   0.190   6.377   3.199 -0.1042  1.0499 -1.2417
 7192TIP3    H243068   0.244   6.413   3.336 -0.3332  0.5429 -1.0160
 7193TIP3   OH243069   4.139   5.088  12.024 -0.0974 -0.1815 -0.8187
 7193TIP3    H143070   4.080   5.028  11.978  0.3816 -1.2653 -0.0556
 7193TIP3    H243071   4.196   5.123  11.955  0.0220 -1.0913 -1.1915
 7194TIP3   OH243072   5.582   1.566  12.210 -0.3634  0.0360  0.5740
 7194TIP3    H143073   5.600   1.597  12.299 -0.2178  0.0362  0.5460
 7194TIP3    H243074   5.544   1.642  12.166 -2.5439 -0.5906  1.2519
 7195TIP3   OH243075   5.164   1.230  16.404  0.3543 -0.2925 -0.0033
 7195TIP3    H143076   5.080   1.185  16.401  0.5413 -0.6244 -0.3323
 7195TIP3    H243077   5.160   1.295  16.334  0.9565 -1.3635 -1.0704
 7196TIP3   OH243078   2.749   2.884  13.332  0.1756  0.2938  0.6146
 7196TIP3    H143079   2.793   2.936  13.399 -0.4695  2.6576 -0.7092
 7196TIP3    H243080   2.662   2.923  13.325 -0.3645 -1.0273 -0.4100
 7197TIP3   OH243081   2.597   2.162   3.729  0.1827  0.0394  0.0989
 7197TIP3    H143082   2.627   2.092   3.787 -1.2456 -2.1037 -1.5770
 7197TIP3    H243083   2.626   2.135   3.642  0.5443  2.1463 -0.4919
 7198TIP3   OH243084   5.320   2.870   6.020  0.1415 -0.0380  0.2621
 7198TIP3    H143085   5.320   2.853   5.926  0.7029  0.1301  0.2260
 7198TIP3    H243086   5.410   2.851   6.048  0.1176  0.4194  0.6678
 7199TIP3   OH243087   6.514   5.929  12.523 -0.3556 -0.0328 -0.0487
 7199TIP3    H143088   6.558   5.990  12.582 -0.2117 -1.9548  1.9851
 7199TIP3    H243089   6.549   5.843  12.548 -3.6881 -1.4517  0.2246
 7200TIP3   OH243090   0.187   2.719   3.667  0.0603  0.7968  0.0594
 7200TIP3    H143091   0.185   2.745   3.575  0.6179  1.2307  0.1600
 7200TIP3    H243092   0.242   2.785   3.709 -2.0222  1.9241  1.1422
 7201TIP3   OH243093   1.322   1.144  16.517  0.0061  0.1107 -0.3799
 7201TIP3    H143094   1.358   1.182  16.437 -1.2757  2.7663  0.1916
 7201TIP3    H243095   1.229   1.134  16.499  0.1329 -1.9510 -0.1262
 7202TIP3   OH243096   5.028   6.032  12.693  0.0581 -0.0322 -0.5224
 7202TIP3    H143097   5.117   6.064  12.711 -1.1253  2.9241  0.7307
 7202TIP3    H243098   4.997   6.087  12.621 -1.2869  0.0961  0.1279
 7203TIP3   OH243099   0.686   2.125   4.621  0.5113 -0.9024  0.2855
 7203TIP3    H143100   0.605   2.120   4.569  0.8433 -1.9173 -0.1543
 7203TIP3    H243101   0.665   2.079   4.702  0.8272 -1.7537 -0.0974
 7204TIP3   OH243102   4.493   2.593  15.303 -0.3222 -0.8452 -0.5867
 7204TIP3    H143103   4.500   2.498  15.311 -1.2496 -0.8493  0.5184
 7204TIP3    H243104   4.409   2.607  15.259  0.8708 -0.5590 -2.9467
 7205TIP3   OH243105   4.430   1.687  13.256 -0.0909 -0.1470 -0.6959
 7205TIP3    H143106   4.454   1.776  13.284 -0.8217  0.1185 -0.8758
 7205TIP3    H243107   4.458   1.631  13.328 -0.6987  0.3708 -0.0268
 7206TIP3   OH243108   5.176   5.143  12.541 -0.8010  0.1016 -0.0141
 7206TIP3    H143109   5.242   5.162  12.608 -1.0812 -1.1985  0.6676
 7206TIP3    H243110   5.140   5.228  12.517  1.3188  0.8886 -0.6165
 7207TIP3   OH243111   3.140   2.765   5.084  0.0079 -0.4016 -0.8518
 7207TIP3    H143112   3.070   2.709   5.051 -0.3699  0.7462 -2.1175
 7207TIP3    H243113   3.097   2.819   5.151  0.4037 -1.6657  0.4632
 7208TIP3   OH243114   3.994   4.425  16.041  0.1183  0.2926 -0.1490
 7208TIP3    H143115   4.041   4.452  16.120 -0.4206  0.7532  0.0248
 7208TIP3    H243116   4.053   4.447  15.969  0.4532  0.2280  0.1024
 7209TIP3   OH243117   1.438   3.986   1.471 -0.1906 -0.0778 -0.0909
 7209TIP3    H143118   1.386   4.041   1.530  0.1145 -0.7933  0.8879
 7209TIP3    H243119   1.434   4.030   1.386 -0.5673  1.0403  0.4852
 7210TIP3   OH243120   0.818   5.047  11.704 -0.5862 -0.5751  0.4400
 7210TIP3    H143121   0.893   5.011  11.656 -0.5244  0.1382 -0.0096
 7210TIP3    H243122   0.829   5.142  11.700 -2.3260 -0.3645 -1.0075
 7211TIP3   OH243123   5.723   5.431   2.553 -0.2955 -0.0149 -0.4052
 7211TIP3    H143124   5.791   5.447   2.618 -0.5032 -1.0709  0.0856
 7211TIP3    H243125   5.765   5.453   2.469  0.5281 -0.2714 -0.0735
 7212TIP3   OH243126   5.651   5.001  15.757  0.2801  0.6452 -0.0497
 7212TIP3    H143127   5.557   5.001  15.776 -0.4914  0.0640 -3.2226
 7212TIP3    H243128   5.672   5.093  15.742 -0.1383  0.6596 -0.6120
 7213TIP3   OH243129   2.282   3.725   3.138 -0.1861  0.0100  0.2420
 7213TIP3    H143130   2.370   3.702   3.107 -0.8108 -0.6177 -1.1657
 7213TIP3    H243131   2.296   3.771   3.221  1.5474  1.2924 -0.7094
 7214TIP3   OH243132   0.785   1.689   0.177 -0.0495  0.7030 -0.0789
 7214TIP3    H143133   0.725   1.623   0.212 -0.6204  0.1518 -1.9511
 7214TIP3    H243134   0.772   1.685   0.082  1.8280  1.6900 -0.4259
 7215TIP3   OH243135   5.064   2.843  12.238 -0.3565 -0.4527  0.1241
 7215TIP3    H143136   5.067   2.867  12.331 -0.1297  0.4035 -0.0944
 7215TIP3    H243137   5.075   2.926  12.192  1.4397 -1.0998 -0.6756
 7216TIP3   OH243138   2.828   4.415   2.534 -0.2196  0.0716  0.1814
 7216TIP3    H143139   2.798   4.332   2.497  2.7819 -1.6775  1.2215
 7216TIP3    H243140   2.819   4.402   2.629  1.1662  0.4996  0.3904
 7217TIP3   OH243141   6.078   0.404  13.379 -0.0100 -0.7081 -0.1601
 7217TIP3    H143142   6.147   0.433  13.439 -1.0107 -0.9111  1.1474
 7217TIP3    H243143   6.006   0.465  13.395 -0.9495 -1.8659  0.1886
 7218TIP3   OH243144   4.863   6.769   5.107 -0.2571  0.2020  0.1240
 7218TIP3    H143145   4.847   6.734   5.019  1.1713 -1.0356  0.3069
 7218TIP3    H243146   4.958   6.770   5.115 -0.3433 -1.2404  2.1904
 7219TIP3   OH243147   0.574   6.382   4.313  1.0260 -0.0794  0.6485
 7219TIP3    H143148   0.591   6.468   4.275  1.8479 -0.0722  1.0193
 7219TIP3    H243149   0.579   6.395   4.407  3.2098 -0.9120  0.6966
 7220TIP3   OH243150   4.351   3.727  14.655 -0.4113 -0.6968 -1.0768
 7220TIP3    H143151   4.318   3.665  14.719  1.7546 -0.3289  0.5236
 7220TIP3    H243152   4.409   3.676  14.599 -0.3876 -0.5572 -1.1813
 7221TIP3   OH243153   1.045   5.639  16.683  0.0278 -0.4493 -0.3523
 7221TIP3    H143154   0.997   5.722  16.681  1.7692  0.6255  0.3522
 7221TIP3    H243155   0.989   5.580  16.733 -1.5255  0.0700 -1.3905
 7222TIP3   OH243156   5.909   1.995  11.599  0.6234 -0.5292 -0.5453
 7222TIP3    H143157   5.925   1.926  11.663 -0.5681  0.4289  0.8242
 7222TIP3    H243158   5.996   2.029  11.578  1.1066 -1.5274 -0.2298
 7223TIP3   OH243159   4.160   1.687  11.032  0.8268  0.1062 -0.3104
 7223TIP3    H143160   4.141   1.646  11.116 -1.3216 -0.0414 -0.8028
 7223TIP3    H243161   4.152   1.781  11.048  1.1366  0.1144 -0.1997
 7224TIP3   OH243162   2.209   2.972  14.322  0.1257  0.2540 -0.1628
 7224TIP3    H143163   2.284   2.918  14.346  0.1247  0.2967 -0.0658
 7224TIP3    H243164   2.189   3.022  14.401  1.0679  1.5168 -0.6894
 7225TIP3   OH243165   6.741   2.012   2.060  0.0976  0.3301  0.1187
 7225TIP3    H143166   6.749   1.923   2.094 -1.1249 -0.0209 -0.4314
 7225TIP3    H243167   6.745   2.068   2.137  1.3110 -0.1551  0.4337
 7226TIP3   OH243168   5.109   5.276   5.732 -0.2759  0.3060  0.7368
 7226TIP3    H143169   5.129   5.287   5.639 -1.8619  1.8314  0.5250
 7226TIP3    H243170   5.041   5.341   5.750 -2.0028 -1.7822  2.3346
 7227TIP3   OH243171   4.867   3.258   2.618 -0.2885 -1.3229  0.9546
 7227TIP3    H143172   4.937   3.227   2.560 -1.2264 -0.6118 -0.6319
 7227TIP3    H243173   4.903   3.336   2.660 -0.8705  0.5552 -1.7523
 7228TIP3   OH243174   2.284   1.247   3.569 -1.1601 -0.0239 -0.2109
 7228TIP3    H143175   2.321   1.166   3.602  0.2477  1.0484  0.9779
 7228TIP3    H243176   2.235   1.222   3.491 -0.3275 -1.9172 -0.1566
 7229TIP3   OH243177   6.133   4.193   5.703  0.8441  0.2160 -0.6165
 7229TIP3    H143178   6.172   4.184   5.617  2.3645  1.4822 -0.1195
 7229TIP3    H243179   6.208   4.208   5.762 -0.0630 -1.4329  1.0701
 7230TIP3   OH243180   6.639   1.517   0.922 -0.3432  0.1102  0.1986
 7230TIP3    H143181   6.569   1.560   0.971 -0.4123  0.7933 -0.4674
 7230TIP3    H243182   6.593   1.456   0.863 -0.5042  1.4184 -1.0932
 7231TIP3   OH243183   4.367   5.174   4.912 -0.3014  0.7487  0.0624
 7231TIP3    H143184   4.274   5.192   4.904 -0.3288  0.2413 -0.8915
 7231TIP3    H243185   4.395   5.225   4.988 -0.9965  2.2542 -0.6604
 7232TIP3   OH243186   3.467   5.394  14.361  0.0824  0.6106 -0.4963
 7232TIP3    H143187   3.528   5.463  14.333  1.6888 -0.5234  0.0773
 7232TIP3    H243188   3.470   5.329  14.290  0.6266 -0.1038  0.1708
 7233TIP3   OH243189   5.457   5.943   2.822 -0.0936 -0.4734 -0.4444
 7233TIP3    H143190   5.409   5.997   2.886 -1.6188 -2.2762  0.0211
 7233TIP3    H243191   5.443   5.988   2.738  1.4820  1.6344  0.3318
 7234TIP3   OH243192   2.497   5.587   0.257  0.0551 -0.4811  0.7078
 7234TIP3    H143193   2.567   5.522   0.268  0.3330 -0.3460 -0.1929
 7234TIP3    H243194   2.417   5.537   0.275  0.2939 -0.9711  0.4538
 7235TIP3   OH243195   1.988   4.198   3.747  0.0276  0.5914  0.2527
 7235TIP3    H143196   1.963   4.278   3.793  0.8891  1.1050 -0.1633
 7235TIP3    H243197   1.973   4.217   3.654  2.9057  1.3225 -0.1466
 7236TIP3   OH243198   3.894   6.651   4.899 -0.2368  0.2884 -0.1572
 7236TIP3    H143199   3.800   6.668   4.911 -0.1016  1.0577 -0.1029
 7236TIP3    H243200   3.918   6.598   4.975 -0.5192  0.5585  0.1312
 7237TIP3   OH243201   6.251   3.716  11.273  0.3943 -0.0786  0.0396
 7237TIP3    H143202   6.163   3.744  11.301  0.2789  0.4303 -0.7970
 7237TIP3    H243203   6.235   3.645  11.212  0.4273  1.4059 -1.7839
 7238TIP3   OH243204   5.823   0.065   3.368 -0.0550 -0.3608 -0.2387
 7238TIP3    H143205   5.892   0.125   3.395 -1.5251  0.3303  2.3119
 7238TIP3    H243206   5.755   0.074   3.435 -1.7105 -2.5760 -1.4627
 7239TIP3   OH243207   1.044   3.410  16.760  0.1319 -0.3739  0.3571
 7239TIP3    H143208   1.119   3.363  16.724  0.2346 -0.5084  0.7382
 7239TIP3    H243209   1.029   3.368  16.845 -0.3275 -0.2979  0.3139
 7240TIP3   OH243210   2.567   6.218  13.867 -0.4114 -0.0211  0.7109
 7240TIP3    H143211   2.606   6.242  13.951 -0.8424  0.0816  0.8839
 7240TIP3    H243212   2.616   6.268  13.802 -0.3498  0.2153  0.9383
 7241TIP3   OH243213   4.633   0.170  16.052  0.2841  0.5125  0.1690
 7241TIP3    H143214   4.666   0.221  15.978 -0.6535 -0.6774 -1.1396
 7241TIP3    H243215   4.710   0.154  16.106  0.7296  2.6664  0.2681
 7242TIP3   OH243216   6.105   5.756  15.383 -0.0325 -0.1609  0.3445
 7242TIP3    H143217   6.092   5.722  15.295  0.1275 -0.6879  0.5219
 7242TIP3    H243218   6.082   5.849  15.377 -3.4783 -0.8529  0.5143
 7243TIP3   OH243219   2.974   5.355   6.286  0.3430 -0.0009 -0.3359
 7243TIP3    H143220   2.890   5.345   6.332 -0.3584 -1.9182 -1.8991
 7243TIP3    H243221   2.950   5.388   6.199  1.2208 -0.3811 -0.7346
 7244TIP3   OH243222   2.256   1.909   0.401 -0.0453  0.3652 -0.1390
 7244TIP3    H143223   2.207   1.830   0.379  1.6022 -0.8713  0.3913
 7244TIP3    H243224   2.348   1.882   0.398  0.5654  2.2509  0.1272
 7245TIP3   OH243225   5.835   4.304   0.952  0.4118  0.4633 -0.1766
 7245TIP3    H143226   5.837   4.283   1.045  0.5936  0.2101 -0.2356
 7245TIP3    H243227   5.751   4.347   0.938 -0.4067 -1.0699 -0.2212
 7246TIP3   OH243228   3.395   4.601  12.373  0.4056 -0.7267  0.7532
 7246TIP3    H143229   3.468   4.634  12.425 -0.1119  0.1990  0.9158
 7246TIP3    H243230   3.399   4.506  12.384  1.3734 -0.6629  1.0384
 7247TIP3   OH243231   0.643   2.960  15.419  0.6061 -0.1250 -0.4445
 7247TIP3    H143232   0.664   2.969  15.512 -0.0643 -0.9477 -0.2039
 7247TIP3    H243233   0.727   2.945  15.376  0.7974 -0.9164  0.1873
 7248TIP3   OH243234   1.161   5.521   2.981 -0.1017  0.9603  0.7441
 7248TIP3    H143235   1.112   5.439   2.990  2.3014 -0.5666  0.8734
 7248TIP3    H243236   1.095   5.586   2.958 -2.0906 -1.0393  0.4402
 7249TIP3   OH243237   6.513   1.066  11.876  0.5393  0.2740 -0.3618
 7249TIP3    H143238   6.428   1.079  11.918  0.2882  0.1086 -0.8097
 7249TIP3    H243239   6.492   1.050  11.784  0.8944 -2.0528 -0.1017
 7250TIP3   OH243240   4.115   2.023  13.219 -0.0973  0.1343 -0.0770
 7250TIP3    H143241   4.100   2.102  13.167  0.0552  1.3649  1.6593
 7250TIP3    H243242   4.209   2.021  13.232 -0.1697  0.0389  0.4388
 7251TIP3   OH243243   5.696   4.451  12.322 -0.1329  0.0706 -0.2855
 7251TIP3    H143244   5.654   4.531  12.292 -2.3562 -0.6877  0.5444
 7251TIP3    H243245   5.708   4.398  12.243  1.0570  1.0483 -0.7890
 7252TIP3   OH243246   3.181   6.074  12.161  1.0474  0.0253 -0.0537
 7252TIP3    H143247   3.272   6.053  12.182  1.5913  0.4176 -1.8478
 7252TIP3    H243248   3.183   6.166  12.134  0.3919 -0.3105 -1.3680
 7253TIP3   OH243249   5.363   6.375  10.851 -0.7330 -0.2703  0.0305
 7253TIP3    H143250   5.388   6.423  10.772  0.3858  1.1011  1.1639
 7253TIP3    H243251   5.267   6.376  10.850 -0.8456 -2.4614 -2.5427
 7254TIP3   OH243252   3.090   4.779   3.679 -0.2569  0.2369 -0.3071
 7254TIP3    H143253   3.063   4.783   3.771 -1.4373 -1.9456 -0.4893
 7254TIP3    H243254   3.013   4.746   3.633  0.9093 -0.5650 -1.7649
 7255TIP3   OH243255   4.308   4.654  12.901  0.9189  0.2839  0.3565
 7255TIP3    H143256   4.288   4.740  12.864 -0.1885  1.0705  2.6279
 7255TIP3    H243257   4.374   4.618  12.842  0.6209  2.2181 -1.2718
 7256TIP3   OH243258   1.026   5.091  13.687 -0.1331 -0.2551 -0.6264
 7256TIP3    H143259   0.988   5.174  13.662 -1.1600 -1.1730 -2.2285
 7256TIP3    H243260   1.017   5.035  13.610  1.9499 -1.3931 -0.1400
 7257TIP3   OH243261   6.716   6.349  16.337 -0.1601  0.1966  0.0632
 7257TIP3    H143262   6.808   6.327  16.324 -0.2669 -1.4452  1.6955
 7257TIP3    H243263   6.709   6.441  16.309  1.8818  0.2607 -0.3774
 7258TIP3   OH243264   5.597   4.966  16.870 -0.2169  0.0399  0.4240
 7258TIP3    H143265   5.626   5.052  16.902  0.3647 -0.2538  0.7135
 7258TIP3    H243266   5.504   4.977  16.851  0.1246  1.1131 -0.8165
 7259TIP3   OH243267   2.122   3.612  16.047  0.4789  0.3097  0.0448
 7259TIP3    H143268   2.117   3.701  16.082  1.9007  0.5925 -0.4177
 7259TIP3    H243269   2.056   3.564  16.097  1.3590  1.0518  2.0562
 7260TIP3   OH243270   1.150   5.784  13.971  0.2528 -0.1156  0.2128
 7260TIP3    H143271   1.203   5.809  13.895  0.3258  0.4043  0.4290
 7260TIP3    H243272   1.096   5.861  13.989 -0.1274 -0.4170  0.3802
 7261TIP3   OH243273   6.218   5.415  14.109 -0.4739  0.0365 -0.1188
 7261TIP3    H143274   6.218   5.457  14.022  1.3345  1.2999  0.4171
 7261TIP3    H243275   6.126   5.400  14.128 -1.0062  0.9399 -1.7108
 7262TIP3   OH243276   0.462   5.299   0.442  0.4268 -0.3002  1.1843
 7262TIP3    H143277   0.430   5.236   0.378 -0.8506  0.5636  0.9268
 7262TIP3    H243278   0.557   5.289   0.442  0.2945 -1.6794  0.6059
 7263TIP3   OH243279   3.268   2.003   2.597  0.2970  0.1050  0.2365
 7263TIP3    H143280   3.179   1.969   2.605  0.2945 -0.7028 -2.3111
 7263TIP3    H243281   3.257   2.095   2.572  0.1916  0.2371  0.7719
 7264TIP3   OH243282   4.024   4.547  13.664  0.2368  0.3668 -1.0418
 7264TIP3    H143283   4.102   4.574  13.711  0.0904  1.6732 -1.5023
 7264TIP3    H243284   4.025   4.452  13.667 -0.4887  0.3092  2.7724
 7265TIP3   OH243285   6.665   6.492  14.612  0.3850  0.3237 -0.1016
 7265TIP3    H143286   6.674   6.416  14.555 -1.3998 -1.8186  2.2808
 7265TIP3    H243287   6.754   6.509  14.645  0.6864 -1.2261 -0.0717
 7266TIP3   OH243288   5.433   2.425  13.129  0.6901  0.0343  0.2294
 7266TIP3    H143289   5.447   2.512  13.091 -0.9873  0.9358  1.5297
 7266TIP3    H243290   5.445   2.364  13.056 -1.0201  1.5783 -1.4620
 7267TIP3   OH243291   6.832   4.786  11.804  0.7039 -0.0272  0.2623
 7267TIP3    H143292   6.749   4.824  11.835  0.7057  1.2602 -1.1537
 7267TIP3    H243293   6.840   4.818  11.714  2.5827 -0.4034  0.2555
 7268TIP3   OH243294   1.053   4.776   3.775  0.5422 -0.1347  0.2542
 7268TIP3    H143295   1.125   4.735   3.727  0.5176  1.6528 -1.4818
 7268TIP3    H243296   1.091   4.803   3.858  0.9873 -2.0275  0.7044
 7269TIP3   OH243297   5.719   2.406   0.575 -0.5634  0.2736 -0.1705
 7269TIP3    H143298   5.712   2.363   0.660 -0.1687  1.8406  0.6812
 7269TIP3    H243299   5.804   2.378   0.540 -0.8174 -0.5333 -0.1692
 7270TIP3   OH243300   4.808   1.641  11.713  0.6077  0.1083 -1.0459
 7270TIP3    H143301   4.884   1.602  11.755 -1.0293 -2.0469  0.1337
 7270TIP3    H243302   4.758   1.679  11.785  0.0990  0.6717 -1.6837
 7271TIP3   OH243303   3.558   5.432  12.951 -0.2611 -0.4495  0.1760
 7271TIP3    H143304   3.516   5.399  12.872  0.5304  0.6879 -0.7509
 7271TIP3    H243305   3.649   5.446  12.927 -0.4903  2.2305  0.4945
 7272TIP3   OH243306   5.066   2.709  16.021 -0.1764 -0.2823  0.0217
 7272TIP3    H143307   4.980   2.715  15.980 -0.1048  0.4431 -0.0262
 7272TIP3    H243308   5.093   2.618  16.005 -1.2244 -0.7336  0.6489
 7273TIP3   OH243309   2.121   3.572   4.561 -0.1249 -0.1300 -0.1858
 7273TIP3    H143310   2.066   3.494   4.555  0.5250 -0.5396 -0.9444
 7273TIP3    H243311   2.069   3.640   4.518 -0.7474 -0.0948  0.5914
 7274TIP3   OH243312   4.159   3.810  12.454  0.2569  0.7551 -0.4454
 7274TIP3    H143313   4.172   3.738  12.392  0.3731  1.8506 -1.7288
 7274TIP3    H243314   4.067   3.833  12.445 -0.0202  0.1577  0.6752
 7275TIP3   OH243315   2.953   2.518   0.130  0.4438 -0.1028  1.0301
 7275TIP3    H143316   2.900   2.534   0.052  0.7322  2.0560  1.2378
 7275TIP3    H243317   2.907   2.446   0.175 -0.1241 -0.9081 -0.7210
 7276TIP3   OH243318   0.263   5.598  13.793 -0.0392 -0.1223  0.5451
 7276TIP3    H143319   0.214   5.673  13.828 -1.0006 -0.7025  0.4704
 7276TIP3    H243320   0.197   5.531  13.778  0.6222 -0.5295 -0.6577
 7277TIP3   OH243321   2.785   1.914   5.191  0.1063  0.3164 -0.5922
 7277TIP3    H143322   2.793   1.886   5.283  0.5814 -0.6941 -0.9190
 7277TIP3    H243323   2.846   1.987   5.183  0.4947  0.0416 -0.2345
 7278TIP3   OH243324   1.285   5.201  12.656  0.0613  0.3730  0.3899
 7278TIP3    H143325   1.331   5.272  12.700 -2.8081  0.9611  2.7318
 7278TIP3    H243326   1.309   5.123  12.706 -0.7716  0.5417  1.0651
 7279TIP3   OH243327   4.937   3.564   3.800 -0.1735 -0.1199  0.1374
 7279TIP3    H143328   4.936   3.483   3.851  0.6588 -1.1455 -1.3977
 7279TIP3    H243329   4.898   3.540   3.716 -0.3563  1.1937 -0.1705
 7280TIP3   OH243330   3.509   1.778   4.541 -0.1136 -0.2534  0.0512
 7280TIP3    H143331   3.580   1.729   4.582 -0.4087  0.3163  1.2794
 7280TIP3    H243332   3.432   1.758   4.594 -0.4380  0.7866 -0.0018
 7281TIP3   OH243333   3.178   1.633  15.940 -0.4906  0.3211  0.0077
 7281TIP3    H143334   3.096   1.680  15.949 -1.2988 -0.9841 -0.2015
 7281TIP3    H243335   3.194   1.596  16.027  0.7338  1.8490  0.4831
 7282TIP3   OH243336   6.238   0.888   3.907  0.1094 -0.0228 -0.1825
 7282TIP3    H143337   6.184   0.965   3.926  0.4521  0.4824 -1.2042
 7282TIP3    H243338   6.174   0.820   3.885 -0.1676  0.2275 -0.1666
 7283TIP3   OH243339   0.519   2.225  13.150 -0.2167 -0.1423 -0.2870
 7283TIP3    H143340   0.459   2.154  13.173 -0.5802 -0.2730 -1.6000
 7283TIP3    H243341   0.597   2.181  13.116 -0.6814  0.0786 -1.6785
 7284TIP3   OH243342   3.637   3.251   2.620 -0.2547  0.1421  0.2482
 7284TIP3    H143343   3.671   3.165   2.598 -0.9985  0.1147 -0.8590
 7284TIP3    H243344   3.714   3.302   2.646  0.3339 -0.5337 -0.1517
 7285TIP3   OH243345   4.468   5.950   3.757 -0.2323  0.0480 -0.3093
 7285TIP3    H143346   4.466   5.969   3.850  2.0842  0.6809 -0.3237
 7285TIP3    H243347   4.440   5.858   3.751 -0.3741 -0.0138  0.9954
 7286TIP3   OH243348   0.792   6.786   0.873 -0.0892 -0.7218  0.2359
 7286TIP3    H143349   0.876   6.826   0.898  1.0678 -2.2694 -0.9844
 7286TIP3    H243350   0.760   6.842   0.802  0.0713 -0.3163  0.4770
 7287TIP3   OH243351   4.156   5.448  12.977  0.5889  0.4609  0.0093
 7287TIP3    H143352   4.083   5.408  12.931  0.2367  1.5413 -0.3899
 7287TIP3    H243353   4.153   5.410  13.065  0.1432 -0.2257 -0.3000
 7288TIP3   OH243354   3.476   0.600   4.595 -0.1105  1.0387  0.0267
 7288TIP3    H143355   3.406   0.594   4.530  0.6774  1.6125 -0.8940
 7288TIP3    H243356   3.452   0.675   4.649 -0.1288  1.3232 -0.3747
 7289TIP3   OH243357   0.467   4.373  16.134 -0.2708 -0.1662  0.4252
 7289TIP3    H143358   0.436   4.460  16.109  0.6966  0.1514  0.2692
 7289TIP3    H243359   0.518   4.388  16.213 -0.1089 -0.5979  0.4080
 7290TIP3   OH243360   6.043   1.122  13.169  0.2429  0.2616 -0.1954
 7290TIP3    H143361   6.050   1.089  13.259  0.1735 -0.6780 -0.5254
 7290TIP3    H243362   6.051   1.217  13.178 -2.0010  0.4063  1.0641
 7291TIP3   OH243363   4.172   2.252   6.332 -0.3376 -0.2824  0.0777
 7291TIP3    H143364   4.107   2.225   6.396  0.4325 -0.5577  0.7649
 7291TIP3    H243365   4.127   2.316   6.277 -1.0204 -0.0637  0.8757
 7292TIP3   OH243366   1.422   4.047  14.728 -0.7863  0.0171 -0.2640
 7292TIP3    H143367   1.501   4.083  14.687  0.3967  0.0873  1.9439
 7292TIP3    H243368   1.383   4.121  14.775  0.5456 -0.9890  2.6315
 7293TIP3   OH243369   2.215   3.046   5.182 -0.2802  0.5624 -0.5367
 7293TIP3    H143370   2.134   3.022   5.137  0.7000  0.2000 -2.1650
 7293TIP3    H243371   2.250   2.964   5.215 -0.5695  0.7234  0.1949
 7294TIP3   OH243372   1.208   4.363  14.270  0.0924 -0.0281  0.3689
 7294TIP3    H143373   1.274   4.413  14.222 -1.5033  0.7846 -1.0587
 7294TIP3    H243374   1.215   4.274  14.235  1.9361 -0.5602  1.8818
 7295TIP3   OH243375   2.627   1.033   6.222  0.2909  0.1783  0.1829
 7295TIP3    H143376   2.611   1.116   6.267 -3.9458 -0.5722  0.5425
 7295TIP3    H243377   2.639   0.970   6.293  0.4305  0.0192  0.0187
 7296TIP3   OH243378   4.903   6.195  11.186 -0.7164  0.3954  0.6688
 7296TIP3    H143379   4.994   6.218  11.168 -0.6778  0.3401  0.7942
 7296TIP3    H243380   4.853   6.245  11.122 -0.4738 -1.0621 -0.7316
 7297TIP3   OH243381   5.345   0.609  16.199  0.1033  0.6490 -0.1026
 7297TIP3    H143382   5.267   0.625  16.254 -0.7806  1.1091 -1.4404
 7297TIP3    H243383   5.413   0.585  16.261 -1.4049 -0.9006  1.0367
 7298TIP3   OH243384   4.020   0.755   4.864  0.2169  0.0886 -0.4974
 7298TIP3    H143385   4.106   0.788   4.889  0.1639 -2.4672  3.9457
 7298TIP3    H243386   4.038   0.687   4.799  1.2610  1.0789 -1.2878
 7299TIP3   OH243387   6.212   4.950  10.965  0.5791 -0.0760 -0.1698
 7299TIP3    H143388   6.136   4.893  10.978  0.5638 -0.1594 -0.6161
 7299TIP3    H243389   6.183   5.013  10.900  1.2852 -0.8540 -1.2616
 7300TIP3   OH243390   3.492   0.701  13.740 -0.3287 -0.1744  0.0028
 7300TIP3    H143391   3.558   0.719  13.807 -2.6187  0.7284  2.1699
 7300TIP3    H243392   3.487   0.605  13.737  0.8720 -0.2562 -0.0608
 7301TIP3   OH243393   0.135   3.799   4.279 -1.0201 -0.0189  0.0027
 7301TIP3    H143394   0.047   3.763   4.292  0.1833 -2.8783  1.0187
 7301TIP3    H243395   0.173   3.800   4.367  0.2631  0.3864 -0.5411
 7302TIP3   OH243396   4.541   3.666  16.441 -0.0783 -0.1922 -0.0202
 7302TIP3    H143397   4.539   3.746  16.389 -0.5498 -0.3793 -0.3019
 7302TIP3    H243398   4.449   3.645  16.456  0.0328 -0.8327 -0.1962
 7303TIP3   OH243399   0.715   4.713  15.630  0.0599 -0.2328 -0.3386
 7303TIP3    H143400   0.795   4.749  15.667  0.0492 -0.7192  0.1705
 7303TIP3    H243401   0.662   4.790  15.607 -0.2590  0.0931  1.3702
 7304TIP3   OH243402   0.334   1.675   1.953  0.2778 -0.0627 -0.0123
 7304TIP3    H143403   0.285   1.600   1.919 -0.3262  0.1519  0.3744
 7304TIP3    H243404   0.417   1.638   1.981  0.1974 -0.4970 -0.3278
 7305TIP3   OH243405   2.464   6.389   6.046  0.4025  0.1305  0.3478
 7305TIP3    H143406   2.392   6.451   6.057  0.8061  0.1799  4.3833
 7305TIP3    H243407   2.539   6.432   6.086  1.9944 -1.0346 -1.2424
 7306TIP3   OH243408   0.666   1.838   5.021 -0.3096  0.3604  0.5281
 7306TIP3    H143409   0.610   1.913   5.042 -0.5087  0.2396  0.4267
 7306TIP3    H243410   0.659   1.829   4.926 -3.5622 -2.3216  0.8549
 7307TIP3   OH243411   3.684   2.519  12.160  0.0831  0.2241  0.6831
 7307TIP3    H143412   3.768   2.478  12.138 -0.1914 -0.8675  1.5674
 7307TIP3    H243413   3.684   2.602  12.112  0.9883 -0.4674 -0.5778
 7308TIP3   OH243414   5.906   5.833  16.774  0.1998 -0.1651  0.1739
 7308TIP3    H143415   5.870   5.810  16.859 -0.7652  1.6672  0.3165
 7308TIP3    H243416   5.997   5.859  16.792  0.3042 -0.7372  0.4824
 7309TIP3   OH243417   3.672   6.060   4.284  0.0224  0.0300 -1.0156
 7309TIP3    H143418   3.705   6.081   4.197  3.2127  2.0598  0.4786
 7309TIP3    H243419   3.702   5.970   4.300  0.7411  0.1729 -1.4831
 7310TIP3   OH243420   4.670   0.659   5.168  0.0538  0.0075 -0.1580
 7310TIP3    H143421   4.643   0.726   5.230 -4.5981 -1.6101 -0.0500
 7310TIP3    H243422   4.676   0.579   5.220 -3.7888 -1.3448 -1.4140
 7311TIP3   OH243423   5.427   0.410  14.158 -0.2737 -0.4422  0.0752
 7311TIP3    H143424   5.500   0.457  14.197 -0.9716  0.0938  0.7495
 7311TIP3    H243425   5.380   0.373  14.232 -0.6929 -0.7782 -0.3554
 7312TIP3   OH243426   3.651   5.062  16.495 -0.5304 -0.6090  0.1181
 7312TIP3    H143427   3.596   4.990  16.463 -0.1558 -1.0379  0.4262
 7312TIP3    H243428   3.684   5.031  16.580  0.5282 -0.5398 -0.2534
 7313TIP3   OH243429   5.437   2.672  15.107 -0.3289 -0.5341  0.2879
 7313TIP3    H143430   5.504   2.736  15.132 -0.0428  0.0691 -1.8388
 7313TIP3    H243431   5.418   2.692  15.015 -1.3064 -2.5865 -0.0079
 7314TIP3   OH243432   0.589   4.542  13.639 -0.3267  0.5652 -0.0816
 7314TIP3    H143433   0.628   4.562  13.554 -2.0589  0.2558 -1.0089
 7314TIP3    H243434   0.564   4.628  13.674 -0.3987  0.6319 -0.2937
 7315TIP3   OH243435   3.901   5.903  16.498  0.7801  0.1699 -0.2988
 7315TIP3    H143436   3.938   5.980  16.542  0.4213  0.6841 -0.8924
 7315TIP3    H243437   3.928   5.830  16.554  1.0012  0.7311  0.3545
 7316TIP3   OH243438   2.942   1.944  13.471 -0.3672  0.2728  0.0340
 7316TIP3    H143439   3.012   1.961  13.535 -1.0024  1.1617  0.5215
 7316TIP3    H243440   2.986   1.899  13.399  0.7121  0.8221  0.3209
 7317TIP3   OH243441   3.202   0.180   2.723  0.1026 -0.1220  0.1625
 7317TIP3    H143442   3.231   0.237   2.651  2.3225  0.0667  1.1248
 7317TIP3    H243443   3.283   0.147   2.761 -1.0869 -1.9247  1.2573
 7318TIP3   OH243444   1.638   6.455  13.930  0.0406 -0.1873 -0.0617
 7318TIP3    H143445   1.600   6.391  13.991 -0.6253  0.9382  0.7547
 7318TIP3    H243446   1.718   6.485  13.974 -0.4405  0.6269  0.2737
 7319TIP3   OH243447   1.123   3.790   3.675 -0.3760 -0.2761 -0.1891
 7319TIP3    H143448   1.194   3.830   3.726 -0.1445 -0.7683 -0.1273
 7319TIP3    H243449   1.160   3.779   3.587 -1.0589  1.3983 -0.7332
 7320TIP3   OH243450   5.318   2.720   2.682 -0.7805 -0.0950  0.4282
 7320TIP3    H143451   5.306   2.727   2.587 -2.4294  1.4591  0.7082
 7320TIP3    H243452   5.243   2.670   2.712 -1.0679  0.6958  1.0621
 7321TIP3   OH243453   3.806   4.974  17.177  0.4276 -0.1255  0.1335
 7321TIP3    H143454   3.760   4.892  17.158  0.5521 -0.3045  0.5786
 7321TIP3    H243455   3.748   5.021  17.237  0.9301 -0.4723  0.9125
 7322TIP3   OH243456   3.521   3.620   5.063 -0.4132 -0.0718  0.1520
 7322TIP3    H143457   3.536   3.676   5.139 -1.7446  0.7163 -0.1384
 7322TIP3    H243458   3.438   3.649   5.027 -0.6213 -1.5373 -0.6512
 7323TIP3   OH243459   6.002   4.573  16.701 -0.0482 -0.3278  0.3895
 7323TIP3    H143460   6.047   4.525  16.632  0.3184 -0.9468  1.0387
 7323TIP3    H243461   5.982   4.658  16.663  0.5553 -0.4994 -0.3212
 7324TIP3   OH243462   4.948   2.753   1.735  0.0995 -0.6718  0.0524
 7324TIP3    H143463   4.970   2.708   1.653  0.3801 -0.5880  0.0797
 7324TIP3    H243464   4.876   2.702   1.772  0.4224 -1.1081  0.0902
 7325TIP3   OH243465   1.163   2.908   5.950 -0.0363  0.2425 -0.0872
 7325TIP3    H143466   1.244   2.861   5.967 -0.5525  0.2921  3.1304
 7325TIP3    H243467   1.191   2.993   5.915  1.2475 -0.0141  0.2886
 7326TIP3   OH243468   0.394   2.629  15.145 -0.4326  0.1575  0.8127
 7326TIP3    H143469   0.357   2.604  15.061  1.1073  1.0962 -0.1991
 7326TIP3    H243470   0.470   2.572  15.156 -1.1580 -0.6141  2.0552
 7327TIP3   OH243471   3.172   2.466  16.532  0.0832  0.0466  0.0338
 7327TIP3    H143472   3.110   2.431  16.468 -0.7115  2.5470 -0.6746
 7327TIP3    H243473   3.258   2.450  16.493 -0.4009  3.6240 -3.0568
 7328TIP3   OH243474   5.967   6.540  13.818 -0.0656  0.5646  0.3566
 7328TIP3    H143475   6.039   6.602  13.821 -0.4685  1.0026  2.3324
 7328TIP3    H243476   5.895   6.590  13.778  0.0471  0.9123  0.5760
 7329TIP3   OH243477   4.555   0.455  13.710 -0.7832 -0.1692 -0.2705
 7329TIP3    H143478   4.646   0.427  13.706 -0.7602 -0.0167 -1.4233
 7329TIP3    H243479   4.504   0.375  13.701 -0.7227 -0.0125 -2.5766
 7330TIP3   OH243480   2.537   1.227  13.790  0.1753  0.2980  0.6864
 7330TIP3    H143481   2.599   1.229  13.863  1.2834 -0.0720 -0.2286
 7330TIP3    H243482   2.525   1.318  13.765 -0.1561  0.4208  1.2677
 7331TIP3   OH243483   2.235   3.810   4.629  0.3470  0.3992  0.5846
 7331TIP3    H143484   2.243   3.716   4.611 -1.7736 -0.0552  1.7537
 7331TIP3    H243485   2.168   3.840   4.568  2.2413  1.6236 -1.0463
 7332TIP3   OH243486   0.372   2.679  15.756 -0.3526 -0.2782 -0.1901
 7332TIP3    H143487   0.453   2.651  15.799  0.9961 -0.2319 -2.5210
 7332TIP3    H243488   0.306   2.617  15.787  0.8299 -1.0424  0.8943
 7333TIP3   OH243489   2.027   5.381  16.563  0.4211 -0.2396  0.3423
 7333TIP3    H143490   2.072   5.345  16.486 -0.0288 -2.3695  0.9966
 7333TIP3    H243491   1.938   5.397  16.533  0.0244 -1.8388  0.5727
 7334TIP3   OH243492   3.980   2.293  15.615  0.9524  0.0672  0.2086
 7334TIP3    H143493   4.049   2.228  15.628 -0.3436 -0.9673  2.3894
 7334TIP3    H243494   3.901   2.251  15.647 -0.5181  1.6485 -1.1309
 7335TIP3   OH243495   0.638   0.637   2.826  0.1496  0.1752  0.2789
 7335TIP3    H143496   0.699   0.650   2.753 -0.2887  0.6294 -0.0146
 7335TIP3    H243497   0.658   0.710   2.886  1.1857 -0.7530  1.1025
 7336TIP3   OH243498   4.482   4.914   0.987  0.3454 -0.3014 -0.3280
 7336TIP3    H143499   4.476   4.904   0.892  0.9569  0.0360 -0.4050
 7336TIP3    H243500   4.535   4.840   1.016 -0.6135 -0.9360 -0.1290
 7337TIP3   OH243501   5.904   2.476  15.298  0.1732  0.3033 -0.2764
 7337TIP3    H143502   5.970   2.429  15.247  1.1880  0.9395  0.4223
 7337TIP3    H243503   5.899   2.563  15.256 -0.4177  0.1835 -0.4762
 7338TIP3   OH243504   4.618   5.288  15.040  0.1263 -0.2653 -0.3740
 7338TIP3    H143505   4.569   5.226  14.986 -3.3818  0.7084  1.3739
 7338TIP3    H243506   4.584   5.374  15.015 -0.4806  0.3269  2.1188
 7339TIP3   OH243507   5.127   5.262   5.462 -0.1304 -0.2384  0.2587
 7339TIP3    H143508   5.196   5.201   5.436 -0.4618 -1.0897  1.3265
 7339TIP3    H243509   5.046   5.212   5.452 -0.7384  1.0465 -1.9210
 7340TIP3   OH243510   0.216   4.118  11.644 -0.7246 -0.5032 -0.5073
 7340TIP3    H143511   0.159   4.179  11.690  0.1407 -0.3268  0.3476
 7340TIP3    H243512   0.258   4.171  11.576  0.2164 -0.0587  0.3937
 7341TIP3   OH243513   4.549   0.479   1.317  0.5310 -0.3412 -0.1741
 7341TIP3    H143514   4.485   0.423   1.272  0.6721 -1.2189  0.6789
 7341TIP3    H243515   4.505   0.506   1.397  0.9955 -0.3984  0.0991
 7342TIP3   OH243516   1.368   0.541   3.489  0.5696 -0.0184 -0.0831
 7342TIP3    H143517   1.370   0.446   3.503  0.6629  0.2660  2.0620
 7342TIP3    H243518   1.390   0.552   3.396 -1.3758 -2.1852 -0.8910
 7343TIP3   OH243519   0.611   6.229  14.012 -0.3296  0.6715  0.1659
 7343TIP3    H143520   0.579   6.144  14.042 -0.0453  0.8811  1.1056
 7343TIP3    H243521   0.635   6.215  13.921  0.0203 -0.3394  0.4042
 7344TIP3   OH243522   2.888   3.954  11.044  0.0909  0.0223 -0.1684
 7344TIP3    H143523   2.861   3.985  10.958  1.3556 -0.6938 -0.8532
 7344TIP3    H243524   2.983   3.965  11.045  0.2596 -1.2882  0.5906
 7345TIP3   OH243525   5.275   3.273  11.477  0.0992  0.5042 -0.1928
 7345TIP3    H143526   5.251   3.323  11.400  0.0744 -0.1055 -0.5839
 7345TIP3    H243527   5.204   3.210  11.488 -0.0288  0.7548  0.4812
 7346TIP3   OH243528   2.546   2.496   0.521  0.7477  0.0005 -0.6210
 7346TIP3    H143529   2.461   2.536   0.506  0.3865 -1.0445 -1.5254
 7346TIP3    H243530   2.609   2.556   0.480  0.4162  0.5577 -0.3262
 7347TIP3   OH243531   0.436   6.285  10.467 -0.0977 -0.1240  0.3651
 7347TIP3    H143532   0.351   6.330  10.460 -0.7780 -1.5604 -3.5110
 7347TIP3    H243533   0.501   6.353  10.451 -0.6116  0.6512  1.4675
 7348TIP3   OH243534   4.557   4.506  11.203 -0.3968 -0.0058  0.0131
 7348TIP3    H143535   4.576   4.426  11.155  0.7639 -0.3741  1.0177
 7348TIP3    H243536   4.634   4.561  11.190 -0.4300  0.2274  0.7288
 7349TIP3   OH243537   6.375   5.691   0.185 -0.1187 -0.5009 -0.1955
 7349TIP3    H143538   6.465   5.688   0.217  0.8535 -1.0004 -2.7071
 7349TIP3    H243539   6.364   5.610   0.136 -1.4239  0.1895 -1.1125
 7350TIP3   OH243540   3.666   1.679  12.225 -0.3964  0.2590  0.1128
 7350TIP3    H143541   3.727   1.643  12.160 -1.4130 -0.0442 -0.6858
 7350TIP3    H243542   3.722   1.701  12.300  0.9516  1.4102 -1.1574
 7351TIP3   OH243543   4.947   4.555  11.614 -0.2215  0.6664 -0.3211
 7351TIP3    H143544   5.015   4.492  11.635 -1.6246 -0.2399  1.7618
 7351TIP3    H243545   4.979   4.638  11.650  1.1078  0.9827 -2.0766
 7352TIP3   OH243546   0.138   3.235   2.912  0.8259 -0.0986 -0.1683
 7352TIP3    H143547   0.113   3.327   2.904 -1.2961 -0.7578 -1.8631
 7352TIP3    H243548   0.234   3.236   2.907  0.7689  1.7699 -3.8541
 7353TIP3   OH243549   5.061   1.732  10.520 -0.7852 -0.4279  0.1539
 7353TIP3    H143550   5.008   1.806  10.548 -1.0636 -1.1727  1.6728
 7353TIP3    H243551   5.001   1.658  10.517 -0.1744 -0.9456  0.3163
 7354TIP3   OH243552   6.275   0.752  13.419 -0.4684  0.8165  0.3265
 7354TIP3    H143553   6.213   0.746  13.346 -0.8450 -0.7207  0.7272
 7354TIP3    H243554   6.348   0.696  13.394 -0.5013  0.4473  1.0211
 7355TIP3   OH243555   0.887   1.992   4.521 -0.4057  0.0194  0.2472
 7355TIP3    H143556   0.810   2.034   4.559 -0.5170  0.2382 -0.2137
 7355TIP3    H243557   0.926   2.059   4.466  0.4613  0.0999  0.9447
 7356TIP3   OH243558   5.522   0.527  12.009  0.3226 -0.2111 -0.5527
 7356TIP3    H143559   5.467   0.575  12.071  1.0813 -2.5621  2.1410
 7356TIP3    H243560   5.521   0.437  12.040  2.8295 -1.0485 -2.5045
 7357TIP3   OH243561   4.315   0.741   0.879 -0.3683 -0.1772  0.6755
 7357TIP3    H143562   4.235   0.723   0.929 -0.3493 -3.2400 -0.1684
 7357TIP3    H243563   4.386   0.706   0.934  0.2490  1.0566  0.6990
 7358TIP3   OH243564   6.232   3.815   3.412 -0.1297 -0.4166  0.3130
 7358TIP3    H143565   6.317   3.860   3.415  0.0585 -0.7796  0.4584
 7358TIP3    H243566   6.170   3.880   3.446  0.0362 -0.0286 -0.1203
 7359TIP3   OH243567   1.088   0.977   4.244 -0.3580 -0.2505 -0.0639
 7359TIP3    H143568   1.055   1.026   4.319 -2.7661 -2.6864  0.6221
 7359TIP3    H243569   1.019   0.983   4.178  0.4029 -0.6289 -0.9230
 7360TIP3   OH243570   3.485   3.115   4.339  0.1143  0.3830  0.7632
 7360TIP3    H143571   3.496   3.041   4.399 -3.2634 -0.2857  0.7942
 7360TIP3    H243572   3.422   3.172   4.383  0.9815  2.1837 -0.2389
 7361TIP3   OH243573   4.548   4.993  13.958 -0.2631 -0.0070 -0.0250
 7361TIP3    H143574   4.518   4.976  13.868 -2.0529 -0.7726  0.6555
 7361TIP3    H243575   4.621   4.932  13.971  0.0431  0.1472 -0.9791
 7362TIP3   OH243576   1.352   3.833  10.911 -0.3967 -0.2790 -0.1231
 7362TIP3    H143577   1.433   3.883  10.920 -0.5018  0.0227 -0.8375
 7362TIP3    H243578   1.345   3.784  10.993  1.5575 -1.8772 -0.8235
 7363TIP3   OH243579   6.540   0.135   2.839  0.4069  0.6125  0.1187
 7363TIP3    H143580   6.632   0.146   2.816  0.1856  1.9539 -0.1936
 7363TIP3    H243581   6.521   0.043   2.818  1.1548  0.8246 -1.6837
 7364TIP3   OH243582   4.080   6.814  15.496  0.4520  0.2003  0.3691
 7364TIP3    H143583   4.157   6.757  15.506  1.7061  1.9776  1.3184
 7364TIP3    H243584   4.116   6.901  15.483 -1.4322  1.0150  0.2760
 7365TIP3   OH243585   2.529   6.605  13.256  0.6124  0.2085  0.1965
 7365TIP3    H143586   2.463   6.573  13.317  1.8067 -0.9380  0.9321
 7365TIP3    H243587   2.492   6.585  13.169  0.2999 -1.0956  0.6000
 7366TIP3   OH243588   6.544   3.669   2.258  0.5215  0.3160 -1.0715
 7366TIP3    H143589   6.539   3.724   2.179  0.4492  0.0861 -1.2286
 7366TIP3    H243590   6.453   3.647   2.277  0.4209  1.3891 -0.1932
 7367TIP3   OH243591   4.634   4.421   0.470 -0.3839 -0.4766 -0.4173
 7367TIP3    H143592   4.576   4.452   0.400  1.2694 -0.4778 -1.8405
 7367TIP3    H243593   4.681   4.348   0.430  0.4171 -0.6335  0.7916
 7368TIP3   OH243594   1.416   0.690   0.356 -0.0732 -0.4001  0.0609
 7368TIP3    H143595   1.339   0.736   0.323  0.0506 -0.9510 -1.0601
 7368TIP3    H243596   1.399   0.679   0.450 -0.7470  0.6343  0.0791
 7369TIP3   OH243597   0.110   0.389   5.036  0.0367 -0.1224  0.0393
 7369TIP3    H143598   0.093   0.303   5.073  0.0661 -0.0153  0.3068
 7369TIP3    H243599   0.129   0.373   4.944  0.7539 -0.4803  0.2433
 7370TIP3   OH243600   6.451   3.024  16.242 -0.8004  0.1189 -0.2181
 7370TIP3    H143601   6.517   3.011  16.310 -0.5457 -0.8156 -0.6264
 7370TIP3    H243602   6.408   2.939  16.234 -0.0452 -0.1509 -2.0214
 7371TIP3   OH243603   1.533   4.787  12.412  0.0291  0.2690  0.2773
 7371TIP3    H143604   1.556   4.733  12.487 -0.5096 -1.1763 -0.5541
 7371TIP3    H243605   1.539   4.727  12.337 -1.0785  1.2309 -0.6164
 7372TIP3   OH243606   1.214   4.835  15.611  0.1000 -0.7090 -0.2481
 7372TIP3    H143607   1.269   4.903  15.652 -2.0402 -0.4392  2.4136
 7372TIP3    H243608   1.257   4.753  15.634 -0.4505 -0.4972  1.7271
 7373TIP3   OH243609   1.804   5.738   0.428 -0.6175  0.0054  0.3959
 7373TIP3    H143610   1.725   5.780   0.461 -0.1787 -0.4770  2.2164
 7373TIP3    H243611   1.860   5.810   0.399 -1.3581  0.4029 -0.0788
 7374TIP3   OH243612   2.364   4.936  14.676 -0.1043  0.0339 -0.1795
 7374TIP3    H143613   2.314   5.002  14.628 -0.3351  0.3966  0.5523
 7374TIP3    H243614   2.347   4.955  14.768 -0.7473 -1.4587  0.0495
 7375TIP3   OH243615   1.702   5.285   3.594  0.2495 -0.1959  0.0267
 7375TIP3    H143616   1.779   5.281   3.651  0.5619  0.3048 -0.3527
 7375TIP3    H243617   1.737   5.300   3.507 -0.2738 -0.1477 -0.1803
 7376TIP3   OH243618   4.702   6.431  13.106 -0.2667 -0.1328 -0.0029
 7376TIP3    H143619   4.724   6.513  13.062  1.8615 -1.8032 -2.3212
 7376TIP3    H243620   4.614   6.446  13.141  0.3599  3.3996  0.5236
 7377TIP3   OH243621   5.406   0.979  16.173  0.2425 -0.0530  0.1055
 7377TIP3    H143622   5.417   0.931  16.091  1.8457 -0.6413  0.6141
 7377TIP3    H243623   5.466   1.054  16.164 -1.1145  1.0411 -0.0710
 7378TIP3   OH243624   1.427   1.057  14.612 -0.1873  0.7227  0.0629
 7378TIP3    H143625   1.480   0.982  14.638 -0.1697  1.2113  1.5034
 7378TIP3    H243626   1.485   1.132  14.624  0.1612  0.9272 -2.4049
 7379TIP3   OH243627   6.249   4.260  11.159  0.1671  0.1015 -0.0658
 7379TIP3    H143628   6.208   4.224  11.080  0.3022  1.6182 -0.8534
 7379TIP3    H243629   6.334   4.291  11.129  0.7626 -0.4791  0.9755
 7380TIP3   OH243630   0.952   1.878   4.217 -0.1133  0.2002 -0.2060
 7380TIP3    H143631   0.917   1.806   4.269 -1.9486 -0.1532 -1.8103
 7380TIP3    H243632   0.995   1.935   4.281  0.1752 -1.5734  1.2849
 7381TIP3   OH243633   2.911   1.183  14.839  0.0720 -0.3623 -0.2492
 7381TIP3    H143634   2.977   1.115  14.855  1.6697  0.9923 -0.7631
 7381TIP3    H243635   2.942   1.228  14.760 -1.8021 -0.0235 -0.8430
 7382TIP3   OH243636   1.838   4.914   2.844  0.5794  0.3720  0.2170
 7382TIP3    H143637   1.761   4.860   2.863  0.3350  0.6909  0.1504
 7382TIP3    H243638   1.908   4.875   2.896  0.8886 -1.1596 -1.2650
 7383TIP3   OH243639   2.064   4.402  15.234  0.1693  0.3742 -0.6136
 7383TIP3    H143640   2.063   4.379  15.141 -0.3963  0.4172 -0.6176
 7383TIP3    H243641   2.157   4.403  15.257  0.2459 -1.7283 -0.6502
 7384TIP3   OH243642   5.709   0.871   1.563 -0.2960  0.2112 -0.2455
 7384TIP3    H143643   5.663   0.905   1.487 -1.9589 -1.2168  0.0785
 7384TIP3    H243644   5.640   0.839   1.621  0.9418  0.8925  1.7020
 7385TIP3   OH243645   4.562   4.511   3.228 -0.2454 -0.2158  0.3109
 7385TIP3    H143646   4.631   4.529   3.164 -1.1131 -3.2059 -1.6807
 7385TIP3    H243647   4.481   4.525   3.179 -0.9653 -1.0112  1.2633
 7386TIP3   OH243648   0.810   5.968   0.003  0.0544  0.1470  0.2144
 7386TIP3    H143649   0.799   6.040   0.066  0.0334 -0.7316  1.2448
 7386TIP3    H243650   0.898   5.981  -0.032  0.8207 -0.4182  1.8472
 7387TIP3   OH243651   3.043   5.525  11.393 -0.1807  0.2435  0.2830
 7387TIP3    H143652   3.051   5.588  11.466  0.0392  1.5222 -0.7987
 7387TIP3    H243653   3.128   5.482  11.390 -0.1292  0.3132  0.6703
 7388TIP3   OH243654   1.293   4.733  13.724  0.4698 -0.1722  0.1480
 7388TIP3    H143655   1.312   4.642  13.747  0.5981 -0.0688  0.4538
 7388TIP3    H243656   1.271   4.775  13.807  0.7383  0.1540  0.0563
 7389TIP3   OH243657   5.457   4.331  14.797  0.3737  1.0394 -0.3874
 7389TIP3    H143658   5.489   4.273  14.728 -0.0938  0.5766 -0.2174
 7389TIP3    H243659   5.518   4.318  14.870  0.3480  0.8628 -0.3983
 7390TIP3   OH243660   1.568   0.450  10.763  0.4421  0.1201  0.4787
 7390TIP3    H143661   1.626   0.495  10.702  0.3337 -0.1638  0.1661
 7390TIP3    H243662   1.483   0.492  10.751 -0.5596 -2.3433 -2.3026
 7391TIP3   OH243663   1.632   5.031   5.672 -0.0815  0.3758 -0.7054
 7391TIP3    H143664   1.541   5.040   5.645  0.0830 -0.5852 -1.6671
 7391TIP3    H243665   1.641   4.938   5.693  0.6064  0.5235 -0.3256
 7392TIP3   OH243666   0.521   2.709  11.103  0.1086 -0.5936  0.6667
 7392TIP3    H143667   0.474   2.744  11.179 -0.0114  1.2153 -0.1886
 7392TIP3    H243668   0.504   2.772  11.033  1.4256 -1.4393 -0.4692
 7393TIP3   OH243669   1.117   1.354  15.924  0.1371  0.6333 -0.0867
 7393TIP3    H143670   1.137   1.420  15.857 -1.4682  0.1827 -1.0466
 7393TIP3    H243671   1.036   1.313  15.895  0.3863 -0.8722  1.1900
 7394TIP3   OH243672   4.461   3.542   2.070 -0.4332 -0.5250 -0.4579
 7394TIP3    H143673   4.509   3.615   2.108  0.1154 -1.6983  1.2677
 7394TIP3    H243674   4.418   3.578   1.993  3.6143  0.5038 -2.4978
 7395TIP3   OH243675   2.168   2.783   4.868  0.8995 -0.2431  0.7034
 7395TIP3    H143676   2.089   2.743   4.906 -0.8893  2.3100 -0.0391
 7395TIP3    H243677   2.190   2.853   4.928  1.4436  0.2756 -0.0876
 7396TIP3   OH243678   2.951   1.303  11.854 -0.2374  0.3081 -0.6646
 7396TIP3    H143679   2.974   1.225  11.804  1.2507 -0.5440  1.2346
 7396TIP3    H243680   3.030   1.357  11.853 -0.4845  0.7015  0.0194
 7397TIP3   OH243681   6.499   5.774  11.534 -0.1122 -0.1071 -0.4168
 7397TIP3    H143682   6.465   5.711  11.471  1.1012 -0.3469 -0.8561
 7397TIP3    H243683   6.507   5.725  11.616  1.9972 -0.9153 -1.0530
 7398TIP3   OH243684   6.441   0.166   2.447  0.0084 -0.1551 -0.3006
 7398TIP3    H143685   6.461   0.115   2.368  1.6808 -0.4355  0.2759
 7398TIP3    H243686   6.377   0.112   2.494  2.4719 -2.3683  0.8056
 7399TIP3   OH243687   2.074   3.863  15.252 -0.6471  0.3335 -0.1247
 7399TIP3    H143688   1.980   3.851  15.258 -0.4598 -0.8251  0.7662
 7399TIP3    H243689   2.111   3.779  15.278  0.6331  0.6483 -0.8334
 7400TIP3   OH243690   5.854   5.448  12.264  0.0934  0.2269  0.0863
 7400TIP3    H143691   5.802   5.396  12.203  0.7101  1.0944 -1.2179
 7400TIP3    H243692   5.921   5.388  12.296  0.6862  0.1295 -1.2642
 7401TIP3   OH243693   0.360   4.033  14.539  0.3787  0.4876  0.3164
 7401TIP3    H143694   0.433   4.072  14.586  0.4659  1.9949 -0.9760
 7401TIP3    H243695   0.395   4.014  14.452 -0.3818 -0.1280  0.1314
 7402TIP3   OH243696   2.537   5.972   4.770  0.2224 -0.6029 -0.3064
 7402TIP3    H143697   2.558   6.027   4.846  0.0110  0.3909 -0.9503
 7402TIP3    H243698   2.484   5.901   4.806 -1.4118  0.8166  0.2350
 7403TIP3   OH243699   4.452   2.253   0.022 -0.1483  0.1909  1.0268
 7403TIP3    H143700   4.372   2.224   0.067 -1.6327  0.0124 -1.5376
 7403TIP3    H243701   4.437   2.345   0.003  0.0479  0.0632  0.1956
 7404TIP3   OH243702   5.514   0.557   5.883  0.3493  0.3752 -0.2097
 7404TIP3    H143703   5.429   0.530   5.917  0.1237  1.9282  0.5351
 7404TIP3    H243704   5.560   0.593   5.959  1.3787  0.2792 -0.7596
 7405TIP3   OH243705   5.667   1.122  12.788  0.3276  0.0341  0.0018
 7405TIP3    H143706   5.622   1.183  12.730 -0.4439 -0.7431 -0.2329
 7405TIP3    H243707   5.641   1.149  12.876  0.4755  0.4122 -0.0654
 7406TIP3   OH243708   2.522   2.533   4.840  0.1936  0.2029  0.7038
 7406TIP3    H143709   2.487   2.447   4.817  1.2369  0.2230 -1.1154
 7406TIP3    H243710   2.546   2.525   4.933  1.8322 -2.0397  0.1587
 7407TIP3   OH243711   2.885   1.533  11.531  0.1170 -0.6407 -0.0065
 7407TIP3    H143712   2.923   1.564  11.613 -1.5903  0.8058  0.3053
 7407TIP3    H243713   2.953   1.478  11.493  2.3345  1.4343  0.6719
 7408TIP3   OH243714   2.839   0.514  14.869 -0.3854  0.0854 -0.2975
 7408TIP3    H143715   2.747   0.510  14.843  0.3915 -0.4844 -3.3639
 7408TIP3    H243716   2.874   0.428  14.847  0.5520 -0.3410  2.5287
 7409TIP3   OH243717   3.030   4.737   2.367  0.7340 -0.4516  0.0215
 7409TIP3    H143718   3.071   4.679   2.431  0.8089  2.0954  2.5047
 7409TIP3    H243719   3.095   4.807   2.354 -0.0180 -0.0085 -1.5274
 7410TIP3   OH243720   1.772   0.819  14.489 -0.1606  0.1472  0.2927
 7410TIP3    H143721   1.743   0.885  14.552 -0.1210  1.9024 -1.4404
 7410TIP3    H243722   1.693   0.793  14.443 -0.0788 -0.6364  0.5612
 7411TIP3   OH243723   6.075   4.347  12.760  0.1544 -0.1928  0.5999
 7411TIP3    H143724   6.029   4.368  12.841 -1.0974 -1.6474  0.3050
 7411TIP3    H243725   6.037   4.264  12.731 -0.0196  0.6852 -1.9191
 7412TIP3   OH243726   5.150   2.496  16.268  0.4125 -0.1953 -0.1409
 7412TIP3    H143727   5.163   2.489  16.362  0.3892 -1.4191 -0.2146
 7412TIP3    H243728   5.226   2.545  16.237  0.2282  0.5507  0.5475
 7413TIP3   OH243729   4.886   1.355   4.093  0.1971  0.0638  1.1608
 7413TIP3    H143730   4.918   1.266   4.079  1.4237  0.5747  0.5228
 7413TIP3    H243731   4.867   1.387   4.004  0.5293  0.6960  1.3120
 7414TIP3   OH243732   2.458   0.762   2.383 -0.0099  0.5457  0.4266
 7414TIP3    H143733   2.370   0.728   2.369  0.2392 -0.2297  0.7064
 7414TIP3    H243734   2.476   0.748   2.476  0.9647 -0.7018  0.0858
 7415TIP3   OH243735   6.614   3.241   4.956 -0.6462  0.2554  0.1837
 7415TIP3    H143736   6.622   3.302   4.883  0.1276  0.4315  0.4123
 7415TIP3    H243737   6.694   3.253   5.007  0.1074 -1.8199 -0.4249
 7416TIP3   OH243738   4.239   6.122   2.970 -0.0654 -0.0282  0.0812
 7416TIP3    H143739   4.328   6.153   2.949  0.9307 -1.0604  2.4018
 7416TIP3    H243740   4.192   6.201   2.995 -0.1149  0.6581 -2.0075
 7417TIP3   OH243741   5.813   1.594  14.611  0.2313 -0.6659 -0.4131
 7417TIP3    H143742   5.719   1.587  14.628 -0.0348  0.6902 -1.1365
 7417TIP3    H243743   5.854   1.538  14.676 -1.0673 -0.9131  0.2123
 7418TIP3   OH243744   1.197   6.190   2.684  0.1276 -0.0867 -0.3098
 7418TIP3    H143745   1.268   6.139   2.723  2.0700  0.9053 -2.3005
 7418TIP3    H243746   1.164   6.134   2.613 -1.1709 -0.5429  0.6033
 7419TIP3   OH243747   3.806   3.633   2.839  0.5075 -0.0936 -0.2302
 7419TIP3    H143748   3.789   3.563   2.775 -1.7869  0.1774 -0.0102
 7419TIP3    H243749   3.876   3.598   2.894  1.0757 -1.2091 -1.5814
 7420TIP3   OH243750   5.723   2.799  12.656  0.2796  0.2465 -0.3603
 7420TIP3    H143751   5.773   2.872  12.621  2.3361 -1.9243 -2.3582
 7420TIP3    H243752   5.726   2.811  12.751  1.6638  2.0233 -0.5751
 7421TIP3   OH243753   3.280   3.473  13.191  0.0351  0.4227 -0.6596
 7421TIP3    H143754   3.283   3.567  13.209  0.7762  0.1424  0.7633
 7421TIP3    H243755   3.214   3.439  13.251 -0.1086 -0.0060 -1.0518
 7422TIP3   OH243756   0.635   2.186  10.418  0.2157 -0.3481  0.5638
 7422TIP3    H143757   0.637   2.164  10.325  0.0940 -0.1973  0.5245
 7422TIP3    H243758   0.668   2.276  10.421  1.4126 -0.7785  0.8001
 7423TIP3   OH243759   0.777   3.185  16.645 -0.4169 -0.0100 -0.5281
 7423TIP3    H143760   0.697   3.142  16.613  0.4262 -1.6546 -0.5763
 7423TIP3    H243761   0.784   3.158  16.736  0.3401 -0.2957 -0.6670
 7424TIP3   OH243762   3.351   2.734  16.281  0.4877  0.6609  0.6603
 7424TIP3    H143763   3.416   2.663  16.276  0.1605  0.3121  1.2372
 7424TIP3    H243764   3.275   2.699  16.235 -1.0362 -0.9095  4.0162
 7425TIP3   OH243765   4.887   5.155  14.870 -0.0883 -0.3407 -0.2267
 7425TIP3    H143766   4.888   5.123  14.780 -0.3366 -0.6677 -0.1128
 7425TIP3    H243767   4.867   5.078  14.923  2.4599 -0.7186  0.3448
 7426TIP3   OH243768   4.929   0.170  14.491 -0.1951 -0.5051 -0.1974
 7426TIP3    H143769   5.019   0.158  14.462 -0.0992  0.0283 -0.1282
 7426TIP3    H243770   4.917   0.104  14.560  0.0265 -0.8125 -0.4518
 7427TIP3   OH243771   6.415   6.369  11.556  0.1347  0.8533 -0.1875
 7427TIP3    H143772   6.474   6.412  11.619 -1.9413  2.4052  0.8251
 7427TIP3    H243773   6.474   6.320  11.498  2.2438  0.3722  2.1584
 7428TIP3   OH243774   1.422   4.880   6.680  0.0429 -0.3279 -0.1523
 7428TIP3    H143775   1.454   4.909   6.594 -0.6858  0.8580 -0.0501
 7428TIP3    H243776   1.327   4.886   6.673 -0.0600 -1.0839  0.4591
 7429TIP3   OH243777   1.797   4.022  13.322 -0.0573  0.0905  0.6536
 7429TIP3    H143778   1.889   4.001  13.337 -0.1241 -1.7946 -1.0418
 7429TIP3    H243779   1.786   4.012  13.227 -1.8112  1.1774  0.7007
 7430TIP3   OH243780   4.803   1.964   5.514 -0.6809 -0.1448  0.2636
 7430TIP3    H143781   4.720   2.012   5.512 -0.7446 -0.1849  1.2005
 7430TIP3    H243782   4.823   1.946   5.423 -0.1714  2.4898 -0.2354
 7431TIP3   OH243783   6.112   5.316   5.548  0.4597 -0.0215 -0.1465
 7431TIP3    H143784   6.073   5.235   5.514 -0.7850 -0.0087  1.1602
 7431TIP3    H243785   6.062   5.334   5.628  0.3047  2.3627 -0.7297
 7432TIP3   OH243786   1.946   3.433   3.629  0.0348 -0.0491  0.2650
 7432TIP3    H143787   1.866   3.398   3.588 -0.1644  2.6041 -1.8861
 7432TIP3    H243788   1.949   3.525   3.601  3.5840  0.0996  0.7023
 7433TIP3   OH243789   2.842   0.938   0.984 -0.0281  0.0038  0.0440
 7433TIP3    H143790   2.869   0.952   0.894  0.3588 -0.6436  0.0575
 7433TIP3    H243791   2.892   1.003   1.034  2.0772 -1.5997  0.1548
 7434TIP3   OH243792   0.296   6.035   5.907 -0.3755 -0.6172  0.0157
 7434TIP3    H143793   0.249   6.041   5.990 -0.3381  3.0272 -0.0287
 7434TIP3    H243794   0.387   6.023   5.932 -0.4546 -0.2730  0.4874
 7435TIP3   OH243795   2.263   1.193  17.140 -0.6545 -0.0657 -0.2303
 7435TIP3    H143796   2.238   1.280  17.172  1.8390  0.5234  0.3475
 7435TIP3    H243797   2.262   1.138  17.218  1.1360  0.3289  0.1238
 7436TIP3   OH243798   5.721   1.270   1.237 -0.1573  0.0405 -0.2284
 7436TIP3    H143799   5.711   1.318   1.155  1.4477 -0.5663 -0.8238
 7436TIP3    H243800   5.812   1.286   1.263 -0.1950 -1.0142  0.6362
 7437TIP3   OH243801   6.724   1.488  13.542 -0.2375 -0.1698  0.2709
 7437TIP3    H143802   6.722   1.550  13.469  1.0961 -2.3224 -1.7305
 7437TIP3    H243803   6.647   1.433  13.530  0.9979 -1.7855 -0.8059
 7438TIP3   OH243804   2.199   0.368  12.837 -0.2553  0.2614 -0.0620
 7438TIP3    H143805   2.171   0.448  12.881  0.7128  0.3265  0.4699
 7438TIP3    H243806   2.157   0.297  12.885 -1.1931  0.4426 -0.5948
 7439TIP3   OH243807   1.575   3.377  15.470 -0.0300  0.1294  0.1787
 7439TIP3    H143808   1.572   3.399  15.563 -0.0726 -0.4581  0.3254
 7439TIP3    H243809   1.663   3.341  15.457 -0.5351 -1.2453  0.3532
 7440TIP3   OH243810   0.076   5.603   5.467 -0.4106  0.1217 -0.0400
 7440TIP3    H143811   0.015   5.675   5.449 -1.8193 -1.0683 -0.1412
 7440TIP3    H243812   0.087   5.604   5.562  0.1692  0.9190 -0.1014
 7441TIP3   OH243813   3.038   0.415  12.139  0.9306 -0.0976 -0.3937
 7441TIP3    H143814   3.105   0.406  12.207  0.3216 -1.4986  0.0590
 7441TIP3    H243815   2.990   0.494  12.163 -0.4279 -1.5074  1.9081
 7442TIP3   OH243816   5.073   3.828  13.524 -0.3930 -0.1264  0.8739
 7442TIP3    H143817   5.166   3.834  13.504 -0.0936  0.4267  2.2957
 7442TIP3    H243818   5.047   3.741  13.493  0.0112  0.5768 -1.6601
 7443TIP3   OH243819   5.962   1.261  11.107 -0.2554  0.2032 -0.4833
 7443TIP3    H143820   5.920   1.347  11.113 -0.9604 -0.2267  1.0640
 7443TIP3    H243821   5.892   1.202  11.082  0.1647  0.0099 -1.2305
 7444TIP3   OH243822   3.097   4.953   4.458 -0.1712  0.1699  0.2616
 7444TIP3    H143823   3.034   5.020   4.429 -1.1277 -0.4941  0.7608
 7444TIP3    H243824   3.176   5.003   4.479 -0.2023  0.9184 -1.2594
 7445TIP3   OH243825   2.418   2.019   5.654 -0.1941 -0.6007 -0.0335
 7445TIP3    H143826   2.364   1.948   5.688  0.6045 -1.1144  0.1912
 7445TIP3    H243827   2.498   2.015   5.706 -0.3876  0.8713  0.4136
 7446TIP3   OH243828   1.168   4.542  14.689  0.2007 -0.0146 -0.0287
 7446TIP3    H143829   1.194   4.633  14.680  1.4111 -0.3383  0.0358
 7446TIP3    H243830   1.194   4.518  14.778  0.0853 -0.4806 -0.1172
 7447TIP3   OH243831   3.220   1.435   0.447  0.1115  0.0670 -0.0372
 7447TIP3    H143832   3.128   1.445   0.474  0.0335  0.5983 -0.4860
 7447TIP3    H243833   3.225   1.345   0.414  0.1865 -0.5694  1.6271
 7448TIP3   OH243834   2.669   3.235   1.486  0.1812  0.5515  0.2831
 7448TIP3    H143835   2.689   3.213   1.395 -1.7709  1.3518 -0.3943
 7448TIP3    H243836   2.729   3.182   1.538 -0.3439 -1.8066 -1.3893
 7449TIP3   OH243837   4.160   5.425  13.878 -0.2296 -0.2398  0.4644
 7449TIP3    H143838   4.225   5.406  13.810 -0.1769 -1.3719  0.7995
 7449TIP3    H243839   4.206   5.480  13.941 -0.6338  1.8797 -0.9773
 7450TIP3   OH243840   2.851   1.114  15.377 -0.1849 -0.0878  0.3789
 7450TIP3    H143841   2.852   1.190  15.319 -0.2210 -0.5936 -0.3036
 7450TIP3    H243842   2.901   1.141  15.454  1.0251  0.1666 -0.4682
 7451TIP3   OH243843   0.642   5.022  10.264 -0.2430  0.2475 -0.4001
 7451TIP3    H143844   0.717   4.996  10.210 -0.6227  1.0101 -1.3167
 7451TIP3    H243845   0.649   5.117  10.271 -0.7639  0.2572  0.0734
 7452TIP3   OH243846   1.430   6.365   4.960 -0.4721  0.0655  0.2305
 7452TIP3    H143847   1.499   6.413   4.915  0.8204 -0.6818  1.3475
 7452TIP3    H243848   1.372   6.335   4.891  1.2423 -0.7413 -0.9123
 7453TIP3   OH243849   3.530   0.486   5.867 -0.0201 -0.5313  0.4391
 7453TIP3    H143850   3.445   0.468   5.907 -0.1412 -0.5439  0.1796
 7453TIP3    H243851   3.515   0.477   5.773  0.6438 -2.1662  0.4440
 7454TIP3   OH243852   3.298   6.740   5.151  0.0688 -0.2983 -0.1743
 7454TIP3    H143853   3.329   6.749   5.061  1.1745  0.1054  0.2395
 7454TIP3    H243854   3.290   6.830   5.183  0.9988 -0.4670  0.5693
 7455TIP3   OH243855   5.859   2.015  13.481  0.4744  0.0061 -0.1399
 7455TIP3    H143856   5.940   2.004  13.431  1.2596  0.1302  1.0790
 7455TIP3    H243857   5.888   2.043  13.568 -0.8506 -0.5702  0.5061
 7456TIP3   OH243858   2.286   5.621  15.117 -0.1759  0.0717 -0.3451
 7456TIP3    H143859   2.280   5.604  15.211  0.3072 -2.4395 -0.6863
 7456TIP3    H243860   2.304   5.715  15.110 -2.4625  0.7737  1.9349
 7457TIP3   OH243861   3.216   4.691   1.769  0.7708  0.0703  0.4042
 7457TIP3    H143862   3.305   4.720   1.749 -0.3849  1.6562 -3.2954
 7457TIP3    H243863   3.187   4.751   1.838  1.8582  0.9492  0.1273
 7458TIP3   OH243864   3.702   5.526  14.228  0.1475  0.0967 -0.1522
 7458TIP3    H143865   3.751   5.550  14.307  1.2556 -1.6251 -0.2542
 7458TIP3    H243866   3.678   5.610  14.188  1.5465  1.0044  0.8147
 7459TIP3   OH243867   6.187   5.521   1.897  0.0250  0.1393 -0.0478
 7459TIP3    H143868   6.105   5.497   1.853 -1.0527  0.6163  1.6340
 7459TIP3    H243869   6.234   5.573   1.831 -1.1121  0.0448 -0.9788
 7460TIP3   OH243870   0.135   0.467   0.248 -0.3422 -0.2643 -0.6343
 7460TIP3    H143871   0.072   0.443   0.315 -0.5948  1.4568 -0.2083
 7460TIP3    H243872   0.082   0.507   0.179  0.2323  0.8743 -0.4267
 7461TIP3   OH243873   5.165   3.749   3.769  0.4954  0.3074 -0.1788
 7461TIP3    H143874   5.110   3.670   3.768  1.0715 -0.2328  2.6940
 7461TIP3    H243875   5.242   3.725   3.718 -1.0283  0.4667 -2.7391
 7462TIP3   OH243876   4.116   2.177   4.575 -0.2023 -0.3786  0.2454
 7462TIP3    H143877   4.105   2.252   4.516  1.2692 -0.7315 -0.5462
 7462TIP3    H243878   4.035   2.174   4.626 -0.3507  1.6698  0.2188
 7463TIP3   OH243879   1.694   0.352   3.746 -0.3561  0.2118  0.1517
 7463TIP3    H143880   1.720   0.260   3.736  0.5825  0.4912 -0.1149
 7463TIP3    H243881   1.695   0.387   3.657 -0.6863  0.4845  0.2546
 7464TIP3   OH243882   6.673   4.035  16.816 -0.3888  0.2389  0.5153
 7464TIP3    H143883   6.680   3.980  16.738  1.0138 -0.7622  1.3170
 7464TIP3    H243884   6.763   4.053  16.842 -0.8119  2.4190  0.6612
 7465TIP3   OH243885   0.072   3.508   2.885 -0.0965  0.5858  0.3530
 7465TIP3    H143886  -0.011   3.532   2.846 -0.5749 -1.4319  0.0159
 7465TIP3    H243887   0.070   3.547   2.973 -1.0045  1.2723  0.0382
 7466TIP3   OH243888   2.621   6.761   1.372 -0.0650  0.0769  0.0107
 7466TIP3    H143889   2.660   6.676   1.350 -0.0348 -0.0713  0.6154
 7466TIP3    H243890   2.541   6.738   1.420 -0.9849  0.3722 -1.3301
 7467TIP3   OH243891   4.713   5.777   3.897 -0.0110 -0.0963 -0.6503
 7467TIP3    H143892   4.708   5.836   3.973  1.5588 -1.1831  0.3663
 7467TIP3    H243893   4.792   5.806   3.851  0.8765 -1.4518 -0.0449
 7468TIP3   OH243894   0.485   3.343   4.840  0.2552 -0.3078 -0.2839
 7468TIP3    H143895   0.452   3.350   4.930 -0.2376  0.1622 -0.5016
 7468TIP3    H243896   0.580   3.331   4.851  0.1570 -0.5777  0.3061
 7469TIP3   OH243897   2.978   4.132   2.275  0.9687  0.4687 -0.7823
 7469TIP3    H143898   3.036   4.131   2.350  1.0093 -0.0649 -0.8132
 7469TIP3    H243899   2.906   4.073   2.300  1.8619 -1.1429 -1.8283
 7470TIP3   OH243900   3.311   6.685   1.740 -0.9774  0.1779 -0.0521
 7470TIP3    H143901   3.381   6.677   1.805 -1.7590 -0.8754  0.7008
 7470TIP3    H243902   3.234   6.709   1.791 -0.6831  4.3732 -1.1814
 7471TIP3   OH243903   2.597   0.731   1.857 -0.1825  0.0080  0.4320
 7471TIP3    H143904   2.641   0.657   1.815 -1.8126 -0.2346 -0.9784
 7471TIP3    H243905   2.652   0.807   1.836  0.6219 -0.5580  0.4559
 7472TIP3   OH243906   1.419   5.063   2.147 -0.1259 -0.5432 -0.0242
 7472TIP3    H143907   1.493   5.100   2.099 -0.1770  0.8609  0.9041
 7472TIP3    H243908   1.447   4.975   2.170  0.2583 -0.9272 -1.7975
 7473TIP3   OH243909   2.329   0.520  14.907 -0.5453  0.6504 -0.3635
 7473TIP3    H143910   2.343   0.425  14.919 -0.5397  0.2761 -2.7729
 7473TIP3    H243911   2.283   0.548  14.986 -2.4851 -1.7977 -0.5224
 7474TIP3   OH243912   6.388   4.710   0.546  0.0775  0.1073  0.6263
 7474TIP3    H143913   6.440   4.742   0.619  1.1698  0.0018 -0.0826
 7474TIP3    H243914   6.300   4.696   0.583  0.6918 -0.2861  1.9903
 7475TIP3   OH243915   0.378   3.659  11.604 -0.4319 -0.0209 -0.0418
 7475TIP3    H143916   0.470   3.680  11.622 -0.6719  0.8961  0.1629
 7475TIP3    H243917   0.334   3.744  11.603 -1.4185 -0.5074  0.6761
 7476TIP3   OH243918   6.533   1.534  15.153  0.3203 -0.7324 -0.1105
 7476TIP3    H143919   6.455   1.568  15.109 -1.0782 -0.1571  2.5632
 7476TIP3    H243920   6.597   1.520  15.083 -1.6067  0.3621 -2.2052
 7477TIP3   OH243921   1.288   3.012   0.646  0.5274 -0.1578 -0.0500
 7477TIP3    H143922   1.292   2.999   0.552 -0.9531  0.4153 -0.2193
 7477TIP3    H243923   1.288   2.923   0.682 -2.1497 -0.5594 -0.8016
 7478TIP3   OH243924   1.723   1.948   6.413 -0.0844  0.3517  0.0849
 7478TIP3    H143925   1.676   1.916   6.337  1.0938  0.2418 -0.6153
 7478TIP3    H243926   1.792   1.883   6.428  1.7180  1.9849 -0.7456
 7479TIP3   OH243927   1.000   5.783  15.209  0.2982 -0.2888  0.0838
 7479TIP3    H143928   1.050   5.719  15.159  0.5100 -0.1565  0.1218
 7479TIP3    H243929   0.926   5.806  15.153  1.3856  1.0693 -0.8812
 7480TIP3   OH243930   4.420   5.210   1.485 -0.4877 -0.3710 -0.2321
 7480TIP3    H143931   4.334   5.252   1.494 -0.1185  0.3817 -0.0911
 7480TIP3    H243932   4.437   5.172   1.571 -0.1576  0.5176  0.1023
 7481TIP3   OH243933   0.235   1.068   2.971 -0.0343  0.2525 -0.4151
 7481TIP3    H143934   0.317   1.077   2.922  0.7470  0.3726  0.8672
 7481TIP3    H243935   0.196   1.155   2.969  1.1378  0.8477  1.0901
 7482TIP3   OH243936   6.361   3.216   4.232  0.3822 -0.3543 -0.3514
 7482TIP3    H143937   6.391   3.149   4.293  0.0336 -1.4532 -1.3700
 7482TIP3    H243938   6.297   3.267   4.282 -1.7467 -2.7424 -0.4757
 7483TIP3   OH243939   4.162   0.744  14.469 -0.2206  0.1673  0.1861
 7483TIP3    H143940   4.177   0.714  14.380  0.9502  1.1467  0.0184
 7483TIP3    H243941   4.214   0.824  14.476 -0.0816 -0.0264  1.8262
 7484TIP3   OH243942   5.431   6.540  10.641  0.3463 -0.8031 -0.1536
 7484TIP3    H143943   5.498   6.503  10.583  0.4303 -0.1763 -0.4775
 7484TIP3    H243944   5.354   6.550  10.584  0.2839 -0.6201 -0.0374
 7485TIP3   OH243945   5.111   1.215  16.038  0.0463  0.3747  0.2808
 7485TIP3    H143946   5.044   1.194  16.104 -0.8199  3.0842  0.3917
 7485TIP3    H243947   5.076   1.291  15.993  2.2006  0.6477 -1.0377
 7486TIP3   OH243948   6.071   6.328   3.266  0.3965  0.7611 -0.1990
 7486TIP3    H143949   6.105   6.310   3.353 -0.4969 -1.6481 -0.2692
 7486TIP3    H243950   6.149   6.343   3.212  0.9546  2.2357  0.9667
 7487TIP3   OH243951   4.203   2.615   2.561  0.4488  0.4015 -0.1387
 7487TIP3    H143952   4.142   2.564   2.507  0.8302  0.0589 -0.2518
 7487TIP3    H243953   4.232   2.553   2.628 -0.4149  0.9642  0.7776
 7488TIP3   OH243954   0.317   3.264  15.723 -0.5831  0.3598 -0.0086
 7488TIP3    H143955   0.381   3.206  15.766  0.2470 -0.1368 -1.8223
 7488TIP3    H243956   0.249   3.206  15.690  0.7156  0.1987 -2.6526
 7489TIP3   OH243957   1.557   4.607   6.615 -0.2980  0.6680  0.1541
 7489TIP3    H143958   1.649   4.582   6.604 -0.3460  0.9288 -1.0061
 7489TIP3    H243959   1.556   4.662   6.693  0.1862 -0.9714  1.3585
 7490TIP3   OH243960   3.660   6.581  13.504 -0.3230 -0.3204  0.1118
 7490TIP3    H143961   3.683   6.522  13.576 -1.7766  0.7489  1.5409
 7490TIP3    H243962   3.727   6.650  13.508 -0.1321 -0.5051  0.1343
 7491TIP3   OH243963   4.672   6.659  11.337  0.3976  0.0835  0.4650
 7491TIP3    H143964   4.747   6.685  11.283 -0.0803  0.7079  0.0842
 7491TIP3    H243965   4.602   6.644  11.274  0.0521  0.0322  0.8578
 7492TIP3   OH243966   2.889   2.252  11.750 -0.6861  0.2120 -0.3518
 7492TIP3    H143967   2.872   2.345  11.761 -0.7853  0.0599  0.8177
 7492TIP3    H243968   2.922   2.245  11.660  1.4740  1.6968  0.2406
 7493TIP3   OH243969   6.800   4.720  17.048 -0.2259  0.0325 -0.0224
 7493TIP3    H143970   6.724   4.690  17.099 -0.6313  2.9749  1.3401
 7493TIP3    H243971   6.762   4.776  16.980  0.4428 -2.6516 -2.8135
 7494TIP3   OH243972   5.022   0.929   5.750 -0.1244 -0.2103  0.2183
 7494TIP3    H143973   4.967   0.906   5.825  0.0994  2.8379  1.4822
 7494TIP3    H243974   5.077   0.852   5.736 -1.1468 -1.4042  2.2987
 7495TIP3   OH243975   0.068   0.599  11.927 -0.5517 -0.5033  0.0355
 7495TIP3    H143976   0.122   0.522  11.947 -0.0825 -0.8680 -2.3643
 7495TIP3    H243977   0.122   0.673  11.954  2.1663 -0.7554 -3.8453
 7496TIP3   OH243978   5.842   1.031  11.912 -0.0143  0.3142  0.6253
 7496TIP3    H143979   5.860   1.110  11.962 -1.0617  0.5356  0.6639
 7496TIP3    H243980   5.913   0.971  11.937  1.4659  1.6184 -0.2969
 7497TIP3   OH243981   0.082   1.569  13.170  0.6503 -0.2315  0.5734
 7497TIP3    H143982   0.098   1.663  13.175  0.0741 -0.0283 -0.9437
 7497TIP3    H243983   0.167   1.531  13.150  0.6158  0.1215 -0.2787
 7498TIP3   OH243984   5.863   4.603  15.919 -0.4759  0.8541 -0.3887
 7498TIP3    H143985   5.934   4.646  15.871 -1.6015  0.8480 -2.1511
 7498TIP3    H243986   5.867   4.642  16.007  2.3595  0.0447 -0.0616
 7499TIP3   OH243987   2.873   2.861   6.007 -0.1539  0.3192 -0.0993
 7499TIP3    H143988   2.891   2.886   6.098 -1.2582  0.6806  0.0366
 7499TIP3    H243989   2.957   2.872   5.962  0.3052  0.5463  0.7796
 7500TIP3   OH243990   1.771   0.991   6.548 -0.1553 -0.7871 -0.1306
 7500TIP3    H143991   1.801   0.917   6.601 -2.6383 -0.4312  1.9882
 7500TIP3    H243992   1.708   0.953   6.487 -0.3032 -0.6332 -0.0741
 7501TIP3   OH243993   4.927   5.616   3.335 -0.1460 -0.3985 -0.3018
 7501TIP3    H143994   4.952   5.701   3.370 -1.0699 -0.8493  1.5723
 7501TIP3    H243995   4.997   5.557   3.360  0.4362 -0.2433 -1.4969
 7502TIP3   OH243996   4.998   5.119   5.080 -0.1507 -0.0669  0.3092
 7502TIP3    H143997   4.955   5.068   5.011 -0.7284  0.5449  0.2090
 7502TIP3    H243998   4.980   5.070   5.160 -0.4911 -0.1626  0.1792
 7503TIP3   OH243999   5.005   2.773  10.907  0.4058 -0.2777 -0.5382
 7503TIP3    H144000   4.963   2.701  10.859 -0.7269 -0.2092  0.3038
 7503TIP3    H244001   5.029   2.835  10.839 -1.6986  0.0818 -1.0468
 7504TIP3   OH244002   6.050   6.057  16.490 -0.4502 -0.1302  0.4978
 7504TIP3    H144003   6.045   6.099  16.576  0.8949 -1.5153  1.3164
 7504TIP3    H244004   6.110   5.983  16.504 -0.4041 -0.5298 -1.5782
 7505TIP3   OH244005   6.099   1.709  12.322 -0.0285 -1.0776 -0.0683
 7505TIP3    H144006   6.169   1.775  12.321 -1.0579  0.0782  0.5050
 7505TIP3    H244007   6.065   1.708  12.233 -0.9194  0.2495  0.2101
 7506TIP3   OH244008   5.963   1.951   2.540  0.0525  0.5807 -0.6911
 7506TIP3    H144009   5.901   2.015   2.573 -0.7202 -0.2822 -0.4309
 7506TIP3    H244010   6.049   1.991   2.557 -0.3691  1.0289  0.5667
 7507TIP3   OH244011   3.286   4.244   5.409 -0.1699 -0.3514 -0.3915
 7507TIP3    H144012   3.275   4.329   5.453  0.7531 -0.3266 -0.1877
 7507TIP3    H244013   3.197   4.217   5.387 -0.5008  0.5224 -0.1764
 7508TIP3   OH244014   1.620   3.731  16.710  0.4826 -0.6514  0.5653
 7508TIP3    H144015   1.554   3.712  16.643  1.5212  0.5633 -0.8811
 7508TIP3    H244016   1.671   3.804  16.674  1.8728 -0.7607  2.1531
 7509TIP3   OH244017   3.385   2.813   3.135 -0.2774  0.6950  0.1647
 7509TIP3    H144018   3.419   2.820   3.225  2.9627 -2.5942 -0.5601
 7509TIP3    H244019   3.294   2.788   3.145 -0.1115  0.8207  2.5092
 7510TIP3   OH244020   2.984   3.836  13.729  0.1388 -0.5244  0.2952
 7510TIP3    H144021   3.052   3.903  13.737 -0.4527  0.4893 -2.1851
 7510TIP3    H244022   2.968   3.830  13.635 -1.0779 -2.9358  0.5833
 7511TIP3   OH244023   2.656   1.211  16.625  0.9517 -0.0316  0.2663
 7511TIP3    H144024   2.699   1.279  16.573  0.3814  0.4029  0.3464
 7511TIP3    H244025   2.706   1.209  16.707  0.8961  0.3864  0.3137
 7512TIP3   OH244026   4.450   3.217   5.140 -0.7157  0.4342  0.6079
 7512TIP3    H144027   4.464   3.241   5.048  0.6090 -0.9316  0.4049
 7512TIP3    H244028   4.498   3.283   5.190 -0.1538  0.3137  0.2398
 7513TIP3   OH244029   1.277   2.132  14.210  0.7266 -0.0914 -0.2997
 7513TIP3    H144030   1.265   2.164  14.121  1.4879  4.0830  0.8561
 7513TIP3    H244031   1.368   2.101  14.213  0.6079 -0.5223 -1.0036
 7514TIP3   OH244032   0.048   1.568   0.945  0.0153  0.2157 -0.1398
 7514TIP3    H144033   0.075   1.553   0.854 -0.2780  0.6174 -0.2940
 7514TIP3    H244034  -0.043   1.539   0.948 -0.3229  1.2362 -0.2562
 7515TIP3   OH244035   3.113   2.702   1.706  0.1801 -0.1700 -0.2769
 7515TIP3    H144036   3.060   2.782   1.703  2.2543  1.2940  0.5529
 7515TIP3    H244037   3.180   2.715   1.640  0.4283 -1.3267 -0.2697
 7516TIP3   OH244038   3.582   6.769  13.878  0.0330 -0.0474  0.1772
 7516TIP3    H144039   3.577   6.821  13.959 -3.0854 -0.2269  0.2219
 7516TIP3    H244040   3.578   6.678  13.908 -1.8646 -0.1035 -0.1310
 7517TIP3   OH244041   6.311   5.099   0.533  0.4372  0.1347 -0.0269
 7517TIP3    H144042   6.330   5.187   0.499  1.1818  0.1187  0.3394
 7517TIP3    H244043   6.230   5.074   0.488  0.2211  0.9989 -0.1549
 7518TIP3   OH244044   0.174   1.785   4.369 -0.2249  0.1678  0.0974
 7518TIP3    H144045   0.266   1.778   4.345 -0.0489 -0.3631  0.8947
 7518TIP3    H244046   0.127   1.748   4.294  0.2728 -0.6975  0.1984
 7519TIP3   OH244047   4.235   4.221  14.167  0.3107  0.4178 -0.0772
 7519TIP3    H144048   4.142   4.234  14.150 -0.4511 -3.0114  0.7187
 7519TIP3    H244049   4.241   4.208  14.261  1.7119  1.0952 -0.0427
 7520TIP3   OH244050   5.646   3.074  14.961 -0.1619 -0.0684 -0.0266
 7520TIP3    H144051   5.631   3.034  14.875 -0.2808  1.0154 -0.5377
 7520TIP3    H244052   5.641   3.002  15.023  1.5985 -1.1709 -1.0695
 7521TIP3   OH244053   4.875   6.244   2.013 -0.1581 -0.2334 -0.1216
 7521TIP3    H144054   4.961   6.286   2.011  0.2981 -1.1295 -0.1429
 7521TIP3    H244055   4.836   6.263   1.928 -1.3231  2.8119  0.9711
 7522TIP3   OH244056   6.229   1.133   4.692 -0.0491  0.5671 -0.5422
 7522TIP3    H144057   6.219   1.080   4.613 -1.9358  0.1921 -0.0995
 7522TIP3    H244058   6.165   1.203   4.682  0.7810  1.4318 -0.0292
 7523TIP3   OH244059   3.912   1.925   4.042 -0.2728 -0.0862  0.3349
 7523TIP3    H144060   3.974   1.901   3.973 -1.8400  0.6595 -1.4241
 7523TIP3    H244061   3.965   1.972   4.107  0.9898  0.7323 -1.2133
 7524TIP3   OH244062   2.690   3.216   3.744 -0.4610  0.0424  0.3926
 7524TIP3    H144063   2.601   3.245   3.764 -1.2238 -0.0278 -2.4882
 7524TIP3    H244064   2.701   3.232   3.651  1.4738 -2.7615 -0.0041
 7525TIP3   OH244065   5.245   1.450  14.595  0.1681 -0.3840  0.4998
 7525TIP3    H144066   5.269   1.508  14.667  0.5058  0.9568 -0.6537
 7525TIP3    H244067   5.149   1.449  14.596 -0.1245  3.4516 -1.7929
 7526TIP3   OH244068   6.359   2.160   0.389 -0.2062 -0.3182 -0.0163
 7526TIP3    H144069   6.356   2.082   0.334 -0.2488  0.4005 -1.0688
 7526TIP3    H244070   6.433   2.210   0.356 -0.3529  0.2260  0.4619
 7527TIP3   OH244071   3.173   3.407  15.331  0.2307 -0.4067  0.4430
 7527TIP3    H144072   3.223   3.413  15.249 -1.4200 -0.8074 -0.6457
 7527TIP3    H244073   3.095   3.460  15.315 -0.5125 -1.1555  1.4532
 7528TIP3   OH244074   4.124   3.729   2.759 -0.0175  0.4888 -0.4422
 7528TIP3    H144075   4.182   3.714   2.684 -0.6445  1.6293 -1.1805
 7528TIP3    H244076   4.158   3.670   2.827  0.2723 -0.9327 -1.7581
 7529TIP3   OH244077   4.854   2.172   2.885  0.2465 -0.4484  0.5475
 7529TIP3    H144078   4.913   2.164   2.810 -0.3841 -0.8188  0.0826
 7529TIP3    H244079   4.772   2.132   2.856 -0.4851  0.7144  0.9321
 7530TIP3   OH244080   0.058   2.283  11.757 -0.2317 -0.2268  0.0830
 7530TIP3    H144081  -0.003   2.347  11.792 -2.8546 -2.1135 -0.7088
 7530TIP3    H244082   0.058   2.299  11.663  0.7967 -0.0408  0.1029
 7531TIP3   OH244083   3.733   3.204   4.622 -0.0636  0.0172  0.1716
 7531TIP3    H144084   3.652   3.164   4.653  0.0881 -0.2954  0.1681
 7531TIP3    H244085   3.798   3.133   4.624  0.2357  0.2891  0.2722
 7532TIP3   OH244086   0.075   0.063   1.950  0.3187 -0.3091 -0.0162
 7532TIP3    H144087   0.042   0.003   1.884 -0.7359  0.3655 -0.1228
 7532TIP3    H244088   0.167   0.077   1.926  0.3686 -1.2867 -0.4155
 7533TIP3   OH244089   2.303   4.148  16.756 -0.2336 -0.6846  0.3258
 7533TIP3    H144090   2.337   4.220  16.809 -1.6427 -0.0998  0.4890
 7533TIP3    H244091   2.335   4.167  16.667 -0.1886 -0.1159  0.4571
 7534TIP3   OH244092   4.839   6.145   5.848 -0.1017  0.4337  0.1754
 7534TIP3    H144093   4.878   6.202   5.782  1.3094 -1.5373 -0.7819
 7534TIP3    H244094   4.808   6.069   5.799  0.2463 -0.7309  1.6703
 7535TIP3   OH244095   1.262   6.203  16.442  0.5919  0.1381 -0.2801
 7535TIP3    H144096   1.181   6.162  16.473  1.1506 -0.3358  0.6253
 7535TIP3    H244097   1.270   6.282  16.496  0.8395  0.0648 -0.2091
 7536TIP3   OH244098   4.956   1.415   1.637  0.5593 -0.2572  0.8746
 7536TIP3    H144099   4.928   1.441   1.549  2.4132 -1.0251 -0.0082
 7536TIP3    H244100   5.039   1.369   1.623  0.1461 -1.7713  2.8882
 7537TIP3   OH244101   4.153   6.684  13.283 -0.3466  0.6545 -0.3318
 7537TIP3    H144102   4.201   6.748  13.336 -2.4237  0.1631  2.4015
 7537TIP3    H244103   4.077   6.732  13.250 -0.6103  0.2282 -0.3570
 7538TIP3   OH244104   4.794   6.784   2.432  0.9348 -0.1610  0.5694
 7538TIP3    H144105   4.730   6.809   2.365 -0.3298  0.6258  1.9839
 7538TIP3    H244106   4.879   6.795   2.390  0.2205  1.4258 -0.5586
 7539TIP3   OH244107   2.914   4.433  14.347 -0.3468 -0.0258  0.7237
 7539TIP3    H144108   2.967   4.368  14.302 -1.7806 -1.7664  1.4251
 7539TIP3    H244109   2.958   4.517  14.330 -0.8871 -0.4435 -4.0516
 7540TIP3   OH244110   6.042   6.655  15.136 -0.2838 -0.4936 -0.1382
 7540TIP3    H144111   6.031   6.565  15.105 -3.9983 -0.3312  0.3205
 7540TIP3    H244112   5.983   6.662  15.211  0.3812  2.1694  0.2409
 7541TIP3   OH244113   6.447   6.641  15.635 -0.1790 -0.0925 -0.5515
 7541TIP3    H144114   6.420   6.552  15.617  0.9672 -0.5401 -0.1774
 7541TIP3    H244115   6.537   6.633  15.669 -1.0901  0.8903  2.4567
 7542TIP3   OH244116   0.653   5.492   2.712  0.2610  0.2973 -0.5692
 7542TIP3    H144117   0.747   5.508   2.703  0.2960  0.9012  0.7187
 7542TIP3    H244118   0.619   5.500   2.623  1.9099 -3.5129 -1.7514
 7543TIP3   OH244119   5.468   0.711   0.427 -0.7483 -0.0229 -0.1552
 7543TIP3    H144120   5.505   0.796   0.452 -1.0529  0.2856 -0.7439
 7543TIP3    H244121   5.398   0.695   0.490  0.3709 -0.6224  0.9863
 7544TIP3   OH244122   2.926   1.666  11.830 -0.1275  0.2402  0.1503
 7544TIP3    H144123   3.018   1.646  11.845 -0.1119 -0.1489 -0.4246
 7544TIP3    H244124   2.912   1.750  11.874  0.8498  0.9950 -0.9239
 7545TIP3   OH244125   4.645   4.289  13.286 -0.2314 -0.4529  0.2960
 7545TIP3    H144126   4.607   4.375  13.268  0.7886 -0.3425 -1.5796
 7545TIP3    H244127   4.572   4.238  13.321 -1.2208  0.7474  0.0661
 7546TIP3   OH244128   5.323   5.421   1.693  0.3716 -0.0592  0.0647
 7546TIP3    H144129   5.303   5.343   1.744  0.0825  0.5406  0.8887
 7546TIP3    H244130   5.279   5.407   1.609  0.4136 -0.8216  0.1654
 7547TIP3   OH244131   5.075   6.201  14.354 -0.2368 -0.1089 -0.3347
 7547TIP3    H144132   5.072   6.279  14.410  0.2663 -0.2975 -0.0333
 7547TIP3    H244133   5.017   6.222  14.281 -0.7890  0.2039  0.1769
 7548TIP3   OH244134   3.301   0.596  10.902 -0.0957 -0.0536  0.3581
 7548TIP3    H144135   3.213   0.584  10.866  0.2743  0.1601 -0.6437
 7548TIP3    H244136   3.359   0.549  10.843  0.5369  0.3408  0.6452
 7549TIP3   OH244137   5.801   3.760   5.287  0.0197 -0.2142  0.4894
 7549TIP3    H144138   5.853   3.731   5.211  0.9913  2.0053  0.2387
 7549TIP3    H244139   5.856   3.739   5.362  0.1418 -0.2156  0.4014
 7550TIP3   OH244140   3.976   2.868  14.783 -0.5987  0.3621 -0.2065
 7550TIP3    H144141   3.987   2.924  14.707  0.9308  1.1110  0.5193
 7550TIP3    H244142   3.882   2.848  14.785 -0.6526  0.1973 -2.3355
 7551TIP3   OH244143   3.450   0.855  16.675  0.1353 -0.4168  0.2171
 7551TIP3    H144144   3.472   0.830  16.765  1.4630 -0.4722 -0.0989
 7551TIP3    H244145   3.492   0.788  16.621 -0.8520 -0.5146 -0.4448
 7552TIP3   OH244146   0.168   5.923   1.802  0.1032  0.3314  0.1583
 7552TIP3    H144147   0.164   5.838   1.846 -0.2215 -0.1182 -0.7184
 7552TIP3    H244148   0.169   5.987   1.873  3.0052 -0.4556  0.9218
 7553TIP3   OH244149   4.053   3.009  11.224  0.1665  0.3257 -0.7875
 7553TIP3    H144150   4.092   3.091  11.196 -1.1345  1.7057  1.1662
 7553TIP3    H244151   4.064   3.009  11.320 -2.0712 -0.5317 -0.4666
 7554TIP3   OH244152   5.201   1.016   1.187 -0.0108 -0.1345  0.3176
 7554TIP3    H144153   5.105   1.021   1.189  0.0126  0.1342  1.1597
 7554TIP3    H244154   5.220   0.954   1.117 -0.8194 -0.5819  0.4775
 7555TIP3   OH244155   0.871   1.901   5.711 -0.7432  0.0908 -0.5489
 7555TIP3    H144156   0.954   1.932   5.675  0.7614 -0.1491  2.4023
 7555TIP3    H244157   0.863   1.811   5.680  1.0664 -0.4776  0.4898
 7556TIP3   OH244158   2.674   2.759  14.446 -0.5761  0.3477  0.0048
 7556TIP3    H144159   2.769   2.764  14.439 -0.4667 -1.1653 -0.1033
 7556TIP3    H244160   2.654   2.791  14.534 -0.0029  1.0091 -0.1022
 7557TIP3   OH244161   2.244   1.765   2.419 -0.4661  0.3880  0.0026
 7557TIP3    H144162   2.312   1.769   2.352  0.0758  0.3078  0.5357
 7557TIP3    H244163   2.288   1.725   2.494 -1.7788 -2.0801 -0.4492
 7558TIP3   OH244164   6.833   1.369   5.366 -0.4306  0.0198 -0.3629
 7558TIP3    H144165   6.877   1.421   5.299  0.1336  1.8173  1.3214
 7558TIP3    H244166   6.808   1.288   5.321  2.5823 -0.1481 -1.9906
 7559TIP3   OH244167   1.878   5.228  11.527 -0.1142  0.1989  0.3728
 7559TIP3    H144168   1.911   5.311  11.493  1.3211 -0.4985 -0.0120
 7559TIP3    H244169   1.804   5.253  11.583 -1.5135  1.5114 -1.8928
 7560TIP3   OH244170   2.914   6.803   5.522 -0.0658  0.5255  0.5869
 7560TIP3    H144171   2.843   6.852   5.562 -0.4133  0.1781  0.4078
 7560TIP3    H244172   2.946   6.745   5.592 -0.6569 -0.0648  0.3799
 7561TIP3   OH244173   2.612   5.524  13.976 -0.4631 -0.5098 -0.1533
 7561TIP3    H144174   2.625   5.552  13.885  0.6483  0.9596  0.4259
 7561TIP3    H244175   2.691   5.552  14.021 -0.0703 -3.0300  0.8930
 7562TIP3   OH244176   0.063   3.113   2.473  0.1823 -0.0182  0.6924
 7562TIP3    H144177   0.133   3.055   2.442 -0.3794  0.7795 -2.3414
 7562TIP3    H244178  -0.016   3.059   2.472  0.5434 -0.7815  3.6630
 7563TIP3   OH244179   4.040   1.769   5.384  0.3552  0.0005  0.0654
 7563TIP3    H144180   4.054   1.789   5.292  0.3005  0.0732  0.0728
 7563TIP3    H244181   4.003   1.849   5.421  1.7550  0.4985  0.4751
 7564TIP3   OH244182   1.253   0.928   1.233  0.0260  0.1024 -0.3120
 7564TIP3    H144183   1.241   0.853   1.291 -1.8829  1.0852  0.6526
 7564TIP3    H244184   1.285   0.889   1.151  2.5810 -1.3346  1.2182
 7565TIP3   OH244185   2.369   6.654   0.452 -0.5208  0.2882 -0.1027
 7565TIP3    H144186   2.326   6.703   0.522 -0.6026  0.1496 -0.0556
 7565TIP3    H244187   2.304   6.591   0.422 -0.3872  0.1483 -0.1021
 7566TIP3   OH244188   4.845   6.690  13.804 -0.1183  0.0545  0.3606
 7566TIP3    H144189   4.776   6.625  13.810 -0.3384  0.4193  2.3625
 7566TIP3    H244190   4.901   6.673  13.880 -0.1535  2.1377  0.9098
 7567TIP3   OH244191   4.496   4.265  14.315 -0.0472  0.2046 -0.3898
 7567TIP3    H144192   4.409   4.304  14.309  0.0445  0.5200  0.1838
 7567TIP3    H244193   4.542   4.320  14.380 -0.3131 -1.6173  1.4337
 7568TIP3   OH244194   5.569   6.395  16.917 -0.5390 -0.2559  0.4878
 7568TIP3    H144195   5.524   6.339  16.980 -1.4045 -0.5735 -0.3975
 7568TIP3    H244196   5.662   6.377  16.931 -0.7952 -2.0844  0.0771
 7569TIP3   OH244197   0.441   0.697   2.069  0.0069  0.0757 -0.2109
 7569TIP3    H144198   0.516   0.685   2.011  0.4224  1.3472  0.0385
 7569TIP3    H244199   0.421   0.790   2.063 -0.7571 -0.0179  0.7130
 7570TIP3   OH244200   2.289   2.292   2.733 -0.6156  0.2863  0.6444
 7570TIP3    H144201   2.274   2.224   2.667  2.0052 -0.6010  0.8156
 7570TIP3    H244202   2.226   2.273   2.802 -0.9896 -1.0297 -0.0218
 7571TIP3   OH244203   5.737   6.817   4.644 -0.0961  0.2163  0.2010
 7571TIP3    H144204   5.685   6.896   4.630  0.3594  0.7126  1.1760
 7571TIP3    H244205   5.738   6.773   4.559 -0.5942  1.1099 -0.2816
 7572TIP3   OH244206   3.033   5.778   1.399  0.3331 -0.4677  0.1115
 7572TIP3    H144207   2.964   5.739   1.454  0.6932  0.0098  0.9262
 7572TIP3    H244208   3.111   5.727   1.420  0.2080 -1.1170 -0.9382
 7573TIP3   OH244209   0.900   3.214   1.793  0.3201 -0.3956 -0.0434
 7573TIP3    H144210   0.904   3.215   1.697  1.0101  0.6725 -0.0157
 7573TIP3    H244211   0.962   3.146   1.818  0.1178 -0.6987 -0.3498
 7574TIP3   OH244212   6.203   1.928   1.382  0.4382 -0.7568 -0.4458
 7574TIP3    H144213   6.141   1.910   1.453 -0.9179  0.3057 -1.3020
 7574TIP3    H244214   6.155   1.986   1.322  2.8870  1.6810 -0.2370
 7575TIP3   OH244215   6.272   5.083   5.286  0.4780  0.0499  0.5375
 7575TIP3    H144216   6.292   5.174   5.263 -1.5730 -0.1125 -2.4623
 7575TIP3    H244217   6.219   5.090   5.366 -0.5763  1.6087 -0.2494
 7576TIP3   OH244218   4.804   5.789   1.109  0.1868  0.5870 -0.4057
 7576TIP3    H144219   4.721   5.751   1.135 -0.8745 -1.1710 -5.4636
 7576TIP3    H244220   4.863   5.714   1.097  1.7563  1.5992  0.4957
 7577TIP3   OH244221   1.370   3.349   5.259  0.1280  0.0841  0.1298
 7577TIP3    H144222   1.400   3.262   5.285 -0.2793 -0.3063 -0.6706
 7577TIP3    H244223   1.425   3.409   5.309 -0.0151 -0.6268  1.1761
 7578TIP3   OH244224   3.998   3.683  16.029  0.0964 -0.2019  0.5629
 7578TIP3    H144225   4.029   3.774  16.030  1.9180 -0.7005 -1.6428
 7578TIP3    H244226   3.999   3.657  16.121 -2.3158  2.5082  1.5087
 7579TIP3   OH244227   3.244   5.106   3.480  0.2133 -0.4320  0.0080
 7579TIP3    H144228   3.293   5.053   3.417 -0.4198  0.4843 -1.2907
 7579TIP3    H244229   3.237   5.050   3.558  3.7216 -0.4695  0.4903
 7580TIP3   OH244230   0.612   4.546  12.486  0.1136  0.1859  0.5727
 7580TIP3    H144231   0.694   4.525  12.530 -0.3971 -1.2653  0.9051
 7580TIP3    H244232   0.637   4.568  12.397  0.7880 -1.2504  0.3864
 7581TIP3   OH244233   3.651   3.562   3.219 -0.0641  0.9516  0.4395
 7581TIP3    H144234   3.704   3.604   3.151 -2.2284 -1.7272 -3.3235
 7581TIP3    H244235   3.713   3.510   3.269  1.3572  0.6237 -1.5316
 7582TIP3   OH244236   2.269   1.688  15.503  0.2976 -0.1659  0.1964
 7582TIP3    H144237   2.284   1.680  15.597  0.8161  2.1435  0.3798
 7582TIP3    H244238   2.185   1.732  15.496  0.5666  0.2735 -0.3799
 7583TIP3   OH244239   0.906   2.360  13.637  0.2738  0.1593 -0.3625
 7583TIP3    H144240   0.991   2.376  13.678  1.0851  0.3005 -2.0175
 7583TIP3    H244241   0.857   2.441  13.651  0.0689 -0.2151  1.3155
 7584TIP3   OH244242   0.190   5.598   6.566 -0.5208  0.5126  0.6230
 7584TIP3    H144243   0.156   5.592   6.655  0.2209 -1.3363  0.8230
 7584TIP3    H244244   0.252   5.671   6.569 -0.7809  0.7110  1.5145
 7585TIP3   OH244245   2.803   2.409  16.489  0.0637  0.5182 -0.0225
 7585TIP3    H144246   2.873   2.377  16.432 -1.2329  0.5110 -1.7087
 7585TIP3    H244247   2.801   2.503  16.475 -0.2946  0.5119 -0.0342
 7586TIP3   OH244248   0.286   0.591  15.185 -0.1206 -0.5679 -0.0996
 7586TIP3    H144249   0.287   0.502  15.148 -0.4639 -0.6346  0.0517
 7586TIP3    H244250   0.194   0.616  15.185 -0.0547 -0.3223  0.1270
 7587TIP3   OH244251   0.677   4.630  14.570  0.4861 -0.0836 -0.2837
 7587TIP3    H144252   0.657   4.664  14.657 -0.2308  0.1369 -0.5303
 7587TIP3    H244253   0.773   4.631  14.565  0.5230  0.0736  0.4310
 7588TIP3   OH244254   5.759   3.051   6.305 -0.1803  0.6205  0.4129
 7588TIP3    H144255   5.801   2.965   6.300 -0.0924  0.7147 -1.1050
 7588TIP3    H244256   5.669   3.032   6.332 -0.4824 -0.0838 -0.9969
 7589TIP3   OH244257   6.039   2.338   0.661 -0.1180 -0.0289 -0.7688
 7589TIP3    H144258   5.972   2.303   0.720  0.6797 -0.5226 -0.1439
 7589TIP3    H244259   6.066   2.263   0.608 -0.2233  0.2224 -1.1839
 7590TIP3   OH244260   1.686   1.316  12.498 -0.3538  0.6895  0.1729
 7590TIP3    H144261   1.597   1.282  12.498 -0.9363  2.1308  1.3612
 7590TIP3    H244262   1.729   1.269  12.570 -0.3811  0.5623  0.1064
 7591TIP3   OH244263   4.939   3.352  16.104 -0.0838  0.4963  0.6655
 7591TIP3    H144264   4.880   3.407  16.053  0.4908  0.2850 -0.2546
 7591TIP3    H244265   4.955   3.401  16.184  1.1109  2.0991 -0.5006
 7592TIP3   OH244266   0.383   0.263   1.403  0.2448 -0.5615  0.4095
 7592TIP3    H144267   0.343   0.333   1.352  1.4038  1.0372  1.5774
 7592TIP3    H244268   0.323   0.248   1.476 -0.5443 -1.6120 -0.4186
 7593TIP3   OH244269   6.542   5.645  16.392 -0.1598  0.7693 -0.6251
 7593TIP3    H144270   6.472   5.673  16.451  0.6784 -1.5975  1.7109
 7593TIP3    H244271   6.504   5.650  16.304 -3.0187  0.3072  0.4814
 7594TIP3   OH244272   2.453   3.601  13.355 -0.9960  0.2175 -0.4330
 7594TIP3    H144273   2.430   3.675  13.300 -0.6560  0.2366 -0.5473
 7594TIP3    H244274   2.381   3.539  13.343 -0.5592 -0.0943 -1.4639
 7595TIP3   OH244275   0.620   3.082  11.616 -0.1082 -0.2720 -0.1452
 7595TIP3    H144276   0.673   3.005  11.635 -1.2520 -1.0509  0.0382
 7595TIP3    H244277   0.619   3.087  11.520  2.7175  1.5460 -0.1922
 7596TIP3   OH244278   1.327   2.673  15.875 -0.7749 -0.0872  0.5349
 7596TIP3    H144279   1.356   2.698  15.962  0.4820  0.5829 -0.0587
 7596TIP3    H244280   1.302   2.756  15.833  1.6885  0.0445 -0.8185
 7597TIP3   OH244281   5.066   1.886  12.869  0.5820 -0.2621 -0.0693
 7597TIP3    H144282   4.986   1.937  12.881  0.8813  0.0220  0.8212
 7597TIP3    H244283   5.130   1.927  12.927  1.2904 -0.6712 -0.5422
 7598TIP3   OH244284   0.917   5.912   4.472  0.0255  0.1591 -0.4567
 7598TIP3    H144285   0.847   5.884   4.414 -0.6921  0.9124  0.0357
 7598TIP3    H244286   0.934   6.003   4.448 -1.4471  1.0600  1.5799
 7599TIP3   OH244287   3.192   2.651  16.720 -0.2132  0.0992  0.2624
 7599TIP3    H144288   3.228   2.710  16.654  0.3715 -0.2532  0.2596
 7599TIP3    H244289   3.190   2.566  16.677 -0.2867 -0.0405  0.5400
 7600TIP3   OH244290   0.883   2.779   0.627  0.1529  0.3933 -0.4525
 7600TIP3    H144291   0.799   2.805   0.590 -0.8770 -1.6159  0.3706
 7600TIP3    H244292   0.917   2.858   0.669 -2.0202  0.8829  0.4700
 7601TIP3   OH244293   2.776   3.072  12.266 -0.7272 -0.5934 -0.0577
 7601TIP3    H144294   2.772   2.981  12.295  1.4930 -0.7186 -0.0080
 7601TIP3    H244295   2.780   3.068  12.171 -0.7101 -0.5244 -0.0607
 7602TIP3   OH244296   0.138   2.771   5.783 -0.0841  0.2246  0.3269
 7602TIP3    H144297   0.056   2.808   5.816  0.0383  2.1364 -1.3321
 7602TIP3    H244298   0.197   2.845   5.778  0.3759 -0.2403 -2.5997
 7603TIP3   OH244299   3.489   2.345  14.599 -0.2788 -0.4786  0.2312
 7603TIP3    H144300   3.509   2.307  14.684 -0.1353  0.4514  0.6200
 7603TIP3    H244301   3.557   2.411  14.585  1.3949 -2.4663 -1.8663
 7604TIP3   OH244302   1.352   2.324   4.409  0.3839  0.1800  0.5756
 7604TIP3    H144303   1.412   2.398   4.423  1.2901 -0.1716 -1.1871
 7604TIP3    H244304   1.395   2.250   4.451  1.8503 -0.3215 -1.6039
 7605TIP3   OH244305   1.826   3.367  13.832 -0.0639 -0.0474  0.2614
 7605TIP3    H144306   1.837   3.419  13.911 -0.0759 -0.1877  0.3554
 7605TIP3    H244307   1.772   3.422  13.775  0.5979  0.3869  0.0398
 7606TIP3   OH244308   0.329   5.120   5.345 -0.0984  0.4620 -0.3134
 7606TIP3    H144309   0.357   5.083   5.262 -1.2926 -0.3545 -0.3720
 7606TIP3    H244310   0.374   5.205   5.350 -0.3663  0.7294 -1.9880
 7607TIP3   OH244311   0.327   6.190   6.148  0.3275  1.0079  0.0775
 7607TIP3    H144312   0.395   6.194   6.216  2.2893 -2.3509 -1.4319
 7607TIP3    H244313   0.367   6.230   6.071  0.6036 -0.7223 -0.7377
 7608TIP3   OH244314   5.678   0.281   3.783  0.1271 -0.4451  0.6135
 7608TIP3    H144315   5.723   0.252   3.862 -1.4481 -4.1272  0.3477
 7608TIP3    H244316   5.585   0.280   3.806 -0.2841 -0.3162 -0.9394
 7609TIP3   OH244317   3.693   1.027  13.761  0.0561 -0.1174  0.1814
 7609TIP3    H144318   3.759   0.958  13.747 -0.6368 -1.4218  2.7695
 7609TIP3    H244319   3.641   0.996  13.835 -1.7375  2.1826 -0.0050
 7610TIP3   OH244320   3.419   3.680   3.353  0.1479  0.6878 -0.1759
 7610TIP3    H144321   3.407   3.605   3.412  0.8644 -0.6396 -1.6534
 7610TIP3    H244322   3.508   3.670   3.320  0.4690  2.5445  0.0205
 7611TIP3   OH244323   5.402   0.768   4.885 -0.4285  0.5819  0.6197
 7611TIP3    H144324   5.487   0.726   4.871 -0.9364 -0.1968 -0.2249
 7611TIP3    H244325   5.382   0.752   4.977 -0.1643 -0.1799  0.5476
 7612TIP3   OH244326   4.155   2.333  13.290  0.0688 -0.0869 -0.5206
 7612TIP3    H144327   4.095   2.346  13.216  0.5193  0.6940 -0.7663
 7612TIP3    H244328   4.098   2.321  13.365 -0.4248 -2.2098 -1.1675
 7613TIP3   OH244329   4.146   0.128   1.455  0.0670 -0.0396  0.0759
 7613TIP3    H144330   4.160   0.059   1.520 -0.9444 -0.1832  0.1425
 7613TIP3    H244331   4.100   0.085   1.383  0.1748  0.3811 -0.2488
 7614TIP3   OH244332   5.590   6.237   3.306  0.0801 -0.0379 -0.2409
 7614TIP3    H144333   5.679   6.221   3.274 -0.5312 -0.4800 -1.7896
 7614TIP3    H244334   5.536   6.242   3.227 -1.5322 -1.2804  0.7273
 7615TIP3   OH244335   6.715   5.106  14.826 -0.4556  0.6810 -0.1104
 7615TIP3    H144336   6.637   5.096  14.771  0.1531  0.5112 -0.9623
 7615TIP3    H244337   6.785   5.064  14.776  0.2398  1.0849  0.5073
 7616TIP3   OH244338   3.609   6.271  16.025 -0.2891  0.0241  0.5292
 7616TIP3    H144339   3.609   6.180  15.996  0.3875 -0.0160  0.6260
 7616TIP3    H244340   3.699   6.300  16.011 -0.2943  0.4243  1.2642
 7617TIP3   OH244341   4.415   5.075  17.041  0.0325 -0.3439 -0.6916
 7617TIP3    H144342   4.362   5.051  17.117 -1.3313  0.7409 -1.2461
 7617TIP3    H244343   4.420   5.171  17.046  1.0339 -0.3576 -1.2625
 7618TIP3   OH244344   5.822   3.934   3.248 -0.0491 -0.0256  0.0124
 7618TIP3    H144345   5.758   3.931   3.177  1.3168  0.6844 -1.3097
 7618TIP3    H244346   5.770   3.918   3.327 -1.8037  0.2525 -1.0164
 7619TIP3   OH244347   0.728   3.847   5.585 -0.1391  0.4886 -0.1133
 7619TIP3    H144348   0.702   3.939   5.596 -0.7302  0.6441 -2.3607
 7619TIP3    H244349   0.823   3.851   5.575 -0.3070  1.0619 -1.7018
 7620TIP3   OH244350   5.717   4.292   4.666  0.5268 -0.8650 -0.4368
 7620TIP3    H144351   5.685   4.266   4.753  0.5878 -0.4227 -0.2778
 7620TIP3    H244352   5.780   4.362   4.684  0.5879 -0.8144 -0.8363
 7621TIP3   OH244353   0.739   1.829  12.391  0.3556 -0.5293  0.1631
 7621TIP3    H144354   0.663   1.886  12.407  0.2440 -1.1806  2.2859
 7621TIP3    H244355   0.815   1.885  12.403  0.2534 -0.7998  2.5771
 7622TIP3   OH244356   1.052   1.255   6.426 -0.1485 -0.3675  0.0848
 7622TIP3    H144357   1.128   1.216   6.383 -0.5632  1.0799 -2.1112
 7622TIP3    H244358   1.067   1.349   6.422 -0.4604 -0.1242  2.7876
 7623TIP3   OH244359   0.897   5.607  16.987 -0.0474 -0.3872 -0.2738
 7623TIP3    H144360   0.941   5.691  16.974 -1.3226  0.6012  1.3528
 7623TIP3    H244361   0.966   5.547  17.015  0.7047  0.4168 -0.3814
 7624TIP3   OH244362   4.456   2.341   6.276  0.2289 -0.0025 -0.3891
 7624TIP3    H144363   4.365   2.316   6.294  0.8140 -3.9780 -1.9672
 7624TIP3    H244364   4.456   2.369   6.185  0.6406 -0.5422 -0.5617
 7625TIP3   OH244365   4.773   6.442  16.804 -0.2323  0.4416 -0.1503
 7625TIP3    H144366   4.836   6.498  16.759 -1.3430  0.6175 -1.5935
 7625TIP3    H244367   4.826   6.378  16.851  1.0170  1.1137 -0.5953
 7626TIP3   OH244368   1.147   0.320  16.155 -0.2553 -0.0740  0.0053
 7626TIP3    H144369   1.063   0.363  16.172 -0.2340  0.6438 -1.5409
 7626TIP3    H244370   1.196   0.382  16.101  0.5699 -1.2164 -0.6116
 7627TIP3   OH244371   4.647   4.996  16.856 -0.3666  0.1718  0.2672
 7627TIP3    H144372   4.577   4.979  16.793  1.4117 -1.1288 -1.4709
 7627TIP3    H244373   4.626   4.941  16.931  0.1537 -2.3431 -1.3372
 7628TIP3   OH244374   0.467   5.117   1.062 -0.2238 -0.2511 -0.0495
 7628TIP3    H144375   0.411   5.171   1.006 -2.4830 -1.6560  0.6980
 7628TIP3    H244376   0.427   5.030   1.059  1.0509 -0.9689  1.7684
 7629TIP3   OH244377   3.783   6.607  16.326  0.0649 -0.6211  0.3083
 7629TIP3    H144378   3.756   6.516  16.344 -1.3708 -0.7969 -2.2750
 7629TIP3    H244379   3.838   6.601  16.248  2.3873  0.5073  1.7409
 7630TIP3   OH244380   3.854   1.574  12.044  0.9479  0.1141  0.3280
 7630TIP3    H144381   3.866   1.488  12.082 -0.0608  0.0534  0.5334
 7630TIP3    H244382   3.914   1.576  11.969 -0.8146 -1.7311 -1.2167
 7631TIP3   OH244383   3.872   4.198  11.411  0.0653  0.6155 -0.1902
 7631TIP3    H144384   3.945   4.191  11.473 -0.6486  1.5807  0.8052
 7631TIP3    H244385   3.894   4.138  11.340  1.7899  0.8464  0.1182
 7632TIP3   OH244386   1.532   6.356   1.009  0.0940  0.3521 -0.0598
 7632TIP3    H144387   1.436   6.354   1.014  0.1328 -1.5958  0.3658
 7632TIP3    H244388   1.552   6.331   0.919  0.2246  0.7616 -0.1505
 7633TIP3   OH244389   5.972   4.782  11.520  0.5067 -0.1112 -0.4367
 7633TIP3    H144390   5.974   4.844  11.447 -1.1530  0.2741 -0.1991
 7633TIP3    H244391   6.029   4.710  11.492  0.8476  0.5770 -1.5970
 7634TIP3   OH244392   4.184   0.196   5.437  0.5680  0.4558 -0.4746
 7634TIP3    H144393   4.139   0.245   5.368 -0.6462 -1.3191 -1.0254
 7634TIP3    H244394   4.149   0.233   5.518  0.5423  1.2669 -0.8432
 7635TIP3   OH244395   5.507   6.034   1.689 -0.3223  0.3920  0.4505
 7635TIP3    H144396   5.449   6.110   1.685  0.9698  1.3805 -0.6328
 7635TIP3    H244397   5.463   5.967   1.637 -1.8733  0.0463  2.0815
 7636TIP3   OH244398   1.117   4.552   2.370  0.0560  0.2733  0.5695
 7636TIP3    H144399   1.051   4.563   2.301 -0.0233  0.5397  0.6865
 7636TIP3    H244400   1.189   4.609   2.343  1.0217 -1.3784 -0.5084
 7637TIP3   OH244401   3.545   4.197   3.866  0.2630  0.2718  0.2337
 7637TIP3    H144402   3.465   4.147   3.879  0.4519 -0.3146 -0.7606
 7637TIP3    H244403   3.579   4.212   3.955 -1.6390  1.7192  0.7688
 7638TIP3   OH244404   4.958   2.179   2.217 -1.3596 -0.1156 -0.1408
 7638TIP3    H144405   4.869   2.210   2.238 -1.5477  0.9320 -2.1719
 7638TIP3    H244406   4.963   2.186   2.122  0.9023 -0.2058 -0.0679
 7639TIP3   OH244407   3.742   4.449  14.956 -0.3240 -0.3126  0.1517
 7639TIP3    H144408   3.779   4.432  15.043  1.0512  0.7814 -0.1806
 7639TIP3    H244409   3.769   4.374  14.903  0.6625  0.0365  0.1487
 7640TIP3   OH244410   5.384   4.042  12.686  0.0669 -0.2166 -0.0881
 7640TIP3    H144411   5.306   3.995  12.717 -0.4216 -0.1598 -1.1833
 7640TIP3    H244412   5.378   4.127  12.729 -0.3228 -0.3140  0.0620
 7641TIP3   OH244413   5.052   5.355  14.551 -0.4808 -0.1124 -0.0263
 7641TIP3    H144414   4.966   5.317  14.568  0.6538 -3.5378 -1.1830
 7641TIP3    H244415   5.038   5.416  14.479 -2.2845  1.3970  1.4845
 7642TIP3   OH244416   2.517   4.664  15.640  0.1624  0.4318 -0.3545
 7642TIP3    H144417   2.457   4.735  15.618 -0.2377 -0.3665 -1.9377
 7642TIP3    H244418   2.463   4.585  15.639  0.7934 -0.0313  0.4506
 7643TIP3   OH244419   2.272   2.529   2.551 -0.1442 -0.1799 -0.1616
 7643TIP3    H144420   2.309   2.493   2.632 -1.0421  1.6173  1.1079
 7643TIP3    H244421   2.342   2.521   2.487  2.0447  1.8430  1.7923
 7644TIP3   OH244422   4.572   3.584   2.743 -0.1903  0.2397 -0.3574
 7644TIP3    H144423   4.541   3.495   2.726 -0.9894  0.0619  1.6897
 7644TIP3    H244424   4.492   3.637   2.742  0.2575  0.9160 -1.3569
 7645TIP3   OH244425   2.395   2.400  12.299  0.1937 -0.3411 -0.2214
 7645TIP3    H144426   2.424   2.485  12.266 -1.6626  0.3851 -0.0858
 7645TIP3    H244427   2.372   2.417  12.391 -0.0880 -1.0158 -0.1649
 7646TIP3   OH244428   4.681   4.588  10.298 -0.4400  0.9844 -0.0757
 7646TIP3    H144429   4.760   4.642  10.302 -0.6180  1.2212  0.4666
 7646TIP3    H244430   4.708   4.508  10.253 -0.1062  1.4169 -0.6617
 7647TIP3   OH244431   1.870   0.261  11.742  0.3628  0.6453  0.1864
 7647TIP3    H144432   1.815   0.220  11.809  1.0627 -0.9963 -0.1857
 7647TIP3    H244433   1.937   0.309  11.791  0.3067  0.2520  0.6529
 7648TIP3   OH244434   0.796   4.126   5.478 -0.4806  0.0568 -0.4550
 7648TIP3    H144435   0.801   4.095   5.388 -2.8691 -1.3540 -0.1845
 7648TIP3    H244436   0.719   4.183   5.480 -0.2323  0.3828  0.6309
 7649TIP3   OH244437   3.989   6.527   1.175 -0.4650  0.0953 -0.0240
 7649TIP3    H144438   4.031   6.540   1.090 -1.5606  0.4821 -0.5290
 7649TIP3    H244439   3.949   6.440   1.168 -0.9887  0.3369 -0.1090
 7650TIP3   OH244440   3.732   1.194  12.279 -0.0938  0.7819  0.6804
 7650TIP3    H144441   3.779   1.152  12.351  2.5351 -1.7613 -2.1813
 7650TIP3    H244442   3.793   1.259  12.245 -1.1115  1.6443  0.4436
 7651TIP3   OH244443   2.184   3.537   5.878 -0.0107  0.0974 -0.4566
 7651TIP3    H144444   2.250   3.594   5.918 -0.0101  0.9619 -1.6238
 7651TIP3    H244445   2.110   3.538   5.939  0.7952 -0.3772  0.5606
 7652TIP3   OH244446   3.064   0.510  12.867 -0.3857 -0.2202 -0.4246
 7652TIP3    H144447   3.158   0.502  12.882 -0.6177 -1.0289  0.6899
 7652TIP3    H244448   3.055   0.508  12.771  0.6902 -0.4568 -0.5318
 7653TIP3   OH244449   0.050   5.322  12.276 -0.2557  0.5943 -0.0009
 7653TIP3    H144450   0.096   5.336  12.194 -0.8002  1.6488 -0.1505
 7653TIP3    H244451   0.037   5.227  12.281  0.8996  0.3916 -0.4999
 7654TIP3   OH244452   3.425   1.302  15.297  0.0198 -0.4649 -0.0432
 7654TIP3    H144453   3.429   1.206  15.300  0.5576 -0.4320  1.1712
 7654TIP3    H244454   3.514   1.329  15.319 -0.9364  0.2953  3.6189
 7655TIP3   OH244455   3.255   5.358   5.707 -0.4841  0.2835 -0.2192
 7655TIP3    H144456   3.179   5.405   5.742  1.2746  1.5063  2.3443
 7655TIP3    H244457   3.277   5.294   5.775 -0.5200 -1.6523 -1.9426
 7656TIP3   OH244458   4.598   2.792   2.959  0.3573  0.8497 -0.0159
 7656TIP3    H144459   4.628   2.756   2.875  0.6916  0.7911  0.1308
 7656TIP3    H244460   4.676   2.828   3.000  1.0032 -2.3304  1.9246
 7657TIP3   OH244461   6.429   2.929  15.938  0.2843  0.1205  0.1775
 7657TIP3    H144462   6.470   3.005  15.980  0.2147  0.1287  0.2300
 7657TIP3    H244463   6.374   2.891  16.006 -1.4156  1.2980 -0.4975
 7658TIP3   OH244464   6.404   4.076   0.685 -0.3719  0.5915 -0.1106
 7658TIP3    H144465   6.401   3.991   0.728 -0.5505  0.4068 -0.4842
 7658TIP3    H244466   6.399   4.139   0.756 -0.3633  0.2905  0.1591
 7659TIP3   OH244467   4.122   1.499   2.810 -0.8614 -0.1705 -0.4089
 7659TIP3    H144468   4.067   1.499   2.731 -1.7184 -1.7215  0.1374
 7659TIP3    H244469   4.060   1.509   2.882 -0.4979 -2.1236  0.2345
 7660TIP3   OH244470   4.055   5.484   5.413 -0.1845 -0.3792  0.0187
 7660TIP3    H144471   4.151   5.479   5.412 -0.0973  0.8220  0.5054
 7660TIP3    H244472   4.027   5.417   5.351  0.9704 -0.7529 -0.1278
 7661TIP3   OH244473   4.830   5.683   3.589 -0.0221  0.1291  0.0455
 7661TIP3    H144474   4.856   5.636   3.510  1.7395  1.2017 -0.0883
 7661TIP3    H244475   4.913   5.699   3.635 -0.7679  1.3958  1.0135
 7662TIP3   OH244476   2.307   3.652   4.889 -1.0731 -0.5398 -0.0660
 7662TIP3    H144477   2.389   3.687   4.922 -0.5526 -0.4616 -1.3733
 7662TIP3    H244478   2.281   3.713   4.819 -2.0789 -0.7370  0.1140
 7663TIP3   OH244479   3.839   5.443  16.298 -0.2471  0.9638 -0.2982
 7663TIP3    H144480   3.749   5.419  16.278  0.0255 -1.8875  1.3343
 7663TIP3    H244481   3.833   5.534  16.327 -2.7696  0.6189  0.5370
 7664TIP3   OH244482   0.059   1.308  13.304 -0.1930 -0.5290  0.0610
 7664TIP3    H144483   0.035   1.385  13.253 -1.2237 -0.4887  0.5772
 7664TIP3    H244484   0.132   1.338  13.358 -0.6177  0.1159  0.2941
 7665TIP3   OH244485   6.666   0.297   0.109  0.3333  0.8205  0.0667
 7665TIP3    H144486   6.637   0.386   0.129 -0.9550  0.4410 -0.0189
 7665TIP3    H244487   6.695   0.300   0.018  0.9621  1.2975  0.2738
 7666TIP3   OH244488   1.891   3.349   0.670  0.1022 -0.0814  0.1866
 7666TIP3    H144489   1.908   3.300   0.590 -0.1062 -1.0131  0.7054
 7666TIP3    H244490   1.958   3.321   0.731 -1.4757 -1.6465  1.3071
 7667TIP3   OH244491   1.521   6.567   5.533  0.1092  0.3742  0.2708
 7667TIP3    H144492   1.543   6.590   5.623 -1.3962 -0.1537  0.8097
 7667TIP3    H244493   1.588   6.504   5.506  0.6811  0.6903  0.9567
 7668TIP3   OH244494   3.061   2.747   0.518 -0.2892 -0.2364 -0.6418
 7668TIP3    H144495   3.032   2.657   0.504 -1.6850  0.0378  0.2951
 7668TIP3    H244496   3.048   2.763   0.611 -1.7743  1.4781 -1.0875
 7669TIP3   OH244497   2.630   0.700  16.406  0.5745 -0.4019 -0.1723
 7669TIP3    H144498   2.594   0.767  16.347 -0.5399 -0.4283  0.4543
 7669TIP3    H244499   2.558   0.637  16.417  1.2161 -1.0805  0.1802
 7670TIP3   OH244500   5.674   1.914  15.965  0.5390  0.3305  0.5739
 7670TIP3    H144501   5.738   1.854  16.005  0.6306  0.8159  1.1641
 7670TIP3    H244502   5.643   1.867  15.888  1.9281  0.2503  0.0261
 7671TIP3   OH244503   4.950   4.991  14.063  0.0144 -0.0705 -0.0477
 7671TIP3    H144504   4.895   4.961  13.991 -1.6779 -0.0899  1.2014
 7671TIP3    H244505   5.002   4.914  14.086 -2.5113 -1.4486  1.5047
 7672TIP3   OH244506   3.615   1.580  14.609 -0.0004  0.4676 -0.4615
 7672TIP3    H144507   3.661   1.663  14.617 -0.2460  0.7767 -1.9727
 7672TIP3    H244508   3.573   1.567  14.695  4.0128 -0.6017  1.6195
 7673TIP3   OH244509   0.083   0.031   5.478 -0.1943 -0.0167 -0.1152
 7673TIP3    H144510   0.136   0.087   5.535 -1.7007  0.3388  1.0148
 7673TIP3    H244511   0.146  -0.025   5.434  1.1147  0.4048  1.1388
 7674TIP3   OH244512   3.604   0.292   0.259 -0.9102 -0.0085 -0.2985
 7674TIP3    H144513   3.509   0.282   0.257 -0.7403 -1.7170 -1.4464
 7674TIP3    H244514   3.628   0.311   0.169 -0.2901  2.3121  0.2878
 7675TIP3   OH244515   5.808   2.933  11.838 -0.0630 -0.1775 -0.4602
 7675TIP3    H144516   5.847   2.863  11.891 -0.0895 -0.4905 -0.8522
 7675TIP3    H244517   5.714   2.927  11.856 -0.2766 -1.3653 -1.7990
 7676TIP3   OH244518   2.379   5.342  16.777 -0.3157  0.2657 -0.3978
 7676TIP3    H144519   2.343   5.288  16.708  0.3754  1.1072 -1.4598
 7676TIP3    H244520   2.472   5.350  16.755  0.0066  0.2034  0.8668
 7677TIP3   OH244521   5.713   6.265  12.143  0.1888 -0.1683 -0.0366
 7677TIP3    H144522   5.635   6.320  12.147  0.1520 -0.2517  0.5615
 7677TIP3    H244523   5.785   6.325  12.163  0.0377 -0.5319  1.8151
 7678TIP3   OH244524   0.929   4.766   6.070  0.5359 -0.1188 -0.1899
 7678TIP3    H144525   0.938   4.760   6.165 -2.4881 -3.5925  0.1020
 7678TIP3    H244526   0.964   4.683   6.037 -0.5551  0.0267 -1.8351
 7679TIP3   OH244527   4.397   6.290  16.456 -0.3859  0.3982  0.0586
 7679TIP3    H144528   4.440   6.210  16.427  0.8188  1.3864 -1.0236
 7679TIP3    H244529   4.448   6.317  16.533 -1.2372 -0.2319  0.8587
 7680TIP3   OH244530   4.110   2.801   0.465  0.4075 -0.0488  0.0852
 7680TIP3    H144531   4.091   2.856   0.540  1.5653  1.3334 -0.5626
 7680TIP3    H244532   4.029   2.800   0.414  0.0831  0.2762  0.5895
 7681TIP3   OH244533   0.571   0.874  15.214 -0.7562  0.2638  0.6882
 7681TIP3    H144534   0.506   0.901  15.150  0.0338 -0.6047 -0.5163
 7681TIP3    H244535   0.653   0.913  15.183 -0.6122  1.0853  2.0072
 7682TIP3   OH244536   1.953   5.630  10.918 -0.4593 -0.2239  0.4306
 7682TIP3    H144537   1.939   5.541  10.885 -1.8505 -0.1811  0.8401
 7682TIP3    H244538   1.971   5.619  11.011 -2.7488  0.0061  0.9586
 7683TIP3   OH244539   1.291   0.011   5.950 -0.4223 -0.4268  0.1418
 7683TIP3    H144540   1.282   0.086   6.010 -3.0827 -0.4502 -0.1193
 7683TIP3    H244541   1.326  -0.059   6.005  2.3018  0.9681  0.3538
 7684TIP3   OH244542   4.302   0.719  12.804 -0.0653 -0.2087 -0.0750
 7684TIP3    H144543   4.260   0.659  12.742  0.2616  0.4906 -1.0086
 7684TIP3    H244544   4.396   0.706  12.789  0.0784 -1.4980  1.7317
 7685TIP3   OH244545   6.785   6.041  12.836 -0.4676 -0.2626  0.4130
 7685TIP3    H144546   6.708   6.009  12.884 -2.3268  3.3345  0.2192
 7685TIP3    H244547   6.828   6.101  12.897  0.7444 -0.3001 -0.3709
 7686TIP3   OH244548   0.406   6.697   0.435  0.0911  0.2446  0.0998
 7686TIP3    H144549   0.359   6.763   0.385  0.6460 -0.3597 -1.2671
 7686TIP3    H244550   0.499   6.720   0.423  0.2761 -0.6422 -0.2054
 7687TIP3   OH244551   5.599   2.398  13.923 -0.5520 -0.3445  0.4106
 7687TIP3    H144552   5.639   2.331  13.978 -1.3420 -0.3039  1.0706
 7687TIP3    H244553   5.636   2.385  13.836  0.4802 -0.6198  0.8858
 7688TIP3   OH244554   0.493   6.480  12.097 -0.4585  0.2355 -0.0651
 7688TIP3    H144555   0.533   6.497  12.012  0.2361 -0.7262  0.0511
 7688TIP3    H244556   0.551   6.523  12.160  0.5433 -1.3145  0.1186
 7689TIP3   OH244557   4.789   2.068  16.740  0.1057  0.1242  0.5397
 7689TIP3    H144558   4.731   2.142  16.758  0.8492  1.1528 -1.0892
 7689TIP3    H244559   4.738   2.010  16.684  0.1887  0.3742  0.2023
 7690TIP3   OH244560   6.614   0.119  11.918 -0.5305  0.0669  0.3564
 7690TIP3    H144561   6.697   0.139  11.962 -1.7673  1.6630  2.1399
 7690TIP3    H244562   6.550   0.113  11.989 -2.6976  2.9534 -1.0923
 7691TIP3   OH244563   0.209   5.890  16.990 -0.0837 -0.5054 -0.1804
 7691TIP3    H144564   0.277   5.841  17.036  0.5420  1.4975  1.1712
 7691TIP3    H244565   0.128   5.871  17.038 -0.1899 -1.5842 -0.7685
 7692TIP3   OH244566   0.427   1.040   2.767 -0.1855  0.1275 -0.1286
 7692TIP3    H144567   0.516   1.055   2.737 -0.4540 -0.0599 -1.0622
 7692TIP3    H244568   0.388   0.983   2.700 -0.7161 -0.5769  0.7479
 7693TIP3   OH244569   4.346   3.538   5.086  0.1109 -0.4520 -0.0329
 7693TIP3    H144570   4.256   3.513   5.107  0.8067 -2.1681  1.1156
 7693TIP3    H244571   4.344   3.557   4.992 -0.8589 -3.4942 -0.7386
 7694TIP3   OH244572   0.089   6.187  11.263 -0.0240 -0.2144  0.8067
 7694TIP3    H144573   0.056   6.163  11.177 -0.7888  1.7448  0.5108
 7694TIP3    H244574   0.010   6.199  11.316  0.1912  2.4816  0.6582
 7695TIP3   OH244575   2.158   3.370  13.912  0.3715 -0.1980  0.3021
 7695TIP3    H144576   2.126   3.341  13.998 -1.3950  1.5171  0.2851
 7695TIP3    H244577   2.082   3.364  13.855  0.9276  0.9159 -0.5772
 7696TIP3   OH244578   6.579   4.673   3.962 -0.2659 -0.0117  0.4689
 7696TIP3    H144579   6.580   4.695   3.869  0.7970  0.6683  0.6303
 7696TIP3    H244580   6.620   4.748   4.005  3.8685 -2.2962  1.0316
 7697TIP3   OH244581   4.292   5.993   2.048  0.2684 -0.1505 -0.2802
 7697TIP3    H144582   4.308   5.925   1.982  0.3337  1.0498 -1.5408
 7697TIP3    H244583   4.380   6.017   2.078  0.4358  0.9265 -1.4995
 7698TIP3   OH244584   4.910   6.211  15.694 -0.7672  0.2976 -0.4030
 7698TIP3    H144585   4.858   6.235  15.618 -1.7055  0.3627  0.2364
 7698TIP3    H244586   4.881   6.270  15.763 -1.5571 -1.1963  0.6092
 7699TIP3   OH244587   1.225   6.174  11.481 -0.1993  0.2640  0.3120
 7699TIP3    H144588   1.130   6.169  11.469  0.0202  1.1762 -2.5839
 7699TIP3    H244589   1.255   6.083  11.481 -0.8632  0.0121 -1.3953
 7700TIP3   OH244590   3.713   1.792   2.550 -1.0713 -0.0360 -0.1572
 7700TIP3    H144591   3.635   1.814   2.499 -0.8735 -0.8576 -0.8395
 7700TIP3    H244592   3.767   1.741   2.490 -0.1368  0.2787  0.4021
 7701TIP3   OH244593   5.201   0.295   0.012 -0.4501 -0.0817 -0.3299
 7701TIP3    H144594   5.171   0.384   0.031  1.2655  0.3086  0.7255
 7701TIP3    H244595   5.235   0.263   0.095  0.3462 -1.1721 -1.0578
 7702TIP3   OH244596   1.837   2.020  12.030 -0.2062  0.0015  0.1760
 7702TIP3    H144597   1.884   1.938  12.040 -0.5653 -0.2530 -0.1950
 7702TIP3    H244598   1.823   2.028  11.936 -0.0619  0.5488  0.1978
 7703TIP3   OH244599   4.817   1.303   0.847  0.1385  0.5084 -0.6806
 7703TIP3    H144600   4.843   1.328   0.759 -0.8660 -0.5588 -1.2990
 7703TIP3    H244601   4.750   1.366   0.872 -0.6356 -0.0766 -1.2680
 7704TIP3   OH244602   2.304   2.984   3.172 -0.0654  0.3121 -0.8716
 7704TIP3    H144603   2.242   3.057   3.178 -0.3657  0.0097 -0.0088
 7704TIP3    H244604   2.253   2.907   3.198  0.7425  0.1079  0.2176
 7705TIP3   OH244605   0.297   4.677  13.557 -0.1511 -0.6188  0.1124
 7705TIP3    H144606   0.293   4.745  13.624 -1.4245 -2.2536  1.8015
 7705TIP3    H244607   0.374   4.699  13.504 -1.5166  3.1107 -0.6113
 7706TIP3   OH244608   0.341   0.911  15.041 -0.1895 -0.6250  0.4407
 7706TIP3    H144609   0.271   0.969  15.071  0.5811  0.6754 -0.1770
 7706TIP3    H244610   0.299   0.855  14.975 -0.9707 -0.8696  1.1254
 7707TIP3   OH244611   4.814   4.876   5.185 -0.1786 -0.2383 -0.0486
 7707TIP3    H144612   4.755   4.828   5.127  0.1933 -0.4390 -0.2641
 7707TIP3    H244613   4.855   4.809   5.238 -1.5238  0.0274  1.4336
 7708TIP3   OH244614   3.867   5.575  11.376  0.1395  0.5516  0.3056
 7708TIP3    H144615   3.866   5.489  11.418  0.2099  0.3675 -0.0562
 7708TIP3    H244616   3.896   5.635  11.444  0.4251  0.2363  0.4686
 7709TIP3   OH244617   5.168   1.562  15.253 -0.2697 -0.1457 -0.0391
 7709TIP3    H144618   5.244   1.505  15.261 -1.6098 -1.8516  1.2873
 7709TIP3    H244619   5.093   1.503  15.261 -1.7226  1.6745  0.4041
 7710TIP3   OH244620   3.061   3.552  15.863  0.5159 -0.3542 -0.2445
 7710TIP3    H144621   3.026   3.562  15.951 -0.1732 -1.1814 -0.4013
 7710TIP3    H244622   3.152   3.580  15.869  0.1432  0.7440  0.4467
 7711TIP3   OH244623   1.368   2.375   4.130 -0.0356  0.6648 -0.8299
 7711TIP3    H144624   1.376   2.359   4.224  1.3322 -1.9221 -1.2987
 7711TIP3    H244625   1.273   2.373   4.114 -0.2216 -0.5835  0.2508
 7712TIP3   OH244626   1.297   5.314   2.196 -0.3284 -0.0886 -0.0050
 7712TIP3    H144627   1.349   5.236   2.216  0.0772  0.1275 -0.2071
 7712TIP3    H244628   1.356   5.387   2.211 -0.3847  0.1341 -0.8137
 7713TIP3   OH244629   0.894   4.870   2.072 -0.1374  0.5597 -0.2275
 7713TIP3    H144630   0.889   4.966   2.072 -0.9343  0.5335  0.4108
 7713TIP3    H244631   0.986   4.851   2.089 -0.1988  1.2370  1.0352
 7714TIP3   OH244632   1.467   4.897  17.010  0.1600  0.1662  0.2736
 7714TIP3    H144633   1.393   4.847  16.977 -1.0198  0.9905  1.5890
 7714TIP3    H244634   1.452   4.904  17.104  0.4701  2.6755  0.1998
 7715TIP3   OH244635   4.740   2.329  16.502 -0.3067  0.1443 -0.1034
 7715TIP3    H144636   4.773   2.391  16.567 -0.2888  1.5634 -1.4085
 7715TIP3    H244637   4.757   2.372  16.418 -1.7464 -0.9298 -0.9763
 7716TIP3   OH244638   5.835   2.496   5.271 -0.1714  0.6728  0.2972
 7716TIP3    H144639   5.764   2.543   5.228 -0.5027  1.3946  1.5832
 7716TIP3    H244640   5.817   2.504   5.365  1.3234  0.4341  0.6447
 7717TIP3   OH244641   0.416   1.685  10.812  0.1952 -0.1098 -0.3366
 7717TIP3    H144642   0.320   1.683  10.814  0.1576  1.1882 -0.1101
 7717TIP3    H244643   0.441   1.684  10.905  0.3242  1.3244 -0.3301
 7718TIP3   OH244644   6.711   2.458   1.855 -0.2816 -0.4836 -0.3701
 7718TIP3    H144645   6.730   2.531   1.913  0.0405 -1.4780  0.8135
 7718TIP3    H244646   6.788   2.402   1.860 -0.1774 -0.5160 -1.9008
 7719TIP3   OH244647   3.557   5.104  15.000 -0.2862 -0.3374  0.2891
 7719TIP3    H144648   3.469   5.076  15.025 -0.8183  0.2335 -0.8574
 7719TIP3    H244649   3.544   5.190  14.960  0.3914 -1.3550 -2.3626
 7720TIP3   OH244650   3.577   5.497   1.520 -0.1896 -0.3778 -0.3765
 7720TIP3    H144651   3.584   5.484   1.614 -1.9018  0.7286 -0.0452
 7720TIP3    H244652   3.637   5.569   1.501 -0.9513  0.4306  0.1680
 7721TIP3   OH244653   1.073   4.592  16.896  0.1891 -0.1288  0.2517
 7721TIP3    H144654   0.978   4.584  16.886  0.4193 -1.2312 -1.4650
 7721TIP3    H244655   1.095   4.533  16.968 -0.2955 -0.8867 -0.2058
 7722TIP3   OH244656   3.685   2.305   1.707  0.4045  0.3793 -0.2942
 7722TIP3    H144657   3.630   2.324   1.631  1.1510  0.4020 -0.8412
 7722TIP3    H244658   3.693   2.210   1.708  0.1453  0.3622 -0.0713
 7723TIP3   OH244659   4.586   4.303  14.763  0.4514 -0.1121 -0.9237
 7723TIP3    H144660   4.540   4.239  14.708 -2.6380  1.5173 -0.4332
 7723TIP3    H244661   4.534   4.383  14.755  0.7549  0.6685  3.0600
 7724TIP3   OH244662   2.602   3.563  15.926  0.1689 -0.7469 -0.3568
 7724TIP3    H144663   2.566   3.533  15.843 -0.9645 -0.9590  0.1898
 7724TIP3    H244664   2.530   3.611  15.967  1.6493  2.1013 -0.8455
 7725TIP3   OH244665   6.124   2.690  15.700 -0.3990 -0.1297  0.0241
 7725TIP3    H144666   6.183   2.738  15.643 -1.3480  1.5675  0.4123
 7725TIP3    H244667   6.062   2.646  15.641 -1.5511  1.8427 -0.3104
 7726TIP3   OH244668   5.871   5.567   5.632 -0.0671  0.0148 -0.1344
 7726TIP3    H144669   5.925   5.499   5.673  1.4645  0.2390 -1.7259
 7726TIP3    H244670   5.918   5.649   5.649 -1.2600  0.5698  0.6699
 7727TIP3   OH244671   0.148   0.602  10.444 -0.3026  0.1701  0.7633
 7727TIP3    H144672   0.130   0.517  10.402  0.3001  0.0444  0.7465
 7727TIP3    H244673   0.077   0.659  10.415 -0.5235 -0.2375  0.4975
 7728TIP3   OH244674   0.376   3.875   3.289 -0.5346 -0.4692  0.3878
 7728TIP3    H144675   0.354   3.945   3.350 -2.3737 -0.8170  0.2007
 7728TIP3    H244676   0.306   3.811   3.299 -0.4767 -0.9112 -1.4943
 7729TIP3   OH244677   5.588   2.982   0.379 -0.1948  0.2880 -0.3585
 7729TIP3    H144678   5.540   3.061   0.406 -0.3826  0.8885 -2.3410
 7729TIP3    H244679   5.647   2.965   0.453 -2.1686  0.5505  1.3947
 7730TIP3   OH244680   4.731   5.158   3.030  0.0381  0.2073  0.3359
 7730TIP3    H144681   4.816   5.181   3.067 -0.0652  1.3946 -0.1260
 7730TIP3    H244682   4.675   5.232   3.052 -0.1986  0.6539 -1.6263
 7731TIP3   OH244683   3.259   5.468  16.942 -0.0986  0.1329  0.3855
 7731TIP3    H144684   3.321   5.396  16.930 -0.5334 -0.4116  1.2480
 7731TIP3    H244685   3.184   5.444  16.888  0.1572  0.4341 -0.1026
 7732TIP3   OH244686   0.934   3.164   1.521  0.6454  0.2697  0.0824
 7732TIP3    H144687   0.972   3.241   1.479  0.9515  0.6069  0.9465
 7732TIP3    H244688   0.963   3.091   1.467 -1.1869  0.8583 -1.8616
 7733TIP3   OH244689   2.990   1.996  11.411 -0.9104  0.7564 -0.3490
 7733TIP3    H144690   3.043   1.943  11.471  1.3721  0.8535 -2.1521
 7733TIP3    H244691   3.001   2.085  11.443 -2.2018  0.5429  0.8171
 7734TIP3   OH244692   2.881   4.224   0.233  0.3451 -0.3193 -0.4640
 7734TIP3    H144693   2.931   4.172   0.170 -0.7192 -0.8849 -0.8625
 7734TIP3    H244694   2.900   4.315   0.209 -0.2632 -0.5173 -1.8169
 7735TIP3   OH244695   2.377   4.274  12.029 -0.1749 -0.4290  0.7308
 7735TIP3    H144696   2.449   4.213  12.045  0.6314  0.3204  0.0431
 7735TIP3    H244697   2.374   4.282  11.933  0.4435  1.4192  0.8408
 7736TIP3   OH244698   4.995   3.515  10.372 -0.1710  0.3638 -0.0224
 7736TIP3    H144699   5.062   3.583  10.388 -1.2463  1.4876 -0.1267
 7736TIP3    H244700   4.985   3.471  10.456  2.0676 -1.1433 -0.4638
 7737TIP3   OH244701   2.221   3.222  16.248 -0.6876 -0.0041 -1.1054
 7737TIP3    H144702   2.169   3.273  16.187 -1.2460 -0.9828 -1.4815
 7737TIP3    H244703   2.297   3.194  16.197  0.9900  2.5408 -0.1951
 7738TIP3   OH244704   5.074   3.433  14.850  0.4756 -1.1180  0.3114
 7738TIP3    H144705   5.073   3.476  14.935 -1.0586  1.2242 -0.7630
 7738TIP3    H244706   5.007   3.365  14.857 -1.9573  1.1023  0.1451
 7739TIP3   OH244707   6.113   6.586  14.037 -0.2469 -0.0010  0.1709
 7739TIP3    H144708   6.076   6.549  14.117 -1.2893 -1.0730 -0.7754
 7739TIP3    H244709   6.045   6.573  13.971  0.7538  0.5041 -0.9909
 7740TIP3   OH244710   0.985   5.817   3.911 -0.2708 -0.0637  0.1690
 7740TIP3    H144711   0.955   5.864   3.833 -3.9074 -0.3223  1.2311
 7740TIP3    H244712   1.032   5.883   3.962  2.7272 -0.0325 -2.3419
 7741TIP3   OH244713   3.471   0.626   0.206  0.2164  0.6686 -0.1513
 7741TIP3    H144714   3.552   0.642   0.254 -1.0615  1.0512  1.9888
 7741TIP3    H244715   3.468   0.531   0.196  1.4126  0.7182 -1.1934
 7742TIP3   OH244716   1.231   1.443  12.650  0.3347  0.3876 -0.3337
 7742TIP3    H144717   1.136   1.447  12.661  0.1821  1.6775 -1.7233
 7742TIP3    H244718   1.266   1.458  12.738 -0.7478  0.9974  0.0146
 7743TIP3   OH244719   4.212   0.491   0.186 -0.4317  0.2286  0.6564
 7743TIP3    H144720   4.221   0.407   0.231 -1.3718 -0.8026 -1.0135
 7743TIP3    H244721   4.123   0.520   0.207 -0.4250  0.3760  0.4789
 7744TIP3   OH244722   0.940   0.256  12.159 -0.0958  0.2471  0.0825
 7744TIP3    H144723   0.955   0.334  12.106  0.8967  0.0123 -0.0024
 7744TIP3    H244724   0.859   0.274  12.206  0.1972  1.3959  0.1729
 7745TIP3   OH244725   0.668   2.197   3.949  0.0680 -0.3503  0.6790
 7745TIP3    H144726   0.693   2.145   3.872 -0.9148 -1.8070  1.3061
 7745TIP3    H244727   0.751   2.229   3.984  0.6076 -0.4655 -0.4312
 7746TIP3   OH244728   3.302   2.464   5.167 -0.9793 -0.0127 -0.3236
 7746TIP3    H144729   3.259   2.527   5.225 -1.2550  0.8260 -1.4074
 7746TIP3    H244730   3.332   2.516   5.093  0.2412 -0.9049 -0.4840
 7747TIP3   OH244731   5.944   3.805  15.112 -0.1530 -0.2850 -0.1606
 7747TIP3    H144732   6.009   3.774  15.049 -1.2399  0.1210 -1.5285
 7747TIP3    H244733   5.860   3.779  15.075 -0.8004 -2.7528  2.6065
 7748TIP3   OH244734   2.221   0.794   0.242  0.3173  0.2159  0.2637
 7748TIP3    H144735   2.242   0.849   0.166 -3.8438 -0.8622 -1.9637
 7748TIP3    H244736   2.248   0.847   0.317 -1.8268  4.7830 -1.7359
 7749TIP3   OH244737   3.170   3.511  16.552 -0.1654  0.1824 -0.5766
 7749TIP3    H144738   3.182   3.429  16.599 -0.4105 -0.0239 -0.8657
 7749TIP3    H244739   3.177   3.579  16.619 -3.6846 -0.2167  0.3741
 7750TIP3   OH244740   4.813   5.299   0.710  0.4944  0.4433 -0.2980
 7750TIP3    H144741   4.750   5.326   0.642  1.4452  0.5508 -1.1530
 7750TIP3    H244742   4.836   5.209   0.686  1.2325  0.6653 -0.4197
 7751TIP3   OH244743   0.424   1.008  15.713  0.2194 -0.3855  0.1480
 7751TIP3    H144744   0.381   0.935  15.757  0.4524  0.5070  1.9567
 7751TIP3    H244745   0.462   0.970  15.634 -2.6329 -1.5108 -0.8108
 7752TIP3   OH244746   3.071   1.036  13.494 -0.4814  0.0627  0.5746
 7752TIP3    H144747   2.978   1.025  13.473 -0.2585  0.2709 -0.5918
 7752TIP3    H244748   3.072   1.059  13.587 -1.5436 -0.6785  0.7896
 7753TIP3   OH244749   6.566   3.683  15.707  0.0142 -0.2827 -0.3453
 7753TIP3    H144750   6.536   3.675  15.616 -1.6246 -0.9981  0.2186
 7753TIP3    H244751   6.539   3.601  15.748 -2.8898  1.5554  1.7552
 7754TIP3   OH244752   3.756   4.921   5.274  0.7134 -0.5158  0.1469
 7754TIP3    H144753   3.685   4.856   5.271 -0.0426  0.2906  0.1089
 7754TIP3    H244754   3.740   4.970   5.354 -0.4687  1.5059 -1.2332
 7755TIP3   OH244755   5.070   0.199  11.910 -0.3899  0.0441  0.1971
 7755TIP3    H144756   5.003   0.237  11.854  0.1336  0.4090 -0.1901
 7755TIP3    H244757   5.090   0.267  11.973  0.7241  0.5347 -0.6466
 7756TIP3   OH244758   4.250   1.165  16.913  0.2313  0.0312 -0.2977
 7756TIP3    H144759   4.306   1.088  16.927  1.3131  0.7839 -0.3103
 7756TIP3    H244760   4.231   1.197  17.001 -0.6072 -0.4996 -0.2753
 7757TIP3   OH244761   4.932   2.492   2.283 -0.0018  0.9421 -0.6497
 7757TIP3    H144762   5.023   2.490   2.313 -0.6372 -1.2344  1.4956
 7757TIP3    H244763   4.888   2.549   2.346 -0.8033 -1.3453  1.0260
 7758TIP3   OH244764   1.841   5.520   0.647  0.0662 -0.3632  0.2812
 7758TIP3    H144765   1.753   5.497   0.676  0.5166  0.1461  2.1732
 7758TIP3    H244766   1.830   5.603   0.601 -0.4700 -0.4037  0.3275
 7759TIP3   OH244767   3.755   2.109  11.326 -0.3914 -0.2495  0.3836
 7759TIP3    H144768   3.810   2.174  11.371 -0.4020 -1.1602  1.7549
 7759TIP3    H244769   3.733   2.151  11.243 -0.1512  1.3873  1.0984
 7760TIP3   OH244770   0.630   5.325   0.863  0.0069 -0.0263 -0.1327
 7760TIP3    H144771   0.699   5.314   0.930  0.6872 -0.2037 -0.8458
 7760TIP3    H244772   0.614   5.236   0.832 -1.3234 -0.1205  0.7779
 7761TIP3   OH244773   4.125   2.064  17.104 -0.3282 -0.0769  0.4206
 7761TIP3    H144774   4.140   2.129  17.172 -1.7660 -0.2494  0.9529
 7761TIP3    H244775   4.034   2.036  17.118 -0.6880 -0.0504 -1.6283
 7762TIP3   OH244776   4.138   0.371  16.881 -0.6588  0.3297 -0.0071
 7762TIP3    H144777   4.160   0.370  16.974  1.1296 -0.3269 -0.3912
 7762TIP3    H244778   4.073   0.440  16.872 -0.2089  0.9954  1.6014
 7763TIP3   OH244779   2.892   1.780   6.176  0.1266  0.0263  0.0207
 7763TIP3    H144780   2.888   1.866   6.218 -0.8329 -0.4025  0.8293
 7763TIP3    H244781   2.957   1.791   6.106 -1.3176  1.9340 -1.1232
 7764TIP3   OH244782   6.004   0.517   0.563 -0.1511  0.3255  0.3045
 7764TIP3    H144783   6.078   0.543   0.509 -0.4001  1.5753  0.5289
 7764TIP3    H244784   5.940   0.481   0.502 -0.4703  1.8109 -0.2967
 7765TIP3   OH244785   3.763   1.280  13.940 -0.1895 -0.2432 -0.0569
 7765TIP3    H144786   3.846   1.312  13.975 -1.7252  1.4347  2.3151
 7765TIP3    H244787   3.787   1.202  13.889  2.5411 -1.6415  3.0067
 7766TIP3   OH244788   3.418   6.006  11.381 -0.3969  0.2150 -0.6102
 7766TIP3    H144789   3.368   6.004  11.462  0.3907 -1.1067 -0.1147
 7766TIP3    H244790   3.470   5.925  11.383 -0.5378  0.0283 -2.5482
 7767TIP3   OH244791   3.193   1.898   3.142 -0.0240  0.7129 -0.0624
 7767TIP3    H144792   3.188   1.808   3.111  2.3937  0.8962 -1.2013
 7767TIP3    H244793   3.228   1.948   3.068 -0.8411  2.5164  0.6936
 7768TIP3   OH244794   4.072   0.328   5.243  0.1440 -0.4427 -0.0943
 7768TIP3    H144795   4.102   0.265   5.177  1.1277 -0.0119 -0.0688
 7768TIP3    H244796   4.081   0.413   5.201  3.9691  0.1989  1.6226
 7769TIP3   OH244797   1.517   0.622  13.772  0.1589 -0.0035  0.6984
 7769TIP3    H144798   1.492   0.576  13.692  0.2382 -1.0243  1.2468
 7769TIP3    H244799   1.611   0.634  13.764  0.5775 -2.1514  1.6208
 7770TIP3   OH244800   4.281   4.024   4.801 -0.1969  0.3681 -0.1495
 7770TIP3    H144801   4.287   4.080   4.723 -0.7304  0.6303 -0.0069
 7770TIP3    H244802   4.303   4.082   4.874 -0.8296  0.4191  0.0059
 7771TIP3   OH244803   0.569   0.006   4.863 -0.2186  0.5476  0.8094
 7771TIP3    H144804   0.492   0.015   4.920  1.1587  1.3956  2.6104
 7771TIP3    H244805   0.637   0.058   4.905  1.4465 -0.3737 -0.6099
 7772TIP3   OH244806   1.497   4.186   5.859  0.7582  0.9016 -0.1035
 7772TIP3    H144807   1.411   4.206   5.896 -0.0132  2.2351 -2.3755
 7772TIP3    H244808   1.505   4.246   5.784  3.3655  0.3022 -0.3937
 7773TIP3   OH244809   4.232   6.657   4.906 -0.2656 -0.4167 -0.5337
 7773TIP3    H144810   4.213   6.747   4.879 -2.7102 -1.2237 -1.8242
 7773TIP3    H244811   4.228   6.659   5.002  0.0443  0.8862 -0.5319
 7774TIP3   OH244812   3.360   4.846   3.297 -0.1850 -0.5041 -0.3573
 7774TIP3    H144813   3.366   4.759   3.257  1.1684 -0.0459 -1.2201
 7774TIP3    H244814   3.378   4.830   3.390  1.1373 -1.0318 -0.6804
 7775TIP3   OH244815   3.640   6.086   3.454  0.5807 -0.0001  0.0585
 7775TIP3    H144816   3.694   6.009   3.440  1.4450  0.8377 -1.4005
 7775TIP3    H244817   3.682   6.155   3.403 -1.0242  1.0643  0.0973
 7776TIP3   OH244818   0.433   1.393  15.887 -0.0474  0.0945  0.2485
 7776TIP3    H144819   0.473   1.418  15.971  2.3141  1.1559 -1.0956
 7776TIP3    H244820   0.505   1.394  15.825 -2.0362  1.3528 -2.2328
 7777TIP3   OH244821   3.477   0.444  15.155  0.1442 -0.1366  0.3825
 7777TIP3    H144822   3.464   0.447  15.060  1.9319  2.3778  0.0968
 7777TIP3    H244823   3.443   0.528  15.187  2.4878  0.5328  1.4166
 7778TIP3   OH244824   6.168   6.315   1.127  0.6749  0.2903  1.0450
 7778TIP3    H144825   6.236   6.252   1.106  0.9035  0.6728  0.6095
 7778TIP3    H244826   6.214   6.398   1.137  0.1629  0.7589 -0.2888
 7779TIP3   OH244827   2.834   4.432  11.585  0.0112  0.2278 -0.4089
 7779TIP3    H144828   2.810   4.520  11.557  0.3334  0.2561 -0.5947
 7779TIP3    H244829   2.779   4.374  11.532 -0.2137  0.3141 -0.2735
 7780TIP3   OH244830   4.878   4.573   6.517 -0.0453  0.5858 -0.3535
 7780TIP3    H144831   4.928   4.511   6.570  2.2276  1.4155 -1.3846
 7780TIP3    H244832   4.879   4.535   6.429  1.1574  1.8675 -0.9455
 7781TIP3   OH244833   2.252   2.180  10.548 -0.2759  0.0267 -0.4868
 7781TIP3    H144834   2.168   2.184  10.593  0.5278  0.2563  1.0875
 7781TIP3    H244835   2.238   2.118  10.477 -2.0559  0.8882 -0.9464
 7782TIP3   OH244836   1.424   3.746   0.847  0.7736  0.3009 -0.5174
 7782TIP3    H144837   1.503   3.718   0.802  1.3140  0.5378  0.2639
 7782TIP3    H244838   1.364   3.672   0.840  1.3487 -0.1735 -0.4428
 7783TIP3   OH244839   3.669   2.894  11.900 -0.7929 -0.8472 -0.1950
 7783TIP3    H144840   3.602   2.826  11.887  0.8867 -2.4816 -0.8573
 7783TIP3    H244841   3.713   2.868  11.981 -1.1957  0.4382  0.4518
 7784TIP3   OH244842   1.606   4.171   0.537  0.2524 -0.6010 -0.1955
 7784TIP3    H144843   1.533   4.197   0.593  0.3433 -2.5104  0.8773
 7784TIP3    H244844   1.603   4.076   0.535  1.3449 -0.6494 -2.0299
 7785TIP3   OH244845   4.002   2.693  13.237 -0.0127  0.0861  0.0513
 7785TIP3    H144846   4.020   2.600  13.219  0.8554  0.3388 -0.4195
 7785TIP3    H244847   3.932   2.716  13.176  0.8711  0.1510 -0.9560
 7786TIP3   OH244848   2.672   0.887   3.674 -0.1173 -0.2691 -0.1498
 7786TIP3    H144849   2.705   0.959   3.729 -1.5627  1.7219 -1.7400
 7786TIP3    H244850   2.745   0.867   3.615  0.3029 -0.1576  0.3162
 7787TIP3   OH244851   5.192   5.468   5.090 -0.1634 -0.2983  0.0464
 7787TIP3    H144852   5.111   5.519   5.094 -0.9766 -1.4146 -1.1078
 7787TIP3    H244853   5.232   5.478   5.177 -0.1507  2.4244 -0.2100
 7788TIP3   OH244854   5.467   1.426  15.593 -0.2190  0.0567 -0.2732
 7788TIP3    H144855   5.371   1.432  15.594 -0.4368 -2.2373 -0.9415
 7788TIP3    H244856   5.494   1.469  15.674 -1.9956 -1.1265  1.0495
 7789TIP3   OH244857   1.698   3.543  13.663 -0.3062  0.1944 -0.0755
 7789TIP3    H144858   1.606   3.517  13.660  0.3624 -2.5156  0.0111
 7789TIP3    H244859   1.727   3.538  13.572  0.0830 -0.4560  0.0749
 7790TIP3   OH244860   5.958   2.063  14.648  0.8308  0.0137 -0.2856
 7790TIP3    H144861   5.913   2.104  14.723 -0.5897 -0.8556 -0.6216
 7790TIP3    H244862   5.945   1.969  14.660  2.9913 -0.3228 -0.1811
 7791TIP3   OH244863   4.060   4.758   1.922 -0.1825  0.4641  0.5107
 7791TIP3    H144864   3.969   4.739   1.903 -0.5357 -0.3582  2.6894
 7791TIP3    H244865   4.068   4.852   1.911 -1.4194  0.6098  0.7291
 7792TIP3   OH244866   2.954   5.122  12.854  0.0887 -0.0786  0.2938
 7792TIP3    H144867   3.030   5.174  12.880  0.8141 -0.4825 -0.9211
 7792TIP3    H244868   2.950   5.051  12.918 -0.2734  0.8422  1.3324
 7793TIP3   OH244869   2.044   1.910   0.717  0.0157  0.3692 -0.6589
 7793TIP3    H144870   2.108   1.844   0.690 -0.6312 -0.9163  0.7704
 7793TIP3    H244871   2.096   1.988   0.736  1.0538 -0.3542 -0.4494
 7794TIP3   OH244872   5.447   5.549  14.018 -0.7134  0.0934  0.1385
 7794TIP3    H144873   5.395   5.533  13.939 -2.2695 -2.3734  1.4995
 7794TIP3    H244874   5.390   5.602  14.073  0.1364  1.3196 -0.1452
 7795TIP3   OH244875   0.371   4.390   0.245 -0.2951 -0.2348 -0.2717
 7795TIP3    H144876   0.329   4.473   0.219  0.3964  0.4481  0.7351
 7795TIP3    H244877   0.430   4.370   0.172  1.0387  1.2435  0.3454
 7796TIP3   OH244878   2.514   3.838   0.588  0.2882 -0.5490  0.1041
 7796TIP3    H144879   2.597   3.859   0.545  0.2074 -1.4219 -0.5070
 7796TIP3    H244880   2.452   3.902   0.554  0.8432  0.5612  1.0995
 7797TIP3   OH244881   1.701   4.047  14.691  0.5562 -0.0450 -0.0915
 7797TIP3    H144882   1.655   3.963  14.701 -0.6842  0.6736  0.3406
 7797TIP3    H244883   1.772   4.043  14.754  0.3159 -0.6430  0.1511
 7798TIP3   OH244884   3.558   4.236  15.035 -0.3035  0.1858 -0.2832
 7798TIP3    H144885   3.604   4.227  15.118 -1.0372  0.6176  0.1778
 7798TIP3    H244886   3.547   4.331  15.024  0.9769  0.2334 -1.5474
 7799TIP3   OH244887   2.609   3.315   5.696 -0.4737  0.2801 -0.1182
 7799TIP3    H144888   2.591   3.288   5.786 -0.6659  2.4920  0.5775
 7799TIP3    H244889   2.676   3.254   5.665 -0.3729 -0.5041  1.5332
 7800TIP3   OH244890   4.707   6.397  11.391  0.2322 -0.3085 -0.4911
 7800TIP3    H144891   4.769   6.412  11.463  0.5145 -1.6378 -0.4421
 7800TIP3    H244892   4.694   6.484  11.354  0.1246  0.4007  1.1181
 7801TIP3   OH244893   1.614   5.183   1.995  0.1980 -0.2658  0.3618
 7801TIP3    H144894   1.689   5.240   2.012 -0.0582  0.1784  0.0124
 7801TIP3    H244895   1.632   5.143   1.910 -0.1392  0.1386  0.0952
 7802TIP3   OH244896   3.593   4.258  13.139 -0.1873  0.0844  0.0103
 7802TIP3    H144897   3.649   4.297  13.206  0.0920  0.2853 -0.3325
 7802TIP3    H244898   3.577   4.330  13.078  1.9306 -0.7610 -1.6836
 7803TIP3   OH244899   5.872   3.925   6.483  0.3095 -0.4135 -0.0067
 7803TIP3    H144900   5.860   3.961   6.395 -1.9964  0.6500  0.6821
 7803TIP3    H244901   5.846   3.833   6.475  2.5938 -1.0747 -0.9224
 7804TIP3   OH244902   5.141   3.036   1.434  0.1640  0.1121  0.7225
 7804TIP3    H144903   5.103   3.124   1.438 -0.8451 -0.1272 -1.5696
 7804TIP3    H244904   5.076   2.980   1.475 -0.2435  0.1884  0.2030
 7805TIP3   OH244905   0.371   0.027   4.627  0.0615  0.8971  0.2133
 7805TIP3    H144906   0.412   0.092   4.570  1.3160  1.5645  1.7870
 7805TIP3    H244907   0.440   0.002   4.689 -1.2851  0.4067  1.5867
 7806TIP3   OH244908   3.731   6.299  12.684 -0.5456  0.4582  0.4407
 7806TIP3    H144909   3.677   6.233  12.728 -2.4266  1.5873 -0.0661
 7806TIP3    H244910   3.821   6.274  12.705 -1.0775 -2.8588 -0.5501
 7807TIP3   OH244911   0.076   3.190  10.400  0.3363  0.4485  0.2393
 7807TIP3    H144912   0.029   3.115  10.363  0.6351  0.0913  0.5912
 7807TIP3    H244913   0.007   3.245  10.438  0.1836  0.0158  0.5892
 7808TIP3   OH244914   5.226   0.532   1.261  0.1835 -0.0613  0.4241
 7808TIP3    H144915   5.239   0.527   1.356 -0.2480  2.2404  0.6626
 7808TIP3    H244916   5.311   0.559   1.227 -0.1064  0.7719  0.3528
 7809TIP3   OH244917   1.052   2.751  13.056  0.1384  0.0129  0.1148
 7809TIP3    H144918   1.019   2.724  13.142  0.2705 -0.5177 -0.0020
 7809TIP3    H244919   1.066   2.669  13.008 -0.7171  0.3326 -0.7078
 7810TIP3   OH244920   3.392   4.453   5.892 -0.0404  0.2759 -0.1813
 7810TIP3    H144921   3.460   4.428   5.955  0.5210  2.0486 -0.0370
 7810TIP3    H244922   3.310   4.423   5.932  0.4968 -0.3731  0.4525
 7811TIP3   OH244923   4.254   4.053  10.607  0.4279 -0.2100 -0.3553
 7811TIP3    H144924   4.270   3.968  10.566  0.1157  0.3693 -1.7385
 7811TIP3    H244925   4.308   4.115  10.556  2.7687  0.1132  2.2409
 7812TIP3   OH244926   1.158   5.663  14.349  0.0139  0.0312  0.4438
 7812TIP3    H144927   1.239   5.620  14.376  0.3571  1.0339  1.0712
 7812TIP3    H244928   1.187   5.734  14.290 -0.5387 -0.5778 -0.5926
 7813TIP3   OH244929   3.481   0.735   5.666 -0.1522 -0.6588 -0.3204
 7813TIP3    H144930   3.557   0.748   5.609 -1.5004  1.6720 -1.7308
 7813TIP3    H244931   3.477   0.640   5.678  2.1599 -0.9631 -1.3236
 7814TIP3   OH244932   1.312   1.751   4.484 -0.2326 -0.0941 -0.6848
 7814TIP3    H144933   1.330   1.812   4.555  1.4081 -0.8229 -0.4396
 7814TIP3    H244934   1.346   1.667   4.515 -1.8708 -1.0204 -1.2780
 7815TIP3   OH244935   1.931   2.652   5.467  0.5008 -0.2699  0.3881
 7815TIP3    H144936   1.998   2.674   5.403  1.7961 -0.8526  1.4916
 7815TIP3    H244937   1.922   2.557   5.461  2.1045 -0.6185  2.3775
 7816TIP3   OH244938   1.152   2.135   0.462 -0.1839  0.1477 -0.7279
 7816TIP3    H144939   1.087   2.153   0.530 -0.9854 -0.1569 -1.4028
 7816TIP3    H244940   1.236   2.152   0.505 -0.7370  1.8823 -0.2347
 7817TIP3   OH244941   0.460   0.180  15.434  0.2534 -0.5906  0.4103
 7817TIP3    H144942   0.400   0.143  15.369 -0.2241  1.4311 -0.3468
 7817TIP3    H244943   0.487   0.104  15.486  0.6313 -2.3092 -2.0937
 7818TIP3   OH244944   2.564   4.547  16.171  0.3255 -0.2122 -0.4690
 7818TIP3    H144945   2.536   4.638  16.156 -1.0070 -0.6521 -0.7854
 7818TIP3    H244946   2.500   4.494  16.122  0.6788 -1.3446  0.2664
 7819TIP3   OH244947   0.729   5.125  13.262 -0.6578  1.1972 -0.4521
 7819TIP3    H144948   0.763   5.184  13.329  1.0534 -2.3688  2.1141
 7819TIP3    H244949   0.786   5.138  13.187  2.7164 -0.2181  1.6589
 7820TIP3   OH244950   0.977   4.294   1.651  0.1973 -0.0160 -0.2387
 7820TIP3    H144951   0.909   4.228   1.638  0.4024 -0.3197  0.1879
 7820TIP3    H244952   1.011   4.277   1.739 -0.3412  1.2111  0.2329
 7821TIP3   OH244953   6.181   1.284  12.546  0.0646 -0.2221 -0.4541
 7821TIP3    H144954   6.177   1.379  12.556  1.2567 -0.1299 -0.6716
 7821TIP3    H244955   6.226   1.271  12.462  0.0999 -0.9849 -0.3229
 7822TIP3   OH244956   1.665   1.731   1.481  0.4842  0.0178 -0.1095
 7822TIP3    H144957   1.631   1.790   1.548 -0.2383 -0.2453 -0.2392
 7822TIP3    H244958   1.647   1.643   1.516  1.9678 -0.1549  0.3066
 7823TIP3   OH244959   0.411   2.264   2.374 -0.1343 -0.0614 -0.0855
 7823TIP3    H144960   0.481   2.202   2.357  0.6600  0.7660  0.0632
 7823TIP3    H244961   0.348   2.248   2.304 -0.9630 -2.3934  1.0984
 7824TIP3   OH244962   1.555   2.436   0.121 -0.1668  0.7648 -0.6641
 7824TIP3    H144963   1.604   2.409   0.044 -0.3864  1.3674 -1.0123
 7824TIP3    H244964   1.463   2.430   0.095 -0.4366 -2.1183  0.5229
 7825TIP3   OH244965   5.193   0.964  13.788  0.0816 -0.2645  0.3885
 7825TIP3    H144966   5.278   0.964  13.744 -0.1191 -0.9862 -0.0213
 7825TIP3    H244967   5.209   1.007  13.872  0.6560  0.3813 -0.0429
 7826TIP3   OH244968   1.708   0.659  16.173  0.4765 -0.4235  0.1048
 7826TIP3    H144969   1.761   0.697  16.243  0.6008 -0.4854  0.0436
 7826TIP3    H244970   1.675   0.735  16.124  0.0763 -0.3666  0.4608
 7827TIP3   OH244971   3.606   3.533   2.117 -0.6013  0.0731 -0.8521
 7827TIP3    H144972   3.567   3.475   2.183  0.8001  0.9490  0.8233
 7827TIP3    H244973   3.563   3.507   2.035 -1.5269 -1.8976  0.1638
 7828TIP3   OH244974   6.508   2.960  15.076 -0.3954  0.2692  0.1843
 7828TIP3    H144975   6.529   2.889  15.136  0.4834 -0.0460 -0.4683
 7828TIP3    H244976   6.506   3.039  15.131  2.1996  0.2763  0.3973
 7829TIP3   OH244977   0.898   1.069   5.747  0.3752 -0.3084  0.5689
 7829TIP3    H144978   0.819   1.015   5.755  1.6126 -2.7380 -1.8132
 7829TIP3    H244979   0.941   1.036   5.668  3.3996  1.4407  1.3428
 7830TIP3   OH244980   6.423   4.898  14.067  0.1040  0.1669  0.1135
 7830TIP3    H144981   6.472   4.973  14.102  0.0760  1.1250 -1.7443
 7830TIP3    H244982   6.461   4.884  13.980 -2.2639  0.3675 -1.0370
 7831TIP3   OH244983   5.099   6.258   4.323 -0.8285  0.6063 -0.1936
 7831TIP3    H144984   5.082   6.298   4.237  1.2196  0.3052 -0.8042
 7831TIP3    H244985   5.163   6.189   4.305  0.1407  0.9453  1.6380
 7832TIP3   OH244986   1.047   2.381  12.596  0.7809  0.0934  0.4322
 7832TIP3    H144987   0.992   2.317  12.552 -0.8454  0.9138  1.1687
 7832TIP3    H244988   1.027   2.464  12.551  1.5963  0.3622  0.5594
 7833TIP3   OH244989   2.099   5.868  16.026 -0.1103  0.2958  0.0309
 7833TIP3    H144990   2.142   5.953  16.038  0.4912  0.2938 -1.7775
 7833TIP3    H244991   2.040   5.881  15.952  0.5363 -1.0394 -0.7464
 7834TIP3   OH244992   6.397   1.604   1.021 -0.0323 -0.1194  0.0113
 7834TIP3    H144993   6.349   1.552   1.086 -0.6585 -0.3683 -0.6338
 7834TIP3    H244994   6.382   1.695   1.048  1.0505 -0.2448  1.1292
 7835TIP3   OH244995   4.579   0.588   2.287 -0.3956 -0.4761  0.4826
 7835TIP3    H144996   4.591   0.518   2.352  0.3983 -2.2735 -1.4869
 7835TIP3    H244997   4.521   0.550   2.221  1.0880  0.2228 -1.2962
 7836TIP3   OH244998   1.615   4.611  14.411  0.2186 -0.0586  0.4074
 7836TIP3    H144999   1.617   4.621  14.316  1.6816 -0.9502  0.3148
 7836TIP3    H245000   1.628   4.700  14.445  3.3974 -0.1141 -0.2968
 7837TIP3   OH245001   1.504   0.252  16.002  0.4193 -0.1529  0.4134
 7837TIP3    H145002   1.484   0.163  16.030 -3.0322  0.6477  0.9150
 7837TIP3    H245003   1.496   0.249  15.906 -0.9044 -0.1563  0.5135
 7838TIP3   OH245004   2.061   5.205  12.772 -0.5670  0.0450 -0.2881
 7838TIP3    H145005   1.979   5.254  12.763 -1.3778 -0.9558  1.1851
 7838TIP3    H245006   2.080   5.174  12.684 -1.5141  0.7033 -0.7436
 7839TIP3   OH245007   3.444   2.123   2.124 -0.6071  0.5891  0.0465
 7839TIP3    H145008   3.479   2.185   2.060 -0.9281 -0.3010 -1.0165
 7839TIP3    H245009   3.477   2.038   2.096  2.2653  0.4690  3.1109
 7840TIP3   OH245010   2.692   2.226  17.106  0.3846  0.2307 -0.2143
 7840TIP3    H145011   2.660   2.313  17.081 -0.6964 -0.1407 -0.1894
 7840TIP3    H245012   2.619   2.167  17.087  0.7274 -0.5298  0.7142
 7841TIP3   OH245013   4.374   2.771   0.519  0.1509  0.1430  0.3023
 7841TIP3    H145014   4.383   2.690   0.470  0.5255  0.9842 -1.0599
 7841TIP3    H245015   4.281   2.792   0.514  0.2097  0.3022 -0.1986
 7842TIP3   OH245016   2.013   5.822  14.212 -0.4992 -0.0396  0.3022
 7842TIP3    H145017   2.026   5.730  14.235 -0.2733 -0.6210 -1.9608
 7842TIP3    H245018   1.941   5.822  14.149  0.2539  1.1698 -0.6063
 7843TIP3   OH245019   6.430   1.939   4.832  0.0944 -0.2935 -0.1745
 7843TIP3    H145020   6.486   1.870   4.796  1.9578 -0.1621  2.1965
 7843TIP3    H245021   6.358   1.893   4.873  0.7516 -0.7945  0.4494
 7844TIP3   OH245022   3.506   0.611   2.969  0.1713 -0.6459 -0.2096
 7844TIP3    H145023   3.519   0.516   2.966  0.7221 -0.6608  1.5075
 7844TIP3    H245024   3.588   0.647   2.936  1.5200 -0.8032  2.6645
 7845TIP3   OH245025   3.961   1.621   4.088  0.1011 -0.1437 -0.4471
 7845TIP3    H145026   3.918   1.703   4.113  0.1506 -0.4289  0.6473
 7845TIP3    H245027   3.894   1.554   4.098 -0.0947 -0.1776 -1.8788
 7846TIP3   OH245028   5.380   0.600  15.040  0.1177  0.0231 -0.1869
 7846TIP3    H145029   5.380   0.666  14.971  0.0831 -1.1013 -1.2888
 7846TIP3    H245030   5.292   0.606  15.078 -0.6945 -0.9519 -1.8423
 7847TIP3   OH245031   5.206   0.121   3.805 -0.1586  0.1084  0.1320
 7847TIP3    H145032   5.268   0.192   3.787 -0.2184  0.0741 -0.2052
 7847TIP3    H245033   5.189   0.082   3.720 -0.4825 -0.0179  0.2557
 7848TIP3   OH245034   5.869   2.782  10.974 -0.3680  0.0020 -0.1069
 7848TIP3    H145035   5.781   2.812  10.949  0.2801  0.9148 -1.4432
 7848TIP3    H245036   5.904   2.743  10.893  0.7537  0.4159  0.1612
 7849TIP3   OH245037   6.231   5.197  11.750 -0.1329  0.5146 -0.3687
 7849TIP3    H145038   6.255   5.241  11.669 -0.3770  0.1924 -0.6175
 7849TIP3    H245039   6.180   5.121  11.722 -0.6826  0.7023  0.1166
 7850TIP3   OH245040   0.824   0.202  15.035 -0.0251  0.3107 -0.3637
 7850TIP3    H145041   0.785   0.139  15.096  1.2043  0.6606  0.8431
 7850TIP3    H245042   0.784   0.285  15.058  1.4261  0.7002  0.9853
 7851TIP3   OH245043   3.128   5.862  17.074 -0.0252 -0.2077 -0.0571
 7851TIP3    H145044   3.114   5.822  17.160  2.1765 -0.6005  0.1883
 7851TIP3    H245045   3.045   5.905  17.053 -0.4998  0.2115  2.4272
 7852TIP3   OH245046   3.509   4.464  15.962 -0.0043 -0.1364 -0.4863
 7852TIP3    H145047   3.601   4.439  15.960  0.2585  0.5629  1.3790
 7852TIP3    H245048   3.468   4.408  15.895  2.2122  1.6484 -3.6235
 7853TIP3   OH245049   4.356   1.343  13.573  0.6789  0.2059 -0.0774
 7853TIP3    H145050   4.268   1.362  13.604 -0.2445 -1.7563 -1.3403
 7853TIP3    H245051   4.345   1.275  13.507  2.7737  2.5151 -3.0741
 7854TIP3   OH245052   5.914   2.824  12.975 -0.3895  0.1457  0.2778
 7854TIP3    H145053   5.977   2.787  13.037  0.4768  1.6364  0.3507
 7854TIP3    H245054   5.948   2.800  12.889 -0.1022  0.3523  0.3320
 7855TIP3   OH245055   3.491   4.619   2.833 -0.2978  0.4197  0.3613
 7855TIP3    H145056   3.469   4.532   2.800 -0.2651  0.1354  1.0701
 7855TIP3    H245057   3.538   4.661   2.761  0.5381 -0.4969  0.3531
 7856TIP3   OH245058   1.259   1.440  17.087 -0.2804 -0.7610  0.9187
 7856TIP3    H145059   1.330   1.501  17.104 -1.5990  1.0907  0.0470
 7856TIP3    H245060   1.300   1.368  17.039  0.8161  0.8252 -0.6353
 7857TIP3   OH245061   6.335   4.549   0.031 -0.3555 -0.3417  0.2356
 7857TIP3    H145062   6.420   4.577  -0.004  0.0816 -0.3103  1.2942
 7857TIP3    H245063   6.341   4.565   0.125 -0.4438 -3.0406  0.7912
 7858TIP3   OH245064   3.098   6.537  14.836  0.1938 -0.2919  0.2515
 7858TIP3    H145065   3.080   6.507  14.747 -0.4054  2.8149 -0.8016
 7858TIP3    H245066   3.017   6.519  14.884  0.6449 -2.3197  0.3460
 7859TIP3   OH245067   5.999   5.298  14.743  0.1231 -0.2990  0.3255
 7859TIP3    H145068   5.938   5.365  14.710  1.0316  0.4600  0.1563
 7859TIP3    H245069   6.059   5.345  14.799 -0.2340 -1.2786  1.5797
 7860TIP3   OH245070   1.834   3.375   5.282 -0.2026  0.2743 -0.4866
 7860TIP3    H145071   1.862   3.406   5.368 -0.5819  1.3428 -0.7428
 7860TIP3    H245072   1.871   3.287   5.276  2.2490  1.2361 -0.4260
 7861TIP3   OH245073   4.526   0.486   3.475  0.4088  0.5730  0.1397
 7861TIP3    H145074   4.458   0.551   3.459  0.1466  0.1262 -0.6364
 7861TIP3    H245075   4.598   0.535   3.514  0.6119  1.5197 -1.3591
 7862TIP3   OH245076   6.244   1.000  15.917 -0.1221  0.1811  0.5182
 7862TIP3    H145077   6.234   0.975  16.008  0.2546  1.6246  0.9721
 7862TIP3    H245078   6.337   0.986  15.898 -0.5367 -1.9760 -0.2572
 7863TIP3   OH245079   1.435   0.585  17.093  0.1719  0.3731  0.1797
 7863TIP3    H145080   1.450   0.679  17.082 -1.6940  0.5377 -1.7281
 7863TIP3    H245081   1.340   0.578  17.104 -0.4345 -1.4554 -4.1010
 7864TIP3   OH245082   6.794   6.626   5.622 -0.2809 -0.5440  0.9236
 7864TIP3    H145083   6.855   6.661   5.687 -0.8543  0.2757  1.0359
 7864TIP3    H245084   6.793   6.691   5.552  2.4771 -2.6562 -1.3423
 7865TIP3   OH245085   2.479   2.115  12.901  0.0403 -0.2272  0.1026
 7865TIP3    H145086   2.490   2.067  12.983 -0.3902 -0.7712 -0.1519
 7865TIP3    H245087   2.398   2.080  12.863  0.4376 -0.2685 -0.7379
 7866TIP3   OH245088   1.636   3.685  14.984  0.0755  0.1969  0.0664
 7866TIP3    H145089   1.583   3.608  15.001  0.8015 -1.0885 -2.7738
 7866TIP3    H245090   1.586   3.758  15.020 -0.3645 -1.5810  3.3854
 7867TIP3   OH245091   3.468   4.353   2.692 -0.0020  0.1435  0.4120
 7867TIP3    H145092   3.538   4.403   2.651 -0.5780 -0.9457 -2.1464
 7867TIP3    H245093   3.507   4.268   2.712 -0.2571 -0.0668  0.0509
 7868TIP3   OH245094   4.588   0.952   5.718  0.4701 -0.3181  0.3525
 7868TIP3    H145095   4.533   1.004   5.659  1.1940  0.1235  0.0618
 7868TIP3    H245096   4.568   0.986   5.805 -0.3900 -0.7796  0.3516
 7869TIP3   OH245097   6.143   1.056   2.207  0.3118 -0.0039  0.0588
 7869TIP3    H145098   6.092   1.073   2.128  0.0637  3.1200  0.7407
 7869TIP3    H245099   6.219   1.007   2.177  0.1154  0.8933 -2.1002
 7870TIP3   OH245100   5.397   2.016  16.941 -0.4039 -0.3056 -0.0079
 7870TIP3    H145101   5.334   2.008  16.870 -0.3678  3.3647 -0.6615
 7870TIP3    H245102   5.351   2.066  17.008  0.8573 -0.2179  0.8264
 7871TIP3   OH245103   0.159   3.525  14.616 -0.2455 -0.4567 -0.5708
 7871TIP3    H145104   0.183   3.455  14.556 -0.0155 -0.7402 -0.1521
 7871TIP3    H245105   0.068   3.507  14.639  0.0267 -1.0405  0.0992
 7872TIP3   OH245106   2.867   5.736  11.633 -0.1848  0.0832 -0.0224
 7872TIP3    H145107   2.809   5.792  11.683  0.0099  1.3725 -1.1911
 7872TIP3    H245108   2.946   5.788  11.619  0.0340 -0.4884 -1.0772
 7873TIP3   OH245109   4.355   4.173   5.073 -0.5625 -0.2335 -0.5498
 7873TIP3    H145110   4.291   4.152   5.141  0.5061  0.0158  0.5482
 7873TIP3    H245111   4.433   4.123   5.097  1.2773  3.0189  0.8392
 7874TIP3   OH245112   3.492   0.572   1.803 -0.0194 -0.8663  0.1136
 7874TIP3    H145113   3.463   0.541   1.717  1.0694 -0.0688 -0.5585
 7874TIP3    H245114   3.474   0.498   1.862 -0.2214 -1.6450 -0.8999
 7875TIP3   OH245115   1.786   3.318   1.133 -0.2989  0.3016 -0.0769
 7875TIP3    H145116   1.782   3.260   1.057  2.5547  1.5989 -1.3449
 7875TIP3    H245117   1.766   3.405   1.099  1.0451  0.9037  0.5919
 7876TIP3   OH245118   6.669   5.182  11.047  0.7360  0.2020  0.1579
 7876TIP3    H145119   6.724   5.107  11.027  2.4357  1.1646  0.9637
 7876TIP3    H245120   6.723   5.258  11.026 -0.1392  1.2069  1.3448
 7877TIP3   OH245121   6.200   3.631   2.728 -0.0826 -0.4855 -0.0582
 7877TIP3    H145122   6.139   3.666   2.662 -0.4689 -1.8916 -0.4969
 7877TIP3    H245123   6.284   3.626   2.683 -0.1823 -0.7490 -0.2202
 7878TIP3   OH245124   2.033   0.703   2.712  0.3573  0.1957  0.7464
 7878TIP3    H145125   2.109   0.755   2.687  2.0721 -1.5875  1.9280
 7878TIP3    H245126   2.042   0.621   2.663 -1.0664  0.1247  0.5560
 7879TIP3   OH245127   5.828   4.508  13.399 -0.4952  0.1739 -0.7644
 7879TIP3    H145128   5.830   4.604  13.399  2.5408  0.2285  0.9039
 7879TIP3    H245129   5.750   4.486  13.348 -1.0651  3.5003 -1.5747
 7880TIP3   OH245130   4.362   6.451  14.927  0.9783 -0.0810  0.0468
 7880TIP3    H145131   4.310   6.428  15.004 -0.7187  1.3331 -0.5952
 7880TIP3    H245132   4.451   6.457  14.959  0.7221 -2.1618  1.3039
 7881TIP3   OH245133   5.723   1.662  13.429 -0.2932 -0.0999  0.3544
 7881TIP3    H145134   5.818   1.665  13.442 -0.0507 -1.1215 -0.9343
 7881TIP3    H245135   5.688   1.727  13.490  1.2496  0.5055  0.6398
 7882TIP3   OH245136   6.673   0.128  13.487  0.1485 -0.7547 -0.1832
 7882TIP3    H145137   6.750   0.182  13.468  0.8784 -0.8572  2.1486
 7882TIP3    H245138   6.668   0.068  13.413  2.8337 -1.2615 -0.0741
 7883TIP3   OH245139   6.202   5.970  16.752 -0.0818  0.0006  0.2039
 7883TIP3    H145140   6.205   5.894  16.695 -0.7733 -0.7832  1.1790
 7883TIP3    H245141   6.280   6.021  16.728 -0.9383  0.2891 -2.1964
 7884TIP3   OH245142   4.730   1.273  11.370 -0.1839  0.1508 -0.0061
 7884TIP3    H145143   4.759   1.310  11.454  0.3404 -1.9806  0.8452
 7884TIP3    H245144   4.636   1.261  11.381 -0.8724  3.3979 -1.2614
 7885TIP3   OH245145   1.265   1.552   2.542  0.7806 -0.3664  0.6813
 7885TIP3    H145146   1.307   1.595   2.617 -0.3123  0.3422  0.9284
 7885TIP3    H245147   1.305   1.593   2.465  0.9478 -0.1106  0.9016
 7886TIP3   OH245148   2.148   3.487  11.773 -0.3776  0.2649 -0.3166
 7886TIP3    H145149   2.190   3.404  11.797  0.7379  1.1327  0.8678
 7886TIP3    H245150   2.137   3.481  11.678  1.9424 -0.2759 -0.6201
 7887TIP3   OH245151   6.373   3.627   3.846 -0.4457  0.0001 -0.1581
 7887TIP3    H145152   6.419   3.709   3.864 -0.4045  0.4088 -1.9481
 7887TIP3    H245153   6.401   3.568   3.916 -0.2747  1.4131  1.0254
 7888TIP3   OH245154   6.484   5.697  14.666 -0.0348 -0.6055  0.7292
 7888TIP3    H145155   6.417   5.688  14.734  0.5265 -1.7817  1.1654
 7888TIP3    H245156   6.484   5.612  14.622  0.6751 -0.3735  0.2652
 7889TIP3   OH245157   5.083   4.693  14.406  0.0523  0.2180  0.6068
 7889TIP3    H145158   5.160   4.636  14.416  0.3792  0.1352 -1.7489
 7889TIP3    H245159   5.098   4.764  14.468  1.4589 -0.4001  1.0255
 7890TIP3   OH245160   1.431   0.220  15.701  0.0258  0.3571 -0.3368
 7890TIP3    H145161   1.352   0.272  15.688 -0.1326 -0.0987 -1.2667
 7890TIP3    H245162   1.424   0.149  15.636  0.1046 -0.9784  1.0627
 7891TIP3   OH245163   2.086   0.746  16.127  0.2095  0.0340 -0.3286
 7891TIP3    H145164   2.015   0.782  16.074 -0.4929  0.4423  0.8528
 7891TIP3    H245165   2.136   0.823  16.155  0.6079 -0.1835 -0.4313
 7892TIP3   OH245166   1.487   2.141   3.975  0.2311  0.1086  0.1872
 7892TIP3    H145167   1.436   2.161   3.897 -0.5794  2.2319  1.1841
 7892TIP3    H245168   1.450   2.197   4.043  1.8284 -0.6382  1.7612
 7893TIP3   OH245169   4.831   5.245  14.068  0.2228 -0.1372  0.1200
 7893TIP3    H145170   4.748   5.273  14.106  0.5139  1.2501 -0.2110
 7893TIP3    H245171   4.828   5.149  14.073 -1.6685 -0.1576 -0.4772
 7894TIP3   OH245172   4.651   5.651  15.650  0.3196  0.3363  0.3070
 7894TIP3    H145173   4.695   5.734  15.631 -1.3829  1.0843 -0.5703
 7894TIP3    H245174   4.559   5.666  15.628 -0.3165 -1.3359  1.5415
 7895TIP3   OH245175   5.344   4.906   4.342 -0.0369 -0.2280 -0.3716
 7895TIP3    H145176   5.387   4.979   4.386  0.2618  0.4586 -1.7571
 7895TIP3    H245177   5.276   4.947   4.288 -0.6295 -1.0820 -0.2927
 7896TIP3   OH245178   3.870   5.315  10.366 -0.1713  0.2588  0.2558
 7896TIP3    H145179   3.950   5.359  10.395 -0.2459 -1.0006  2.6052
 7896TIP3    H245180   3.886   5.223  10.383 -2.0423 -0.0426  0.5656
 7897TIP3   OH245181   0.700   1.752  14.151 -0.0626  0.1707 -0.0448
 7897TIP3    H145182   0.795   1.744  14.143 -0.2908 -2.5780 -1.1940
 7897TIP3    H245183   0.678   1.702  14.229 -0.3316  4.5160  3.0120
 7898TIP3   OH245184   1.993   4.555  13.538 -0.4389  0.0484  0.5485
 7898TIP3    H145185   1.999   4.530  13.446 -2.7760  0.4164  0.2393
 7898TIP3    H245186   1.968   4.475  13.583  0.5578 -0.0968  0.8688
 7899TIP3   OH245187   5.162   5.231   3.679  0.4542 -0.1407 -0.1623
 7899TIP3    H145188   5.112   5.264   3.753 -0.0208  0.4591 -0.7424
 7899TIP3    H245189   5.117   5.150   3.653  1.3241 -1.0135  0.9406
 7900TIP3   OH245190   5.419   2.911  14.315 -0.1895 -0.2775 -0.1036
 7900TIP3    H145191   5.451   2.859  14.389  0.1338  0.5012  0.3177
 7900TIP3    H245192   5.454   2.999  14.331 -1.0782  0.1744 -0.5741
 7901TIP3   OH245193   0.561   3.406   2.814  0.0091  0.2900 -0.2595
 7901TIP3    H145194   0.607   3.478   2.771  0.0486 -1.6639 -3.9358
 7901TIP3    H245195   0.469   3.429   2.807  0.1157  1.1593  1.0168
 7902TIP3   OH245196   2.538   5.815  13.269  0.4065  0.4365 -0.3814
 7902TIP3    H145197   2.566   5.757  13.338  0.4571  0.7430 -0.1411
 7902TIP3    H245198   2.447   5.791  13.252  0.4201  0.3058 -0.2648
 7903TIP3   OH245199   3.077   1.104  16.354  0.0670 -0.1202 -0.4408
 7903TIP3    H145200   3.076   1.009  16.348 -2.4721 -0.1564 -0.7774
 7903TIP3    H245201   3.058   1.123  16.446  0.0249  0.0527 -0.4841
 7904TIP3   OH245202   3.733   2.966   4.186 -0.3147 -0.3510  0.0739
 7904TIP3    H145203   3.756   2.901   4.253 -0.9721 -1.8452 -1.0873
 7904TIP3    H245204   3.665   3.019   4.227  0.6692  0.0244  1.2719
 7905TIP3   OH245205   4.060   3.697   1.056 -0.8156 -0.1840  0.3120
 7905TIP3    H145206   4.044   3.602   1.051  0.9162 -0.6962  2.7185
 7905TIP3    H245207   4.042   3.719   1.147 -0.3076  1.6393 -0.0025
 7906TIP3   OH245208   0.948   2.147  15.398  0.4339  0.6756  0.4262
 7906TIP3    H145209   1.026   2.202  15.406  0.7170  0.1921  1.1364
 7906TIP3    H245210   0.949   2.093  15.477  0.9626 -1.3567 -0.9017
 7907TIP3   OH245211   0.670   3.256   5.064 -0.0060 -0.3943  0.6975
 7907TIP3    H145212   0.622   3.180   5.097  2.0904 -1.9614  0.3742
 7907TIP3    H245213   0.762   3.235   5.080  0.7343  1.4813 -0.6686
 7908TIP3   OH245214   0.773   4.371   6.014  0.5914 -0.0842  0.8049
 7908TIP3    H145215   0.863   4.395   6.035  0.1445  0.5696  2.0811
 7908TIP3    H245216   0.721   4.447   6.041 -0.3384 -0.3984 -0.0328
 7909TIP3   OH245217   0.592   0.215  15.943 -0.3688 -0.0060 -0.0603
 7909TIP3    H145218   0.654   0.244  15.876 -0.0749  0.4490  0.4025
 7909TIP3    H245219   0.646   0.175  16.011 -0.2783  2.4496  1.4580
 7910TIP3   OH245220   2.992   1.237  15.576 -0.3248 -0.2936  0.3473
 7910TIP3    H145221   2.999   1.177  15.650 -1.2916  0.4007  1.0305
 7910TIP3    H245222   3.069   1.294  15.584  0.0482 -0.7828  0.2851
 7911TIP3   OH245223   3.569   1.868   2.877  0.6298 -0.1393 -0.5776
 7911TIP3    H145224   3.646   1.920   2.855  1.5723 -1.2615 -0.0494
 7911TIP3    H245225   3.502   1.933   2.898  2.2457  0.9421  1.7582
 7912TIP3   OH245226   2.429   0.230   2.569  0.1940  0.5514 -0.0082
 7912TIP3    H145227   2.516   0.270   2.567 -0.3055  1.6907  0.1045
 7912TIP3    H245228   2.416   0.205   2.661  0.4590  0.2439 -0.0536
 7913TIP3   OH245229   4.014   0.451   2.613 -0.6305 -0.1717  0.7591
 7913TIP3    H145230   3.991   0.517   2.679 -0.6725  0.7503 -0.1402
 7913TIP3    H245231   3.975   0.484   2.532  0.9087 -0.3632 -0.1025
 7914TIP3   OH245232   1.677   2.198   5.492 -0.6857  0.2774  0.0995
 7914TIP3    H145233   1.635   2.261   5.551 -0.3980 -0.0825  0.7097
 7914TIP3    H245234   1.748   2.161   5.545 -0.8348 -0.5394 -0.2531
 7915TIP3   OH245235   1.295   4.769   5.605 -0.5480  0.0232  0.2624
 7915TIP3    H145236   1.250   4.696   5.562  0.7018  0.2491 -1.5241
 7915TIP3    H245237   1.248   4.847   5.575 -0.3503  0.1116  0.1804
 7916TIP3   OH245238   2.905   5.253   0.836  0.6303 -0.0858  0.0979
 7916TIP3    H145239   2.973   5.261   0.769  0.1265 -3.0873 -0.9518
 7916TIP3    H245240   2.935   5.182   0.893 -1.5394 -1.5302 -0.4108
 7917TIP3   OH245241   1.301   5.140   1.671  0.3646  0.3306 -0.0270
 7917TIP3    H145242   1.316   5.199   1.597  0.9837  0.1145 -0.0764
 7917TIP3    H245243   1.219   5.171   1.710  0.6004  1.1237 -0.1478
 7918TIP3   OH245244   1.005   4.569  10.786 -0.4942  0.2797 -0.3593
 7918TIP3    H145245   0.976   4.572  10.695  1.4856 -1.6940 -1.1450
 7918TIP3    H245246   1.079   4.629  10.790  0.3836 -0.7512 -0.4996
 7919TIP3   OH245247   2.009   5.942  12.240 -0.2142 -0.2356 -0.7521
 7919TIP3    H145248   1.998   5.960  12.334  1.2873  1.0142 -0.7776
 7919TIP3    H245249   1.936   5.884  12.218  0.8373 -2.7481  1.7454
 7920TIP3   OH245250   4.999   4.432  13.817  0.8433  0.1776 -0.1259
 7920TIP3    H145251   4.992   4.340  13.843 -0.9716  0.3181  0.0380
 7920TIP3    H245252   4.960   4.480  13.890  0.2820  0.9344 -0.9041
 7921TIP3   OH245253   0.504   5.078  12.759  0.4244 -0.6303  0.2398
 7921TIP3    H145254   0.475   4.988  12.774  0.9905 -1.1362 -1.5020
 7921TIP3    H245255   0.584   5.070  12.708 -0.0114  0.8620 -0.7600
 7922TIP3   OH245256   6.057   1.615   3.904  0.1847 -0.0052  0.3083
 7922TIP3    H145257   6.061   1.710   3.908 -0.3618  0.0301  0.1160
 7922TIP3    H245258   6.075   1.594   3.812 -2.2944  0.0883 -0.2886
 7923TIP3   OH245259   2.240   0.551  15.255 -0.3022  0.1699 -0.5250
 7923TIP3    H145260   2.309   0.508  15.306 -0.1145  0.2175 -0.7394
 7923TIP3    H245261   2.159   0.515  15.290 -0.1635 -0.0044 -0.3796
 7924TIP3   OH245262   4.574   4.227  15.584 -0.0355  0.4462 -0.3681
 7924TIP3    H145263   4.605   4.316  15.570 -0.4861  0.5912 -0.4504
 7924TIP3    H245264   4.479   4.232  15.573 -0.0061 -0.1534 -0.9899
 7925TIP3   OH245265   2.109   5.600   1.497 -0.2256  0.1589 -0.1340
 7925TIP3    H145266   2.097   5.510   1.467 -3.1893 -0.1033  1.5540
 7925TIP3    H245267   2.145   5.592   1.585  0.7897  0.7310 -0.4673
 7926TIP3   OH245268   6.237   1.530   0.784  0.3505 -0.3122  0.0741
 7926TIP3    H145269   6.268   1.562   0.868 -0.2110  0.6521 -0.0717
 7926TIP3    H245270   6.316   1.525   0.730  0.5550  0.1486  0.3213
 7927TIP3   OH245271   5.631   2.259  14.733 -0.3310 -0.1918 -0.3046
 7927TIP3    H145272   5.692   2.302  14.793  0.1652 -1.2718 -0.0068
 7927TIP3    H245273   5.671   2.271  14.646 -0.5866  0.5886 -0.3207
 7928TIP3   OH245274   5.977   6.622  14.787 -0.0710  0.2916  0.3957
 7928TIP3    H145275   5.920   6.659  14.719  1.6721 -1.4992 -2.2005
 7928TIP3    H245276   6.046   6.687  14.799  1.1827 -0.5867 -1.7291
 7929TIP3   OH245277   4.118   2.838  15.646 -0.1028  0.7178  0.3990
 7929TIP3    H145278   4.054   2.811  15.580  0.3904 -2.0277  0.9280
 7929TIP3    H245279   4.203   2.817  15.607  0.7062  4.9133 -0.5775
 7930TIP3   OH245280   1.618   0.507  12.172  0.0821  0.2392  0.5962
 7930TIP3    H145281   1.595   0.595  12.141 -2.5023 -0.3727  0.5047
 7930TIP3    H245282   1.650   0.520  12.261 -1.6010  1.2151  1.1167
 7931TIP3   OH245283   5.277   2.323  15.248  0.4654  0.0028  0.2224
 7931TIP3    H145284   5.255   2.259  15.316 -1.2169 -0.1405 -0.4011
 7931TIP3    H245285   5.299   2.402  15.295 -1.5039  0.1587  0.9819
 7932TIP3   OH245286   0.787   3.232  16.031  0.3006 -0.4102  0.2151
 7932TIP3    H145287   0.788   3.300  16.097 -1.4788 -0.0287 -0.1015
 7932TIP3    H245288   0.720   3.170  16.061  0.9889 -1.3478 -0.1490
 7933TIP3   OH245289   5.649   4.442   0.829  0.3198 -0.3019  0.2451
 7933TIP3    H145290   5.578   4.451   0.893 -0.4525 -0.6065 -0.5396
 7933TIP3    H245291   5.604   4.430   0.745  1.3044 -0.5353 -0.2689
 7934TIP3   OH245292   1.776   1.040  11.511  0.3702 -0.3790 -0.2410
 7934TIP3    H145293   1.700   1.009  11.559  0.2494  2.0274  1.2717
 7934TIP3    H245294   1.741   1.077  11.430 -0.1206  0.8950  0.5376
 7935TIP3   OH245295   2.957   2.454  15.230 -0.5773  0.1650 -0.0947
 7935TIP3    H145296   3.046   2.418  15.231 -0.4053  0.5256 -1.0649
 7935TIP3    H245297   2.970   2.549  15.234 -1.0448  0.1873  3.0350
 7936TIP3   OH245298   2.866   0.520  11.508 -0.0641  0.3301 -0.7078
 7936TIP3    H145299   2.873   0.505  11.414 -1.6342 -1.2222 -0.6200
 7936TIP3    H245300   2.951   0.494  11.543 -0.0332 -0.7027 -1.5170
 7937TIP3   OH245301   2.150   3.309  14.839  0.4365  0.2527  0.1162
 7937TIP3    H145302   2.072   3.350  14.802  0.7021  1.5265  0.9018
 7937TIP3    H245303   2.171   3.363  14.915  1.1604 -1.0247  0.8453
 7938TIP3   OH245304   4.982   5.030   3.656 -0.4873 -0.3124  0.1158
 7938TIP3    H145305   4.935   5.013   3.738 -1.5673 -1.0656 -0.6429
 7938TIP3    H245306   4.914   5.029   3.589  0.4858 -0.4223 -0.8872
 7939TIP3   OH245307   0.064   4.483   4.571  0.0709 -0.3022  0.5524
 7939TIP3    H145308   0.107   4.569   4.561 -0.8204  0.1962  0.9177
 7939TIP3    H245309   0.044   4.456   4.481 -1.2666  0.7247  0.5145
 7940TIP3   OH245310   3.989   3.985  11.947  0.2017  0.4878  0.0670
 7940TIP3    H145311   4.014   4.020  12.033 -0.6416 -0.3722  0.6918
 7940TIP3    H245312   4.058   4.014  11.888  1.1345  0.5879  1.1676
 7941TIP3   OH245313   4.162   3.382   0.872 -0.0091 -0.2174  0.0864
 7941TIP3    H145314   4.166   3.287   0.874 -2.0008 -0.3584 -0.9061
 7941TIP3    H245315   4.138   3.408   0.961 -2.8176 -0.8980 -0.4029
 7942TIP3   OH245316   6.096   1.204   4.267 -0.2236  0.1156 -0.3044
 7942TIP3    H145317   6.001   1.205   4.280 -0.5254  0.1432 -2.2439
 7942TIP3    H245318   6.112   1.270   4.200  1.1976  0.1727  0.0577
 7943TIP3   OH245319   2.089   2.511   3.021 -0.5749  0.2085  0.3989
 7943TIP3    H145320   2.150   2.456   2.972 -1.2465 -0.9402  0.8056
 7943TIP3    H245321   2.002   2.479   2.996 -1.1975  3.1487 -1.7532
 7944TIP3   OH245322   4.514   2.264   4.727 -0.1362  0.3697 -0.0979
 7944TIP3    H145323   4.512   2.348   4.680  2.4515  0.2170 -0.6013
 7944TIP3    H245324   4.552   2.203   4.665 -0.5847 -0.8554  0.8016
 7945TIP3   OH245325   1.980   4.847   6.065 -0.0538 -0.0552  0.3998
 7945TIP3    H145326   2.042   4.852   6.138  0.4273 -0.4642  0.0253
 7945TIP3    H245327   1.998   4.762   6.025  1.0796  0.9938 -1.4388
 7946TIP3   OH245328   6.207   4.543  11.046 -0.4063  0.1524  0.5151
 7946TIP3    H145329   6.282   4.552  10.988 -0.3087 -0.9668  0.4384
 7946TIP3    H245330   6.200   4.449  11.062 -1.1022  0.3399  1.4360
 7947TIP3   OH245331   0.568   5.746  14.456 -0.5478 -0.4891 -0.0463
 7947TIP3    H145332   0.524   5.668  14.422  1.4476 -1.4844 -0.4900
 7947TIP3    H245333   0.595   5.721  14.545 -1.1636  0.2284  0.3467
 7948TIP3   OH245334   1.938   5.093  13.252 -0.0859 -0.4026  0.3174
 7948TIP3    H145335   2.011   5.055  13.202 -0.6140  0.5834 -1.2757
 7948TIP3    H245336   1.949   5.058  13.341  2.4535 -0.1151  0.1917
 7949TIP3   OH245337   3.184   5.704   2.298  0.4184 -0.2623  0.0313
 7949TIP3    H145338   3.156   5.747   2.379  0.4231 -1.2205  0.5572
 7949TIP3    H245339   3.279   5.701   2.304  0.3962 -0.7997  0.2563
 7950TIP3   OH245340   4.809   1.994  10.891 -0.3963 -0.0084 -0.1501
 7950TIP3    H145341   4.776   2.049  10.820  1.3502  1.6014  0.2159
 7950TIP3    H245342   4.884   1.948  10.853 -0.5386 -0.4950  0.1547
 7951TIP3   OH245343   1.156   3.664   3.997  0.3631  0.3632 -0.0616
 7951TIP3    H145344   1.210   3.619   4.062 -0.1321  3.3222  2.6914
 7951TIP3    H245345   1.212   3.734   3.963 -0.4044  0.8331 -0.3900
 7952TIP3   OH245346   3.161   5.835   6.278 -0.3355  0.4530 -0.1882
 7952TIP3    H145347   3.115   5.889   6.343  0.1148  0.1349  0.4027
 7952TIP3    H245348   3.135   5.746   6.299 -1.8553  0.4871 -1.7787
 7953TIP3   OH245349   4.436   4.509  11.926  0.1478  0.0270 -0.1463
 7953TIP3    H145350   4.404   4.422  11.900  0.0631 -0.0729  0.2806
 7953TIP3    H245351   4.507   4.528  11.865 -2.4111  1.4239 -2.9325
 7954TIP3   OH245352   0.839   1.701  14.626  0.3319 -0.5416 -0.0465
 7954TIP3    H145353   0.921   1.721  14.580  0.0030  0.4229 -0.2476
 7954TIP3    H245354   0.865   1.648  14.701  1.4118  1.2488  0.9364
 7955TIP3   OH245355   3.716   2.663   1.539  0.5005  0.2072  0.1287
 7955TIP3    H145356   3.663   2.687   1.463 -0.3379 -0.3087  0.5389
 7955TIP3    H245357   3.758   2.580   1.514  0.1717  0.0026  0.2499
 7956TIP3   OH245358   0.733   6.756   0.003 -0.0913  0.0798  0.3657
 7956TIP3    H145359   0.754   6.667  -0.025 -1.5338 -0.1609 -0.0684
 7956TIP3    H245360   0.790   6.812  -0.050 -2.4604 -0.3880 -2.9971
 7957TIP3   OH245361   2.967   4.768  16.012 -0.1233  0.4182  0.2146
 7957TIP3    H145362   3.002   4.849  16.049  0.9181 -0.5284  1.3787
 7957TIP3    H245363   2.905   4.797  15.946  1.4119  2.1691 -0.5329
 7958TIP3   OH245364   5.319   2.357  16.467  0.9055 -0.2986  0.1051
 7958TIP3    H145365   5.277   2.273  16.488 -1.7489  1.0569  0.6280
 7958TIP3    H245366   5.382   2.335  16.399  1.8993 -3.0478  1.7499
 7959TIP3   OH245367   6.691   3.833  11.187  0.3191 -0.6257  0.6695
 7959TIP3    H145368   6.607   3.877  11.197 -0.6354 -2.2175  0.1507
 7959TIP3    H245369   6.753   3.903  11.168 -0.9139  0.5792  0.9279
 7960TIP3   OH245370   3.245   4.306   4.565  0.0229  0.5407 -0.3955
 7960TIP3    H145371   3.187   4.312   4.489 -0.5098 -0.8162 -0.1112
 7960TIP3    H245372   3.192   4.334   4.639 -0.1174 -0.1760 -0.2172
 7961TIP3   OH245373   3.661   1.132   5.088  0.3544 -0.5308 -0.2226
 7961TIP3    H145374   3.739   1.145   5.036 -0.8513  3.1160 -1.4411
 7961TIP3    H245375   3.693   1.122   5.178  2.2472  0.1016 -0.7887
 7962TIP3   OH245376   3.136   2.663  16.119  0.0929  0.6577  0.5306
 7962TIP3    H145377   3.045   2.657  16.088 -0.3279  0.4165  1.7430
 7962TIP3    H245378   3.177   2.583  16.088 -0.3531  0.3536  0.7079
 7963TIP3   OH245379   1.262   6.192  13.093 -0.5094 -0.0310  0.5517
 7963TIP3    H145380   1.167   6.195  13.093 -0.5515  3.6313  1.4552
 7963TIP3    H245381   1.286   6.195  13.000 -1.2252 -1.0392  0.3154
 7964TIP3   OH245382   3.504   4.746  11.661  0.3801 -0.1184  0.4589
 7964TIP3    H145383   3.470   4.668  11.704  0.2030 -0.4125 -0.2013
 7964TIP3    H245384   3.553   4.712  11.586  1.0167  0.3646  0.6465
 7965TIP3   OH245385   6.281   5.645  14.851  0.2060 -0.5640  0.2927
 7965TIP3    H145386   6.261   5.627  14.943  0.8035 -1.5501  0.2401
 7965TIP3    H245387   6.228   5.722  14.830  0.1020 -0.2927  1.4737
 7966TIP3   OH245388   1.245   1.780   3.955 -0.5096 -0.5439  0.1915
 7966TIP3    H145389   1.166   1.814   3.911  0.5671  1.2986 -0.4240
 7966TIP3    H245390   1.236   1.810   4.045 -0.2925  0.1491 -0.0039
 7967TIP3   OH245391   0.114   1.066  11.791 -0.1983  0.3334 -0.4821
 7967TIP3    H145392   0.062   1.014  11.729  0.2947 -1.4621  0.5219
 7967TIP3    H245393   0.053   1.081  11.864  0.4158 -1.2327  0.4167
 7968TIP3   OH245394   2.465   0.833  15.954  0.4314  0.9136 -0.0616
 7968TIP3    H145395   2.483   0.823  16.047  0.7905 -0.1456 -0.2370
 7968TIP3    H245396   2.551   0.840  15.913  0.2834  1.1186 -0.3427
 7969TIP3   OH245397   0.555   5.436  13.075 -0.6982 -0.0613  0.0380
 7969TIP3    H145398   0.505   5.400  13.149 -1.5457  0.7563 -0.1113
 7969TIP3    H245399   0.499   5.421  12.999 -1.6822  2.5618  0.1230
 7970TIP3   OH245400   2.792   4.838  12.086 -0.0215  0.3175  0.7605
 7970TIP3    H145401   2.855   4.901  12.119  1.0559 -0.0810 -0.4597
 7970TIP3    H245402   2.732   4.889  12.031 -0.1737  0.5362  1.1279
 7971TIP3   OH245403   3.369   3.043  13.565 -0.4616  0.1455  0.0545
 7971TIP3    H145404   3.363   3.049  13.470  1.0627 -1.7984 -0.2331
 7971TIP3    H245405   3.451   3.087  13.586 -0.4793  0.0081  0.4064
 7972TIP3   OH245406   0.413   0.003  16.791 -0.0940 -0.2935 -0.1478
 7972TIP3    H145407   0.394  -0.015  16.699  1.9327  2.0796 -1.1626
 7972TIP3    H245408   0.503  -0.029  16.803  0.4022  1.2129  0.3865
 7973TIP3   OH245409   1.431   0.537   2.253  0.5170 -0.4498 -0.1014
 7973TIP3    H145410   1.440   0.450   2.292 -2.5212 -0.4767  0.8502
 7973TIP3    H245411   1.403   0.593   2.325 -1.1823  0.4409 -1.3569
 7974TIP3   OH245412   6.234   4.713   4.794  0.7382 -0.2888  0.0312
 7974TIP3    H145413   6.143   4.741   4.794  0.9379  0.4051  0.8477
 7974TIP3    H245414   6.283   4.790   4.824  1.4990 -0.8955  0.3839
 7975TIP3   OH245415   4.305   3.548  14.850  0.7853  0.3353 -0.2262
 7975TIP3    H145416   4.381   3.493  14.870 -0.4781 -1.8740 -1.1438
 7975TIP3    H245417   4.230   3.499  14.883 -0.4901  1.1477 -1.7601
 7976TIP3   OH245418   5.033   4.173  17.020  0.0050  0.2181  0.0981
 7976TIP3    H145419   4.975   4.247  17.035  1.3262  1.0416  1.4512
 7976TIP3    H245420   5.041   4.130  17.105  0.3283 -0.6719 -0.3613
 7977TIP3   OH245421   4.120   3.299   2.776 -0.0249  0.1578  0.1751
 7977TIP3    H145422   4.074   3.223   2.812 -0.2307  1.0549  1.9337
 7977TIP3    H245423   4.182   3.324   2.844  1.3423  0.4928 -1.1314
 7978TIP3   OH245424   6.483   1.061   2.899 -0.1681 -0.2408  0.4029
 7978TIP3    H145425   6.540   1.126   2.941 -0.1974 -0.2578  0.4696
 7978TIP3    H245426   6.542   1.002   2.854 -0.1378 -0.2017  0.3916
 7979TIP3   OH245427   6.287   1.763  10.774 -0.2622  0.2889  0.0519
 7979TIP3    H145428   6.369   1.743  10.731 -1.0627 -0.3595 -1.2061
 7979TIP3    H245429   6.292   1.857  10.793  0.9584  0.1530  0.4649
 7980TIP3   OH245430   0.605   6.142  13.245 -0.5391 -0.1935 -0.5784
 7980TIP3    H145431   0.541   6.121  13.313 -0.3502 -0.8477 -0.5963
 7980TIP3    H245432   0.659   6.063  13.238  1.4048  0.9695  0.6857
 7981TIP3   OH245433   5.556   2.180   3.417  0.1791 -0.6401  0.3380
 7981TIP3    H145434   5.593   2.243   3.356  0.1095 -0.7311  0.2006
 7981TIP3    H245435   5.546   2.100   3.366 -0.9720 -0.3839  0.1447
 7982TIP3   OH245436   4.508   0.519   4.320  0.6286 -0.5054  0.2918
 7982TIP3    H145437   4.539   0.487   4.405  1.6237 -0.0590  0.1072
 7982TIP3    H245438   4.433   0.463   4.299  1.5079 -1.8470  0.6065
 7983TIP3   OH245439   2.918   0.505  14.510 -0.1107 -0.0316 -0.0241
 7983TIP3    H145440   2.979   0.472  14.445  0.7083  0.2270  0.6055
 7983TIP3    H245441   2.958   0.585  14.543 -1.0924  0.4908 -0.0571
 7984TIP3   OH245442   5.345   1.614  11.442  0.1356 -0.0079  0.1212
 7984TIP3    H145443   5.297   1.674  11.499 -0.0366 -0.9628  1.0233
 7984TIP3    H245444   5.435   1.648  11.442  0.6249 -1.0690  2.6182
 7985TIP3   OH245445   1.215   4.070  13.789  0.3829  0.6410  0.4753
 7985TIP3    H145446   1.136   4.125  13.788  1.1750  1.8437  1.2555
 7985TIP3    H245447   1.264   4.098  13.712  0.1677  0.0615  0.1237
 7986TIP3   OH245448   5.419   4.368  11.525  0.0854 -0.9530  0.1493
 7986TIP3    H145449   5.379   4.309  11.589 -1.5448  0.4720  0.5131
 7986TIP3    H245450   5.347   4.396  11.469  0.7091  1.0034  0.2485
 7987TIP3   OH245451   6.828   4.937   1.719 -0.2275  0.0043 -0.0193
 7987TIP3    H145452   6.827   4.916   1.626 -2.0705 -0.2904  0.0246
 7987TIP3    H245453   6.764   5.007   1.728  0.0971  0.1829  0.9983
 7988TIP3   OH245454   1.063   6.105  15.183  0.2955  0.3333 -0.1636
 7988TIP3    H145455   0.975   6.072  15.203  0.1542 -0.2630 -1.6463
 7988TIP3    H245456   1.117   6.072  15.255 -0.7009  0.8903  0.8910
 7989TIP3   OH245457   2.895   1.465   4.127  1.0509 -0.1392 -0.4571
 7989TIP3    H145458   2.943   1.398   4.078  2.0482  0.7195 -0.6891
 7989TIP3    H245459   2.959   1.535   4.140  0.5507  0.0442  1.2867
 7990TIP3   OH245460   4.359   0.926  16.765 -0.3488 -0.2725  0.1578
 7990TIP3    H145461   4.350   0.883  16.680 -1.7371 -2.4478  1.3002
 7990TIP3    H245462   4.440   0.890  16.801  0.7289  1.3442 -0.5659
 7991TIP3   OH245463   3.320   3.463  11.334  0.4314  0.6857 -0.1852
 7991TIP3    H145464   3.249   3.524  11.354 -0.0678  0.0770 -0.0597
 7991TIP3    H245465   3.335   3.415  11.416  1.5742  1.3840  0.0401
 7992TIP3   OH245466   6.016   1.829  16.397 -0.8594  0.1264 -0.2516
 7992TIP3    H145467   6.076   1.781  16.454 -0.6986  0.6417  0.0302
 7992TIP3    H245468   5.940   1.847  16.453 -1.2917 -0.5461 -0.6142
 7993TIP3   OH245469   5.424   1.344  12.899  0.3757  0.0916 -0.1823
 7993TIP3    H145470   5.515   1.371  12.883  0.2268  0.4988 -0.3694
 7993TIP3    H245471   5.383   1.348  12.812 -0.0941  0.9719  0.0685
 7994TIP3   OH245472   1.969   1.485   0.049  0.1398 -0.1307 -0.3000
 7994TIP3    H145473   1.904   1.462   0.116 -0.1191 -3.9689 -1.5725
 7994TIP3    H245474   2.051   1.493   0.097 -0.5658  0.5438  0.8359
 7995TIP3   OH245475   0.107   2.549   5.093  0.3942  0.3479 -0.5199
 7995TIP3    H145476   0.041   2.508   5.148 -0.5146  1.5732 -0.6569
 7995TIP3    H245477   0.126   2.633   5.135  1.6220  0.1781 -0.6747
 7996TIP3   OH245478   1.990   0.473   2.462 -0.0918  0.1197 -0.1065
 7996TIP3    H145479   1.937   0.406   2.418  1.1386 -1.0651  0.1602
 7996TIP3    H245480   1.926   0.538   2.492 -1.1033  0.1971 -2.2724
 7997TIP3   OH245481   6.440   6.793   1.851  0.1430  0.0876  0.2815
 7997TIP3    H145482   6.400   6.733   1.914 -0.2908 -0.8399 -0.8466
 7997TIP3    H245483   6.486   6.857   1.906 -1.9851  0.5990  1.6224
 7998TIP3   OH245484   1.029   0.069   0.904  0.8173 -0.2143 -0.1549
 7998TIP3    H145485   1.093   0.098   0.969  0.0287  0.2600  0.4358
 7998TIP3    H245486   1.081   0.032   0.833  1.7586  0.5757  0.1089
 7999TIP3   OH245487   6.130   6.584   5.006 -0.6097 -0.5781  0.5034
 7999TIP3    H145488   6.046   6.587   5.051 -0.3076  0.1335  1.0322
 7999TIP3    H245489   6.191   6.627   5.065 -0.3743  1.1997 -0.9119
 8000TIP3   OH245490   5.868   5.566  14.132  0.6229 -0.2992  0.2383
 8000TIP3    H145491   5.885   5.617  14.212  0.6468  2.0049 -1.1444
 8000TIP3    H245492   5.935   5.595  14.070 -0.6124 -0.5053 -1.2479
 8001TIP3   OH245493   1.883   2.123  17.035  0.0223 -0.0202  0.0554
 8001TIP3    H145494   1.813   2.068  17.071  1.8694 -1.3067  1.9244
 8001TIP3    H245495   1.890   2.196  17.097 -1.0480  1.3172 -1.3181
 8002TIP3   OH245496   4.820   0.672  16.596  0.1934 -0.3374 -0.1962
 8002TIP3    H145497   4.781   0.662  16.509  0.8013 -1.7512 -0.3465
 8002TIP3    H245498   4.909   0.703  16.579 -0.1055  0.6722  0.0146
 8003TIP3   OH245499   3.166   2.692   0.247 -0.1876 -0.8482 -0.0132
 8003TIP3    H145500   3.124   2.693   0.334 -0.2146  0.1686 -0.0250
 8003TIP3    H245501   3.105   2.643   0.192 -0.3818 -1.1282  0.4371
 8004TIP3   OH245502   3.850   5.614   2.768 -0.0423 -0.1783 -0.2814
 8004TIP3    H145503   3.791   5.549   2.805 -1.6517  0.8765 -0.8959
 8004TIP3    H245504   3.925   5.564   2.737  0.3916 -1.3368  2.3474
 8005TIP3   OH245505   3.791   3.557  15.005  0.2109  0.9994 -0.3891
 8005TIP3    H145506   3.766   3.465  14.997 -1.7937  1.4305  0.3783
 8005TIP3    H245507   3.759   3.597  14.924  0.0708  1.2109 -0.2313
 8006TIP3   OH245508   4.576   0.484   4.046  0.2733 -0.0566  0.2423
 8006TIP3    H145509   4.498   0.518   4.001 -0.2305 -0.4502  0.8006
 8006TIP3    H245510   4.573   0.523   4.133 -0.5629 -1.8035  1.0546
 8007TIP3   OH245511   3.170   3.046  17.064  0.1933 -0.5813 -0.2793
 8007TIP3    H145512   3.159   3.029  16.970 -0.4794 -2.1766  0.0527
 8007TIP3    H245513   3.080   3.048  17.098  0.3481  1.5907  0.0993
 8008TIP3   OH245514   6.573   5.011   0.498  0.3529 -0.0959 -0.1537
 8008TIP3    H145515   6.497   5.067   0.514  0.5230  0.1874 -0.3317
 8008TIP3    H245516   6.537   4.930   0.462  0.1028 -0.1153  0.1421
 8009TIP3   OH245517   0.971   6.635   5.859 -0.7006  0.4833  0.7294
 8009TIP3    H145518   1.047   6.633   5.801 -2.7243  1.0919 -2.1617
 8009TIP3    H245519   1.001   6.592   5.939  2.0319 -1.2819 -1.0717
 8010TIP3   OH245520   2.902   4.467   1.179  0.2694 -0.1983 -0.7929
 8010TIP3    H145521   2.923   4.541   1.122  1.7099  0.5408  0.6263
 8010TIP3    H245522   2.819   4.492   1.221  1.0895  0.9909  0.2043
 8011TIP3   OH245523   5.146   3.445  13.037 -0.7548 -0.7804 -0.4088
 8011TIP3    H145524   5.108   3.454  12.950 -0.6604 -1.1738 -0.4894
 8011TIP3    H245525   5.165   3.535  13.064  1.1712 -0.7773 -1.6487
 8012TIP3   OH245526   3.718   3.164  11.809 -0.2721 -0.2483 -0.1185
 8012TIP3    H145527   3.680   3.090  11.857  0.2394 -1.4048 -1.4222
 8012TIP3    H245528   3.648   3.194  11.752  0.3216 -1.6506 -1.6935
 8013TIP3   OH245529   3.066   3.251   1.813 -0.4588 -0.3704  0.2336
 8013TIP3    H145530   3.032   3.254   1.903 -2.2962 -0.5317 -0.4187
 8013TIP3    H245531   3.095   3.341   1.796  0.5101 -0.4795  1.1807
 8014TIP3   OH245532   2.907   4.251  10.438 -0.0822 -0.2300 -0.1685
 8014TIP3    H145533   2.814   4.237  10.452 -0.1221  0.7319  0.6410
 8014TIP3    H245534   2.949   4.176  10.480 -0.4335  0.1781  0.9383
 8015TIP3   OH245535   3.947   6.597   6.449 -0.0854  0.0533  0.2565
 8015TIP3    H145536   3.914   6.685   6.464  0.1686  0.6684 -2.2792
 8015TIP3    H245537   3.869   6.542   6.445 -0.2267  0.0694  2.1454
 8016TIP3   OH245538   5.043   5.897   3.402  0.0516  0.1903  0.4663
 8016TIP3    H145539   5.003   5.956   3.338  1.1017  1.0829  0.5966
 8016TIP3    H245540   5.072   5.954   3.473  1.7222 -0.3573  0.2734
 8017TIP3   OH245541   0.217   2.521   4.279  0.1611 -0.0807  0.0113
 8017TIP3    H145542   0.213   2.451   4.214  1.6820 -0.2341  0.0647
 8017TIP3    H245543   0.309   2.527   4.304  0.1541  2.2072 -0.2743
 8018TIP3   OH245544   2.793   6.718   1.717 -0.5327 -0.7607  0.0749
 8018TIP3    H145545   2.832   6.714   1.804 -0.0837  1.6292  0.0443
 8018TIP3    H245546   2.760   6.807   1.709 -1.9727 -1.3820 -1.6416
 8019TIP3   OH245547   1.448   3.966   0.148 -0.2425  0.3178 -0.0353
 8019TIP3    H145548   1.467   3.891   0.204 -3.1716 -1.2809 -0.9471
 8019TIP3    H245549   1.439   3.929   0.060 -0.8112  1.8916 -0.6823
 8020TIP3   OH245550   1.396   3.822  16.384 -0.3283 -0.0538 -1.0326
 8020TIP3    H145551   1.363   3.782  16.464  0.0001 -0.5236 -1.1316
 8020TIP3    H245552   1.318   3.837  16.331 -0.3267 -2.1450 -1.7152
 8021TIP3   OH245553   6.423   5.417  14.573  0.2541 -0.0705 -0.0631
 8021TIP3    H145554   6.348   5.411  14.513 -0.3604 -1.9389  0.8158
 8021TIP3    H245555   6.392   5.378  14.654  1.2572  1.8617  1.3471
 8022TIP3   OH245556   1.574   3.547  12.151 -0.2511  0.2999 -0.2663
 8022TIP3    H145557   1.636   3.613  12.122 -0.8737  0.1017 -2.1911
 8022TIP3    H245558   1.504   3.597  12.192  0.4420  0.6349  0.5268
 8023TIP3   OH245559   2.487   4.823  13.688 -0.3470  1.1797  0.0972
 8023TIP3    H145560   2.440   4.899  13.722 -1.0403 -0.1451  2.3077
 8023TIP3    H245561   2.577   4.853  13.680 -0.6661  2.3473  0.5621
 8024TIP3   OH245562   1.057   0.313  14.932 -0.6605  0.3119 -0.0962
 8024TIP3    H145563   1.054   0.306  14.836  0.9673 -1.8740 -0.0580
 8024TIP3    H245564   0.974   0.274  14.960  0.4020 -2.5314 -0.5864
 8025TIP3   OH245565   0.065   5.090  10.640  0.7396  0.7429  0.3013
 8025TIP3    H145566   0.095   5.175  10.608  2.5206 -0.1140 -0.4026
 8025TIP3    H245567   0.051   5.038  10.562  2.4669 -0.4975  0.7566
 8026TIP3   OH245568   3.090   0.428  14.284  0.4019 -0.6633 -0.4607
 8026TIP3    H145569   3.154   0.416  14.355 -0.5964  4.6190  1.7529
 8026TIP3    H245570   3.141   0.465  14.212  0.3656  1.4353  0.5108
 8027TIP3   OH245571   3.971   6.522  13.655 -0.2139  0.0259 -0.0390
 8027TIP3    H145572   3.986   6.572  13.735 -0.3745  1.5782 -0.9357
 8027TIP3    H245573   3.894   6.469  13.674 -0.3330  0.4794  0.7988
 8028TIP3   OH245574   1.410   3.703   0.264 -0.6738  0.1700 -0.1758
 8028TIP3    H145575   1.436   3.649   0.338  0.0147  1.2362  0.3880
 8028TIP3    H245576   1.324   3.739   0.289 -0.8031 -0.0975 -0.2382
 8029TIP3   OH245577   5.881   2.700   0.766 -0.2501 -0.1934 -0.3891
 8029TIP3    H145578   5.951   2.723   0.705 -0.4042 -2.3208 -1.4546
 8029TIP3    H245579   5.923   2.641   0.829  0.0781  2.4984  2.0819
 8030TIP3   OH245580   6.626   0.302  16.810 -0.0166  0.5403  0.3682
 8030TIP3    H145581   6.559   0.370  16.817 -0.4439 -0.0327  2.6588
 8030TIP3    H245582   6.656   0.288  16.900  0.8049 -1.5617 -0.1750
 8031TIP3   OH245583   6.536   2.612   2.549  0.4233 -0.1500  1.0253
 8031TIP3    H145584   6.468   2.590   2.484  0.4906  0.5605  0.7146
 8031TIP3    H245585   6.555   2.704   2.534  0.6196 -0.0409  1.8974
 8032TIP3   OH245586   4.828   5.701   1.762  0.1266  0.4831  0.1886
 8032TIP3    H145587   4.909   5.693   1.710  1.3442  1.9231  1.7267
 8032TIP3    H245588   4.793   5.612   1.766 -0.0387  0.2761 -2.9993
 8033TIP3   OH245589   5.037   1.698   5.053  0.1109  0.3003 -0.0531
 8033TIP3    H145590   5.126   1.687   5.087  0.1529  0.0209 -0.2471
 8033TIP3    H245591   5.006   1.608   5.039  0.0704  0.4080 -0.6791
 8034TIP3   OH245592   1.680   6.246   6.025 -0.3945  0.3294  0.1515
 8034TIP3    H145593   1.602   6.239   6.081  0.6339  1.6662  1.8575
 8034TIP3    H245594   1.667   6.180   5.957 -1.7617 -1.3378  1.9247
 8035TIP3   OH245595   5.330   6.593   3.637 -0.4615 -0.0920 -0.4591
 8035TIP3    H145596   5.319   6.552   3.551 -1.0860  0.2149 -0.5248
 8035TIP3    H245597   5.425   6.605   3.645 -0.2916 -1.2459 -0.5795
 8036TIP3   OH245598   0.632   1.993  16.408  0.2511 -0.0502 -0.5317
 8036TIP3    H145599   0.536   1.990  16.408  0.2122  0.4753 -1.8764
 8036TIP3    H245600   0.656   1.983  16.316  1.4224  1.4453 -0.4233
 8037TIP3   OH245601   4.979   6.502   0.371 -0.2294  0.4259 -0.5827
 8037TIP3    H145602   4.893   6.470   0.401  0.4192  0.1330  1.1008
 8037TIP3    H245603   5.035   6.425   0.374  0.4699  0.9372 -0.0695
 8038TIP3   OH245604   4.001   0.899  11.832 -0.0222  0.4293 -0.1352
 8038TIP3    H145605   4.007   0.823  11.889 -1.5737  0.7786  0.5406
 8038TIP3    H245606   4.050   0.875  11.754  2.3478  0.0126  1.3950
 8039TIP3   OH245607   1.821   2.927  16.882  0.0412 -0.1705 -0.9841
 8039TIP3    H145608   1.862   3.007  16.916 -0.7392  0.2303 -0.9608
 8039TIP3    H245609   1.747   2.912  16.940 -0.3595 -0.3893 -1.5417
 8040TIP3   OH245610   1.103   3.381  15.048 -0.2505  0.3720 -0.4561
 8040TIP3    H145611   1.102   3.344  15.136 -2.1053  0.4504 -0.4162
 8040TIP3    H245612   1.133   3.471  15.060  1.6033 -0.2346 -0.2140
 8041TIP3   OH245613   2.631   2.587  15.459  0.4762  0.1085  0.3088
 8041TIP3    H145614   2.691   2.514  15.444 -1.1254 -1.0510 -0.7281
 8041TIP3    H245615   2.651   2.649  15.388  0.5070 -0.2241  0.0286
 8042TIP3   OH245616   5.606   6.315   0.665  0.5169 -0.2861 -0.2999
 8042TIP3    H145617   5.563   6.236   0.633  2.0032 -0.9440 -0.8091
 8042TIP3    H245618   5.577   6.384   0.605  0.6618 -0.8384 -1.0230
 8043TIP3   OH245619   5.056   2.113  16.020 -0.6336 -0.2352  0.0522
 8043TIP3    H145620   5.072   2.151  15.934 -0.4214 -1.7947 -0.6406
 8043TIP3    H245621   5.143   2.083  16.050 -0.8971 -0.8585  0.2166
 8044TIP3   OH245622   0.784   1.032  16.475  0.2721 -0.1993  0.5009
 8044TIP3    H145623   0.759   0.966  16.540 -0.6331 -0.2770  0.0986
 8044TIP3    H245624   0.796   0.983  16.394 -1.0594  0.1706  0.0380
 8045TIP3   OH245625   0.723   5.477   4.503 -0.6850  0.4657 -0.0041
 8045TIP3    H145626   0.792   5.420   4.537 -1.3676 -0.5485 -0.2787
 8045TIP3    H245627   0.698   5.530   4.579 -1.0423 -0.6206  0.6733
 8046TIP3   OH245628   1.948   2.200  16.782 -0.0842 -0.2291  0.3251
 8046TIP3    H145629   2.001   2.144  16.726  1.9814  0.4294  1.5368
 8046TIP3    H245630   1.919   2.142  16.853 -0.0160 -0.3285  0.2715
 8047TIP3   OH245631   0.847   3.561   1.495 -0.0556  0.0763  0.7168
 8047TIP3    H145632   0.850   3.655   1.514  0.6431  0.2828 -0.3347
 8047TIP3    H245633   0.815   3.521   1.576  0.4417  1.1447  1.4660
 8048TIP3   OH245634   5.487   2.589  14.787  0.2586 -0.2651 -0.0513
 8048TIP3    H145635   5.442   2.510  14.758 -0.5488  0.2856 -0.3522
 8048TIP3    H245636   5.579   2.576  14.761  0.1501 -1.1235 -0.0185
 8049TIP3   OH245637   4.000   0.935   2.198 -0.4573  0.0780 -0.2293
 8049TIP3    H145638   4.039   0.987   2.128 -1.2938  1.2226  0.1189
 8049TIP3    H245639   4.057   0.950   2.274  0.6754 -1.4768 -0.7189
 8050TIP3   OH245640   1.226   2.762   0.099 -0.3226  0.4771 -0.5208
 8050TIP3    H145641   1.139   2.754   0.138  0.4166 -0.5961  1.0047
 8050TIP3    H245642   1.256   2.671   0.089  0.4592  0.8215 -1.4138
 8051TIP3   OH245643   4.879   4.312   2.115  0.0619 -0.4646  0.1177
 8051TIP3    H145644   4.933   4.377   2.070  1.2669 -1.0091  0.7272
 8051TIP3    H245645   4.852   4.355   2.197 -1.5203  0.2597 -0.7367
 8052TIP3   OH245646   0.403   1.561   5.824  0.5230 -0.3673  0.1962
 8052TIP3    H145647   0.498   1.563   5.836  0.4799  1.8877  0.6814
 8052TIP3    H245648   0.368   1.590   5.908 -0.5878 -0.8292 -0.0909
 8053TIP3   OH245649   1.757   3.413  14.782 -0.0459  0.7064 -0.4436
 8053TIP3    H145650   1.668   3.416  14.817  0.7546  1.5393  1.6974
 8053TIP3    H245651   1.810   3.384  14.856  1.4437  0.0135 -1.7426
 8054TIP3   OH245652   6.268   3.191  15.224 -0.1459  0.2211 -0.0310
 8054TIP3    H145653   6.359   3.198  15.251 -0.1961 -2.8879  1.4430
 8054TIP3    H245654   6.227   3.271  15.257  1.4490  0.2315  2.1471
 8055TIP3   OH245655   6.160   5.373  14.979 -0.1028  0.4506 -0.4017
 8055TIP3    H145656   6.072   5.365  15.016 -0.0117  2.2842  0.3120
 8055TIP3    H245657   6.206   5.431  15.040  1.6590 -0.5904 -0.6823
 8056TIP3   OH245658   2.447   2.301  14.874  0.1390 -0.0836  0.4702
 8056TIP3    H145659   2.470   2.361  14.803 -1.6717  0.5455  0.3744
 8056TIP3    H245660   2.463   2.214  14.838 -0.9577  0.2171 -0.8134
 8057TIP3   OH245661   1.739   5.364  14.495  0.1183 -0.4252 -0.1929
 8057TIP3    H145662   1.834   5.353  14.498  0.0723 -0.6248  1.0734
 8057TIP3    H245663   1.724   5.415  14.415  1.1226 -1.8530 -1.3401
 8058TIP3   OH245664   0.784   4.240  13.381  0.3726 -0.0541  0.4300
 8058TIP3    H145665   0.869   4.284  13.387 -0.0558  0.8212  0.1578
 8058TIP3    H245666   0.798   4.171  13.316  0.6497  0.6238 -0.2484
 8059TIP3   OH245667   3.449   4.952  16.148 -0.6871  0.3375 -0.2637
 8059TIP3    H145668   3.543   4.966  16.134 -1.0267  2.6269 -0.7288
 8059TIP3    H245669   3.431   4.868  16.107  1.4709 -1.1389  1.5368
 8060TIP3   OH245670   3.281   2.859  14.784 -0.2766  0.2826  0.3511
 8060TIP3    H145671   3.236   2.819  14.858  0.6476  0.2487  0.8965
 8060TIP3    H245672   3.341   2.792  14.752  0.3643  0.7854  0.4743
 8061TIP3   OH245673   2.640   4.069  16.579 -0.2559 -0.2734  0.3542
 8061TIP3    H145674   2.624   4.127  16.504  1.2443  0.4659  0.5865
 8061TIP3    H245675   2.631   4.126  16.656 -1.3872 -0.9435  0.7486
 8062TIP3   OH245676   6.679   0.858   5.837 -0.0363  0.0451  0.0325
 8062TIP3    H145677   6.633   0.864   5.754  1.0717  0.8253 -0.5622
 8062TIP3    H245678   6.763   0.818   5.815  1.2879  2.4696  0.2769
 8063TIP3   OH245679   4.208   5.908   3.653 -0.8628 -0.3506 -0.1744
 8063TIP3    H145680   4.123   5.885   3.615 -1.1645  2.0528 -1.0967
 8063TIP3    H245681   4.258   5.943   3.580 -0.4118  1.6909  1.0448
 8064TIP3   OH245682   0.923   3.200   2.279 -0.3676  0.4193  0.7970
 8064TIP3    H145683   0.875   3.124   2.247  0.8388 -0.5066  1.0778
 8064TIP3    H245684   0.892   3.212   2.369  0.4022 -0.6314  1.2338
 8065TIP3   OH245685   1.172   2.356   1.681 -0.2090 -0.3383  0.0021
 8065TIP3    H145686   1.163   2.263   1.701  1.2742 -0.4674  0.2212
 8065TIP3    H245687   1.107   2.373   1.613 -2.5252 -0.8356  1.9519
 8066TIP3   OH245688   6.287   4.075   5.178  0.2714  0.9193  0.1786
 8066TIP3    H145689   6.259   3.983   5.176 -1.3427  1.3067  2.0203
 8066TIP3    H245690   6.383   4.070   5.173  0.2374 -0.8897  0.5324
 8067TIP3   OH245691   2.493   5.569  12.591 -0.5824  0.0684 -0.2207
 8067TIP3    H145692   2.559   5.505  12.616 -0.4865  0.0579 -0.4926
 8067TIP3    H245693   2.500   5.638  12.657  1.9331  1.6600 -1.9772
 8068TIP3   OH245694   0.814   5.950  14.618  0.1600  0.1087 -0.0535
 8068TIP3    H145695   0.785   5.997  14.540  0.7436 -0.1680 -0.4387
 8068TIP3    H245696   0.805   6.014  14.689 -0.9693  0.1668 -0.2357
 8069TIP3   OH245697   2.928   4.553  12.135  0.3619 -0.1335 -0.1715
 8069TIP3    H145698   2.882   4.638  12.138 -0.7864 -0.7272 -0.4749
 8069TIP3    H245699   3.020   4.576  12.146  0.2308  1.2865 -1.6006
 8070TIP3   OH245700   3.758   6.722  14.999  0.3760  0.0171 -0.1016
 8070TIP3    H145701   3.752   6.756  14.909 -0.6050  1.4302  0.4594
 8070TIP3    H245702   3.679   6.669  15.009 -0.4000  1.2196  0.4267
 8071TIP3   OH245703   6.628   5.266  12.311  0.3114 -0.9787  0.8523
 8071TIP3    H145704   6.620   5.191  12.253 -0.6137 -1.0144  0.9988
 8071TIP3    H245705   6.711   5.307  12.288 -0.0594 -0.9601 -0.5346
 8072TIP3   OH245706   1.764   5.412  13.758  0.6997  0.8081 -0.0898
 8072TIP3    H145707   1.780   5.356  13.682 -0.8558  1.4398 -0.9374
 8072TIP3    H245708   1.850   5.445  13.782  1.7342 -2.1393  0.6398
 8073TIP3   OH245709   5.045   2.703   6.199  0.2500 -0.1729 -0.5909
 8073TIP3    H145710   5.010   2.763   6.134 -0.9258 -1.6736 -1.4100
 8073TIP3    H245711   5.100   2.758   6.255  1.0072  1.2335 -2.6035
 8074TIP3   OH245712   0.252   2.293   5.801 -0.3005 -0.7391  0.3301
 8074TIP3    H145713   0.226   2.385   5.812 -2.7454 -1.1952 -1.0222
 8074TIP3    H245714   0.314   2.294   5.728 -2.3949 -0.3957 -1.5378
 8075TIP3   OH245715   0.310   6.224   0.231  0.2869 -0.1995  0.4869
 8075TIP3    H145716   0.223   6.224   0.191  0.8112 -1.1781 -0.7332
 8075TIP3    H245717   0.296   6.187   0.318 -0.3618 -1.4378 -0.1198
 8076TIP3   OH245718   5.781   2.623   1.410 -0.5178  0.3289 -0.1820
 8076TIP3    H145719   5.783   2.714   1.438 -0.7688  0.6533 -1.1736
 8076TIP3    H245720   5.726   2.579   1.474  1.8382  0.2573  1.9491
 8077TIP3   OH245721   1.845   5.042   5.015 -0.1564  0.1707 -0.3332
 8077TIP3    H145722   1.913   4.974   5.011  0.5659  0.5526  2.8966
 8077TIP3    H245723   1.891   5.124   5.001  0.3816  0.5303  2.9538
 8078TIP3   OH245724   4.239   6.512   5.569 -0.4879  0.0396  0.3336
 8078TIP3    H145725   4.311   6.494   5.509  0.8435  0.4408  1.7514
 8078TIP3    H245726   4.225   6.606   5.562  0.4682  0.2843  1.4798
 8079TIP3   OH245727   5.008   0.135  15.543 -0.3514  0.1252  0.0892
 8079TIP3    H145728   4.960   0.068  15.592 -0.9513  2.5472  3.1224
 8079TIP3    H245729   5.095   0.135  15.582  1.0286 -1.5327 -2.7065
 8080TIP3   OH245730   3.853   3.018   2.036  0.3004 -0.3846  0.0841
 8080TIP3    H145731   3.760   3.031   2.058  0.4425  1.7855 -0.3642
 8080TIP3    H245732   3.869   2.926   2.054 -1.5686 -0.4757  1.5893
 8081TIP3   OH245733   6.481   1.092   1.593  0.3091  0.0185  0.0485
 8081TIP3    H145734   6.461   1.142   1.514 -0.9453  1.0959  1.0073
 8081TIP3    H245735   6.451   1.147   1.665  0.8728 -1.1941  1.2653
 8082TIP3   OH245736   5.057   6.806  16.399 -0.4434  0.2522 -0.4626
 8082TIP3    H145737   5.031   6.887  16.442 -0.0752  1.2791 -2.0646
 8082TIP3    H245738   5.134   6.830  16.348  0.6500 -1.5183  0.2874
 8083TIP3   OH245739   1.799   0.648  11.754  0.3846  0.6679 -0.6586
 8083TIP3    H145740   1.828   0.632  11.664  0.8655  1.3027 -0.6250
 8083TIP3    H245741   1.859   0.715  11.787 -0.2941  1.0369 -0.1328
 8084TIP3   OH245742   1.909   4.231  13.521  0.2926 -0.5438 -0.3861
 8084TIP3    H145743   1.976   4.163  13.533  0.8682  0.0305 -0.2911
 8084TIP3    H245744   1.837   4.186  13.478  0.2711 -1.4440  0.5475
 8085TIP3   OH245745   2.528   2.704   0.072 -0.1897 -0.0657 -0.6153
 8085TIP3    H145746   2.458   2.747   0.120 -0.6698  0.9292 -2.1285
 8085TIP3    H245747   2.515   2.730  -0.019  1.6804 -0.4873 -1.0640
 8086TIP3   OH245748   5.057   2.590  13.988 -0.2714  0.5807  0.5235
 8086TIP3    H145749   5.096   2.673  13.959  1.5932 -0.7260 -0.9328
 8086TIP3    H245750   5.098   2.572  14.072  2.9453 -1.0356 -1.2196
 8087TIP3   OH245751   1.232   4.345   4.229  0.1625 -0.1073  0.3821
 8087TIP3    H145752   1.275   4.430   4.241 -0.9087  0.5875 -0.4759
 8087TIP3    H245753   1.145   4.367   4.196 -0.1714 -1.5470  0.2495
 8088TIP3   OH245754   4.782   4.320  11.663 -0.5794  0.3232 -0.0479
 8088TIP3    H145755   4.776   4.253  11.594  0.5334  0.8959 -0.7465
 8088TIP3    H245756   4.808   4.400  11.616  0.5569  0.6424  1.0794
 8089TIP3   OH245757   1.423   2.127   1.892  0.3786 -0.5051  0.3846
 8089TIP3    H145758   1.413   2.216   1.927 -0.7279 -0.1670 -0.7082
 8089TIP3    H245759   1.475   2.138   1.813 -0.9104 -0.6131 -0.5049
 8090TIP3   OH245760   3.029   0.625  16.201  0.3075  0.0778  0.0927
 8090TIP3    H145761   2.985   0.702  16.239 -2.1984 -1.5138  0.6671
 8090TIP3    H245762   2.975   0.601  16.127  0.4570 -1.7127  0.5300
 8091TIP3   OH245763   0.975   0.714   1.394 -0.1774 -0.1041 -0.0518
 8091TIP3    H145764   0.903   0.770   1.367  1.1173  1.3825 -0.5689
 8091TIP3    H245765   1.007   0.754   1.475  0.5741 -0.2401 -0.2712
 8092TIP3   OH245766   4.759   3.695   0.693  0.1838 -0.0386 -0.0413
 8092TIP3    H145767   4.715   3.611   0.681  0.6884 -0.7478  2.5035
 8092TIP3    H245768   4.732   3.724   0.780  0.1786  2.3800 -0.7745
 8093TIP3   OH245769   5.284   0.473  11.069 -0.1635  0.5815 -0.4711
 8093TIP3    H145770   5.301   0.567  11.063  0.6182  0.7257  2.2847
 8093TIP3    H245771   5.355   0.432  11.019  0.0997  1.4330 -0.8009
 8094TIP3   OH245772   0.644   6.363   1.442  0.4542 -0.1977  0.2690
 8094TIP3    H145773   0.621   6.280   1.483  0.8024  0.7204  2.4253
 8094TIP3    H245774   0.563   6.392   1.399 -0.1197 -0.8790  0.8726
 8095TIP3   OH245775   6.202   3.577  12.330  0.2784 -0.9862 -0.0688
 8095TIP3    H145776   6.176   3.588  12.421  0.6024 -1.1542  0.0474
 8095TIP3    H245777   6.288   3.536  12.335 -0.5459 -2.8370 -0.4768
 8096TIP3   OH245778   5.023   4.094   3.315 -0.0035 -0.4837  0.2783
 8096TIP3    H145779   5.090   4.135   3.262 -0.8573 -0.7287 -1.0403
 8096TIP3    H245780   4.990   4.164   3.371 -0.7474  0.4179 -1.2290
 8097TIP3   OH245781   5.267   1.822   0.151  0.0247 -0.1252 -0.4664
 8097TIP3    H145782   5.218   1.840   0.071 -1.7477  0.4133  0.7045
 8097TIP3    H245783   5.236   1.736   0.180  1.4966 -0.8548 -0.9052
 8098TIP3   OH245784   5.108   3.267  12.416  0.5474  0.0365  0.1347
 8098TIP3    H145785   5.170   3.340  12.423 -0.4478  0.9201 -0.0950
 8098TIP3    H245786   5.105   3.229  12.504  2.8081 -1.2332 -0.2440
 8099TIP3   OH245787   6.598   3.491  15.955  0.6873  0.1043  0.2521
 8099TIP3    H145788   6.693   3.489  15.967  0.6041 -0.7234  0.8357
 8099TIP3    H245789   6.570   3.574  15.994  1.3031  0.9799 -1.0870
 8100TIP3   OH245790   5.216   5.388  11.917 -0.2443  0.5196  0.2881
 8100TIP3    H145791   5.213   5.293  11.903  0.6036  0.9005 -3.6930
 8100TIP3    H245792   5.124   5.414  11.924 -0.5211 -0.4872  0.5998
 8101TIP3   OH245793   1.556   4.723  15.293  0.5084  0.2128  0.1197
 8101TIP3    H145794   1.543   4.814  15.266 -0.6483 -0.1877 -0.7583
 8101TIP3    H245795   1.582   4.729  15.386 -0.7751  1.3809  0.4332
 8102TIP3   OH245796   4.850   0.199   3.517 -0.3185 -0.3092  0.1127
 8102TIP3    H145797   4.916   0.256   3.557 -0.9642  0.7393 -0.2927
 8102TIP3    H245798   4.857   0.117   3.567 -0.7885  0.7972  2.1431
 8103TIP3   OH245799   1.100   6.010   3.727  0.3465 -0.6984 -0.5033
 8103TIP3    H145800   1.161   5.981   3.658  0.2673 -1.4573 -0.2645
 8103TIP3    H245801   1.090   6.104   3.711 -0.1901 -0.9688 -1.9386
 8104TIP3   OH245802   6.790   4.118   1.178  0.1731 -0.0631 -0.3993
 8104TIP3    H145803   6.846   4.042   1.161 -1.9855 -2.3883  1.7943
 8104TIP3    H245804   6.706   4.094   1.138 -0.2182  1.7795 -0.7409
 8105TIP3   OH245805   3.205   6.461   5.834 -0.5707 -0.6045  0.7065
 8105TIP3    H145806   3.175   6.376   5.801 -1.5729 -0.2937  0.7765
 8105TIP3    H245807   3.254   6.439   5.913  0.5087 -1.2283 -0.1103
 8106TIP3   OH245808   5.543   0.991   0.748 -0.0312 -0.0680 -0.3093
 8106TIP3    H145809   5.638   0.985   0.735  0.1086 -0.4091  0.7377
 8106TIP3    H245810   5.532   1.064   0.809 -0.3415 -0.7170  0.4287
 8107TIP3   OH245811   6.169   3.290  15.787 -0.2133 -0.3811  0.2783
 8107TIP3    H145812   6.189   3.199  15.766  0.9389 -0.2810  0.8954
 8107TIP3    H245813   6.254   3.333  15.790 -0.8044  1.0244 -1.3077
 8108TIP3   OH245814   3.016   0.831  11.351 -0.0460 -0.4487 -0.6473
 8108TIP3    H145815   3.061   0.874  11.278 -0.7028  2.9078  0.7479
 8108TIP3    H245816   2.934   0.799  11.313  1.4817 -2.8239 -2.2528
 8109TIP3   OH245817   4.081   0.623   1.445 -0.1941 -0.0724 -0.4020
 8109TIP3    H145818   4.167   0.663   1.430 -0.6796  1.0187 -0.3695
 8109TIP3    H245819   4.101   0.536   1.480  0.9412 -1.0143 -3.0822
 8110TIP3   OH245820   3.086   6.034  12.650 -0.1272  0.3375 -0.3646
 8110TIP3    H145821   3.016   5.997  12.704 -0.5462 -0.1899 -1.2378
 8110TIP3    H245822   3.052   6.027  12.560  1.5781 -1.1607 -0.9463
 8111TIP3   OH245823   3.728   0.882   2.143 -0.1547  0.2004 -0.2217
 8111TIP3    H145824   3.813   0.903   2.181 -0.9062  4.2698 -0.3228
 8111TIP3    H245825   3.747   0.818   2.074  2.5599 -0.0814  0.6832
 8112TIP3   OH245826   5.419   4.431   1.427  0.0507 -0.1332  0.5059
 8112TIP3    H145827   5.399   4.506   1.483 -0.2838 -0.2867  0.5910
 8112TIP3    H245828   5.513   4.416   1.439  0.0155 -0.0495  0.8755
 8113TIP3   OH245829   5.960   3.476   4.586  0.1515 -0.2992 -0.2228
 8113TIP3    H145830   5.962   3.565   4.621 -0.0942 -1.3635  2.7781
 8113TIP3    H245831   5.867   3.458   4.572 -0.2225 -1.1821  2.6327
 8114TIP3   OH245832   3.904   0.986   5.018 -0.5859  0.2803  0.0735
 8114TIP3    H145833   3.938   1.014   4.933  0.5148  1.0377  0.7398
 8114TIP3    H245834   3.982   0.969   5.071 -1.2304  1.2715  1.3983
 8115TIP3   OH245835   2.652   6.383   4.820  0.1865  0.1188 -0.5912
 8115TIP3    H145836   2.710   6.427   4.883  0.8199 -1.0770 -0.2985
 8115TIP3    H245837   2.594   6.452   4.788  1.9253  1.4297 -1.0685
 8116TIP3   OH245838   3.826   0.712   3.638  0.1660 -0.2619 -0.1750
 8116TIP3    H145839   3.875   0.794   3.647 -0.9426  0.3860  0.1744
 8116TIP3    H245840   3.834   0.689   3.545  0.8722 -0.0051 -0.1785
 8117TIP3   OH245841   0.285   2.937  15.366 -0.0348  0.0238  0.3183
 8117TIP3    H145842   0.352   2.958  15.301 -0.0835  0.1834  0.3197
 8117TIP3    H245843   0.298   3.000  15.436 -0.9876  0.8795 -0.2492
 8118TIP3   OH245844   0.995   0.277   3.936  0.5646 -0.5737  0.3087
 8118TIP3    H145845   1.045   0.354   3.962 -0.7202 -0.2834  2.1166
 8118TIP3    H245846   1.030   0.207   3.991  1.3433 -1.1885 -0.9279
 8119TIP3   OH245847   6.359   1.306  16.755 -0.1454  0.9459  0.4503
 8119TIP3    H145848   6.342   1.400  16.750 -1.3100  0.7300  0.2021
 8119TIP3    H245849   6.327   1.281  16.842 -1.5481  0.4595 -0.1867
 8120TIP3   OH245850   6.214   3.429   1.061  0.3248 -0.2730  0.1768
 8120TIP3    H145851   6.202   3.427   1.156 -0.7937  2.0373  0.1557
 8120TIP3    H245852   6.130   3.460   1.027  0.0695 -2.7216 -1.7859
 8121TIP3   OH245853   2.141   1.391   2.477 -0.0023 -0.4316  0.5701
 8121TIP3    H145854   2.097   1.476   2.484 -0.0758 -0.3636 -0.5534
 8121TIP3    H245855   2.117   1.359   2.390 -0.0274 -1.6433  1.0048
 8122TIP3   OH245856   1.413   2.998  11.204 -0.0645 -0.8591 -0.7237
 8122TIP3    H145857   1.357   3.014  11.281  0.8138  3.3404 -0.6979
 8122TIP3    H245858   1.352   2.976  11.134 -1.6835  1.5495 -0.2082
 8123TIP3   OH245859   2.062   0.243   1.802  0.6970 -0.4159  0.0149
 8123TIP3    H145860   2.037   0.330   1.835 -2.1422 -0.9830 -0.3927
 8123TIP3    H245861   2.096   0.197   1.878 -2.4270 -0.5217  1.4732
 8124TIP3   OH245862   1.766   2.810   5.623 -0.0935  0.4780 -0.3237
 8124TIP3    H145863   1.835   2.868   5.656  0.9103 -0.5985 -0.4831
 8124TIP3    H245864   1.808   2.760   5.553 -0.6628 -1.1081  0.4342
 8125TIP3   OH245865   4.690   4.214   6.728 -0.6363 -0.1251  0.0285
 8125TIP3    H145866   4.740   4.150   6.676  1.7577  0.8631  0.9527
 8125TIP3    H245867   4.657   4.276   6.663  0.5301 -0.0604 -0.5512
 8126TIP3   OH245868   6.442   5.641   6.489 -0.5054  0.1816  0.2627
 8126TIP3    H145869   6.476   5.552   6.488 -0.6848  0.0826 -1.6157
 8126TIP3    H245870   6.355   5.634   6.451 -0.1143  1.2704 -0.9336
 8127TIP3   OH245871   4.904   2.045  14.340  0.1199  0.3139 -0.2078
 8127TIP3    H145872   4.968   2.013  14.404 -0.1483  0.4102  0.1084
 8127TIP3    H245873   4.933   2.134  14.320  0.8075 -0.0807 -1.0101
 8128TIP3   OH245874   4.130   4.082   1.954  0.2625 -0.4514 -0.2008
 8128TIP3    H145875   4.082   4.010   1.994 -0.6563 -0.2839 -0.9635
 8128TIP3    H245876   4.218   4.049   1.941 -0.0375 -1.2844 -0.1401
 8129TIP3   OH245877   3.067   2.952   2.628  0.2437  0.7126  0.1766
 8129TIP3    H145878   3.001   2.965   2.696 -0.0768 -0.5038  0.1188
 8129TIP3    H245879   3.034   2.879   2.576  2.1485 -0.6651  0.8080
 8130TIP3   OH245880   3.147   2.925  15.805  0.1071  0.3073 -0.5005
 8130TIP3    H145881   3.168   2.978  15.728  0.3212  1.3464  0.2497
 8130TIP3    H245882   3.054   2.940  15.819  0.2319  0.7280 -0.1122
 8131TIP3   OH245883   3.848   4.642  16.434  0.8167  0.6735 -0.9197
 8131TIP3    H145884   3.811   4.681  16.355  0.0979  0.9478 -0.4564
 8131TIP3    H245885   3.804   4.558  16.442  0.9035  0.6369 -0.8240
 8132TIP3   OH245886   3.144   2.495  11.941 -0.3005 -0.0597  0.3224
 8132TIP3    H145887   3.212   2.479  12.007  0.7498 -2.2175 -1.1357
 8132TIP3    H245888   3.073   2.436  11.965  0.3220 -1.2932 -0.6998
 8133TIP3   OH245889   0.953   2.614   5.800 -0.2612  0.2455 -0.4905
 8133TIP3    H145890   0.907   2.545   5.848  0.2414 -1.0527 -1.8022
 8133TIP3    H245891   1.044   2.586   5.800  0.2899  1.9084  0.5842
 8134TIP3   OH245892   0.782   4.968   5.708 -0.3585  0.0622 -0.7534
 8134TIP3    H145893   0.834   4.891   5.685  0.0647  0.5823 -1.5734
 8134TIP3    H245894   0.800   4.983   5.801  0.3776 -0.2068 -0.8498
 8135TIP3   OH245895   1.965   6.644  13.475  0.8249  0.3959 -0.1804
 8135TIP3    H145896   1.916   6.719  13.508  0.1445  0.8043 -1.9766
 8135TIP3    H245897   2.020   6.616  13.549 -0.5367  1.2588  1.2225
 8136TIP3   OH245898   1.964   5.158   1.365 -0.3537  0.1148  0.4977
 8136TIP3    H145899   1.947   5.187   1.455  0.5004 -0.5288  0.8866
 8136TIP3    H245900   1.912   5.078   1.356  1.2579 -1.0653  1.2058
 8137TIP3   OH245901   0.797   6.180   3.180  0.1704  0.2623  0.4023
 8137TIP3    H145902   0.716   6.130   3.190 -0.8025  1.0077 -2.5952
 8137TIP3    H245903   0.850   6.129   3.118 -0.1555  2.0312 -1.4349
 8138TIP3   OH245904   4.386   0.418  12.405  0.4844  0.3333 -0.2637
 8138TIP3    H145905   4.443   0.377  12.341  0.2707  2.3557 -1.8751
 8138TIP3    H245906   4.329   0.348  12.436  1.2692 -0.9094 -1.5552
 8139TIP3   OH245907   2.195   2.673  13.160  0.3828  0.0590  0.3243
 8139TIP3    H145908   2.281   2.643  13.187  0.4121 -0.0069  0.1642
 8139TIP3    H245909   2.134   2.619  13.211  0.4355 -0.3414 -0.0244
 8140TIP3   OH245910   5.983   3.718  11.276 -0.1045  0.4002  0.2372
 8140TIP3    H145911   5.962   3.751  11.189 -1.2385  1.4530  0.8703
 8140TIP3    H245912   5.929   3.640  11.286  1.4462 -0.8561 -0.6851
 8141TIP3   OH245913   2.865   6.368  11.337  0.6360  0.1351 -0.2414
 8141TIP3    H145914   2.898   6.383  11.248  0.0834  2.5914 -0.0883
 8141TIP3    H245915   2.920   6.421  11.393 -0.3386  0.2656  0.6282
 8142TIP3   OH245916   4.269   4.087   5.825  0.4567 -0.1179 -0.3285
 8142TIP3    H145917   4.297   4.165   5.871 -0.7245 -0.0643  0.3538
 8142TIP3    H245918   4.341   4.024   5.837  0.5178  0.1615  0.9330
 8143TIP3   OH245919   6.438   1.109  12.192  0.1668  0.2048  0.1408
 8143TIP3    H145920   6.479   1.026  12.169 -1.1747 -0.9103  1.5569
 8143TIP3    H245921   6.429   1.106  12.288 -0.6715  1.6080  0.1376
 8144TIP3   OH245922   3.462   1.149   0.486 -0.3548  0.1512 -0.0662
 8144TIP3    H145923   3.545   1.189   0.458  1.1191  0.0910  3.6313
 8144TIP3    H245924   3.478   1.055   0.482 -1.1855  0.0448 -1.6516
 8145TIP3   OH245925   3.848   5.859   2.634  0.3900 -0.0211 -1.1320
 8145TIP3    H145926   3.934   5.898   2.616  0.0606  0.6524 -1.3103
 8145TIP3    H245927   3.867   5.774   2.672  1.1988  1.1387  1.2196
 8146TIP3   OH245928   5.258   5.132   0.521 -0.1892  0.1546 -0.2425
 8146TIP3    H145929   5.209   5.079   0.585  0.7493 -0.0249  0.3429
 8146TIP3    H245930   5.345   5.141   0.559 -0.1187  1.5174 -0.6887
 8147TIP3   OH245931   1.965   3.524  15.517 -0.2153  0.0413 -0.1949
 8147TIP3    H145932   1.918   3.454  15.473  0.7290 -1.7534  1.4874
 8147TIP3    H245933   1.997   3.580  15.446 -1.3911 -0.9613 -1.5689
 8148TIP3   OH245934   0.272   1.799  11.553  0.9126 -0.1491 -0.2553
 8148TIP3    H145935   0.280   1.796  11.458  1.4669 -0.0019 -0.2163
 8148TIP3    H245936   0.255   1.891  11.573  1.5529 -0.0536 -0.1554
 8149TIP3   OH245937   2.854   1.381   5.274  0.0441  0.0458 -0.3741
 8149TIP3    H145938   2.920   1.428   5.324 -1.3937  0.8115  0.8603
 8149TIP3    H245939   2.794   1.346   5.340  0.0155 -1.9366 -1.3716
 8150TIP3   OH245940   0.381   3.623   4.787 -0.2022  0.0754  0.0843
 8150TIP3    H145941   0.300   3.617   4.736 -0.9090 -0.7964  1.2469
 8150TIP3    H245942   0.380   3.545   4.842  0.7891  0.7170  1.0439
 8151TIP3   OH245943   3.795   4.716  11.524 -0.0985 -0.0456  0.2082
 8151TIP3    H145944   3.731   4.667  11.473 -2.3013  1.4749  1.3200
 8151TIP3    H245945   3.822   4.788  11.466  2.1806 -1.7171 -0.9601
 8152TIP3   OH245946   0.034   2.066   1.047  0.1896  0.0703  0.6474
 8152TIP3    H145947   0.042   2.129   1.119  1.6745 -0.4903  1.0168
 8152TIP3    H245948  -0.019   1.994   1.083 -0.0206  0.3035  0.8053
 8153TIP3   OH245949   6.664   1.815   0.000 -0.3741 -0.4287 -0.0865
 8153TIP3    H145950   6.691   1.848  -0.085 -1.5079  0.6347 -0.0465
 8153TIP3    H245951   6.605   1.742  -0.019 -0.8580 -0.0040 -0.2159
 8154TIP3   OH245952   4.120   3.095  14.900  0.8657  0.0238 -0.2872
 8154TIP3    H145953   4.070   3.014  14.887 -0.3379  0.6161  0.5481
 8154TIP3    H245954   4.209   3.071  14.876  0.1611 -0.9819 -2.1379
 8155TIP3   OH245955   1.745   0.845  12.321  0.5653 -0.0079 -0.2024
 8155TIP3    H145956   1.660   0.861  12.361  0.7276 -0.2463  0.2465
 8155TIP3    H245957   1.788   0.782  12.380  1.0114  0.0376 -0.4730
 8156TIP3   OH245958   1.783   4.726   0.932  0.4192 -0.4278 -0.6514
 8156TIP3    H145959   1.749   4.651   0.981 -1.7776  0.6509 -0.3857
 8156TIP3    H245960   1.750   4.713   0.843  1.7301 -0.7855 -1.0927
 8157TIP3   OH245961   1.398   3.848   3.290  0.1680 -0.2416  0.5079
 8157TIP3    H145962   1.464   3.917   3.290  0.2193 -0.2764 -0.7081
 8157TIP3    H245963   1.441   3.773   3.249  0.7997 -1.7327  3.5979
 8158TIP3   OH245964   0.494   0.067  12.686  0.4639  0.4400  0.2381
 8158TIP3    H145965   0.477   0.016  12.766  3.8760 -1.6479 -0.1893
 8158TIP3    H245966   0.424   0.041  12.626 -1.8629  1.6382  2.2473
 8159TIP3   OH245967   0.836   2.402  10.791  0.7342  0.0271  0.8206
 8159TIP3    H145968   0.819   2.367  10.704  0.9166 -0.7131  1.0707
 8159TIP3    H245969   0.888   2.481  10.775 -0.4604  0.7139  0.2042
 8160TIP3   OH245970   1.182   6.490   3.767 -0.4120 -0.1713  0.4767
 8160TIP3    H145971   1.167   6.563   3.826 -0.7911  0.4318 -0.3387
 8160TIP3    H245972   1.245   6.522   3.703 -0.1320 -0.7557  0.4483
 8161TIP3   OH245973   5.481   1.814   0.664 -0.0549 -0.5169  0.9601
 8161TIP3    H145974   5.441   1.898   0.686  2.9823  1.7896 -1.4581
 8161TIP3    H245975   5.497   1.773   0.749 -0.1247  2.1089  2.3658
 8162TIP3   OH245976   6.623   1.311  12.119  0.2739  0.2886 -0.1816
 8162TIP3    H145977   6.586   1.365  12.049 -0.0020 -0.5598 -0.7109
 8162TIP3    H245978   6.555   1.247  12.139  0.5077  0.2755  0.5950
 8163TIP3   OH245979   0.590   2.531   0.040  0.5275  0.4563 -0.7596
 8163TIP3    H145980   0.594   2.543   0.135  0.9867 -1.1398 -0.5562
 8163TIP3    H245981   0.527   2.598   0.010 -0.7351  0.0358  0.8421
 8164TIP3   OH245982   4.676   1.113   5.430  0.0291 -0.1446 -0.4939
 8164TIP3    H145983   4.767   1.110   5.461  1.0925 -1.1878 -3.3335
 8164TIP3    H245984   4.647   1.202   5.450  1.8814  0.4028 -0.0197
 8165TIP3   OH245985   0.592   3.975   4.995 -0.4935 -0.0687 -0.0509
 8165TIP3    H145986   0.524   3.931   4.943 -0.0308 -1.3422  0.3972
 8165TIP3    H245987   0.661   3.910   5.004 -0.1306  0.4809  1.3045
 8166TIP3   OH245988   0.151   1.138   4.432  0.1294 -0.3089  0.4106
 8166TIP3    H145989   0.087   1.135   4.361  0.6478  1.1550 -0.1444
 8166TIP3    H245990   0.178   1.047   4.444  0.0743 -0.5757 -1.2984
 8167TIP3   OH245991   1.345   0.493   5.345 -0.4520  0.2954 -0.4651
 8167TIP3    H145992   1.417   0.518   5.403 -0.5154  1.3636 -0.8111
 8167TIP3    H245993   1.374   0.521   5.258 -0.6715 -0.6064 -0.8360
 8168TIP3   OH245994   6.391   3.949  13.911 -0.3842 -0.0946 -0.0584
 8168TIP3    H145995   6.372   3.877  13.851  1.2950 -0.5005 -0.1491
 8168TIP3    H245996   6.397   4.026  13.855 -2.1501  0.1527  0.0343
 8169TIP3   OH245997   3.170   3.508   0.649  0.0015 -0.2182 -0.0988
 8169TIP3    H145998   3.154   3.421   0.686  0.0941 -0.6216 -0.9770
 8169TIP3    H245999   3.200   3.561   0.723 -1.8835 -0.4007  0.8402
 8170TIP3   OH246000   5.249   0.539   3.008 -0.4666 -0.4601  0.8344
 8170TIP3    H146001   5.315   0.609   3.011  0.1272 -0.9041 -0.9005
 8170TIP3    H246002   5.170   0.582   2.974 -0.0265 -0.6620 -0.4838
 8171TIP3   OH246003   0.982   1.412   1.860 -0.3949  0.1240  0.5103
 8171TIP3    H146004   0.914   1.348   1.882 -0.1233 -0.4329 -0.2076
 8171TIP3    H246005   0.954   1.449   1.776 -0.3300  0.6444  0.7134
 8172TIP3   OH246006   2.671   0.333   2.602  0.1684  0.2166  0.2072
 8172TIP3    H146007   2.733   0.402   2.576  1.3569 -0.8124  0.1910
 8172TIP3    H246008   2.719   0.281   2.666 -1.3433  0.4211  1.5510
 8173TIP3   OH246009   2.267   5.661   1.729 -0.0313  0.6077 -0.5437
 8173TIP3    H146010   2.269   5.706   1.814 -0.2581 -1.5275  0.6734
 8173TIP3    H246011   2.333   5.592   1.737 -1.6689 -1.1294 -1.1598
 8174TIP3   OH246012   0.488   2.901  14.618 -0.0850  0.1035  0.1266
 8174TIP3    H146013   0.423   2.971  14.620  0.4194  0.5835 -0.1351
 8174TIP3    H246014   0.520   2.897  14.709 -1.1401 -0.7757  0.4826
 8175TIP3   OH246015   0.883   0.978  12.072 -0.2082  0.2739  0.1314
 8175TIP3    H146016   0.960   0.969  12.129 -0.0257  1.6662  0.1353
 8175TIP3    H246017   0.907   1.048  12.011 -1.0130 -0.1192 -0.6474
 8176TIP3   OH246018   2.063   6.410  12.312  0.5389  0.2273 -0.2117
 8176TIP3    H146019   2.050   6.316  12.303 -0.6680  0.3369  0.2849
 8176TIP3    H246020   2.036   6.430  12.402 -0.1654  1.2010 -0.6274
 8177TIP3   OH246021   1.592   5.020  13.013  0.2250 -0.9234 -0.4150
 8177TIP3    H146022   1.647   5.050  13.085  0.0865 -0.9563 -0.2945
 8177TIP3    H246023   1.502   5.039  13.042  0.2638  1.5778 -1.7090
 8178TIP3   OH246024   1.372   6.037   2.093  0.5253 -0.0306  0.6645
 8178TIP3    H146025   1.439   5.968   2.099  0.4696 -0.1119  0.3857
 8178TIP3    H246026   1.420   6.118   2.113  1.1048  0.1259 -1.1425
 8179TIP3   OH246027   2.717   3.679   5.771 -0.1919 -0.0765 -0.2157
 8179TIP3    H146028   2.692   3.605   5.825  0.7241 -0.3958 -0.2090
 8179TIP3    H246029   2.753   3.743   5.833  0.8228 -0.4275 -0.4245
 8180TIP3   OH246030   6.759   3.489   5.123 -0.2710  0.0166 -0.1625
 8180TIP3    H146031   6.706   3.508   5.200  0.5245 -1.0036  0.6504
 8180TIP3    H246032   6.708   3.525   5.050 -0.5046  2.0106  0.9242
 8181TIP3   OH246033   2.480   3.868   4.207  0.0520 -0.3903 -0.0547
 8181TIP3    H146034   2.561   3.892   4.164 -0.6004  1.0426 -0.5502
 8181TIP3    H246035   2.412   3.887   4.143 -0.7985  0.0791  0.9554
 8182TIP3   OH246036   3.162   1.399   1.397 -0.3809  0.4463 -0.8832
 8182TIP3    H146037   3.239   1.424   1.448  1.2059  0.1110 -2.9492
 8182TIP3    H246038   3.119   1.332   1.450  1.1342  0.1763  0.0794
 8183TIP3   OH246039   2.817   0.834   4.078  0.4605  0.1014 -0.1042
 8183TIP3    H146040   2.743   0.799   4.028 -0.5717 -0.5962  1.8068
 8183TIP3    H246041   2.893   0.821   4.021 -0.5022 -1.6341 -1.0711
 8184TIP3   OH246042   5.682   2.541  11.360  0.0158  0.2930  0.4717
 8184TIP3    H146043   5.617   2.607  11.337 -0.4532 -0.0737  0.7340
 8184TIP3    H246044   5.632   2.472  11.404  0.6154  0.1055  0.8641
 8185TIP3   OH246045   2.992   5.336   5.169  0.2537  0.1422  0.3280
 8185TIP3    H146046   3.048   5.399   5.124 -0.1988  0.9320  0.8408
 8185TIP3    H246047   2.926   5.390   5.213 -0.1524 -0.6948  0.7689
 8186TIP3   OH246048   6.134   0.117   3.087 -0.1189  0.4390 -0.1918
 8186TIP3    H146049   6.044   0.086   3.090 -0.6436  1.7976 -1.2230
 8186TIP3    H246050   6.129   0.209   3.113  0.8406  0.7489 -1.0255
 8187TIP3   OH246051   4.806   2.363   4.633  0.0413  0.7396  0.0530
 8187TIP3    H146052   4.807   2.410   4.550 -1.0696  0.3657 -0.2014
 8187TIP3    H246053   4.887   2.312   4.633  1.0241  2.2536  0.1208
 8188TIP3   OH246054   2.198   4.739  16.241  0.5394  0.4994 -0.7406
 8188TIP3    H146055   2.161   4.746  16.328 -0.4998  0.4133 -1.1663
 8188TIP3    H246056   2.290   4.716  16.255  0.0298 -0.9747  0.2819
 8189TIP3   OH246057   1.707   1.109   4.361 -0.2369  0.4705 -0.9414
 8189TIP3    H146058   1.699   1.013   4.365  1.7012  0.2673 -0.9495
 8189TIP3    H246059   1.723   1.135   4.452 -3.6064  1.1822 -0.4125
 8190TIP3   OH246060   0.571   2.811  16.969  0.2160  0.1851  0.2725
 8190TIP3    H146061   0.516   2.766  17.033 -0.5357  0.4692 -0.1639
 8190TIP3    H246062   0.541   2.779  16.884  0.0459  1.0888 -0.0172
 8191TIP3   OH246063   2.271   0.107   4.245  0.6975  0.1211 -0.6956
 8191TIP3    H146064   2.267   0.130   4.152  0.7834  1.5573 -0.3732
 8191TIP3    H246065   2.262   0.191   4.291  2.4761 -0.3170  0.5619
 8192TIP3   OH246066   6.504   2.274   2.159  0.0084 -0.1291 -0.4191
 8192TIP3    H146067   6.511   2.275   2.063 -0.5536  1.6021 -0.4772
 8192TIP3    H246068   6.460   2.192   2.179  1.3691 -1.1695 -1.5294
 8193TIP3   OH246069   2.275   1.536   0.804 -0.9732 -0.3197  0.0453
 8193TIP3    H146070   2.227   1.454   0.798  0.8831 -1.5440  0.9831
 8193TIP3    H246071   2.288   1.549   0.898 -0.4458  0.5717 -0.1348
 8194TIP3   OH246072   1.812   6.126   1.030 -0.0474 -0.3002  0.5895
 8194TIP3    H146073   1.860   6.130   0.948 -2.0613 -2.5385 -0.8425
 8194TIP3    H246074   1.801   6.217   1.056  3.4929  0.3813  0.2398
 8195TIP3   OH246075   4.145   0.131   5.865  0.1779 -0.0414 -0.3831
 8195TIP3    H146076   4.166   0.040   5.843 -0.4299  0.0087 -1.2431
 8195TIP3    H246077   4.112   0.127   5.955  1.5149 -0.4536  0.0993
 8196TIP3   OH246078   2.653   6.720  15.325 -0.1662  0.0001 -0.4576
 8196TIP3    H146079   2.723   6.768  15.281  0.9552 -0.8756  0.3179
 8196TIP3    H246080   2.588   6.787  15.348  0.9233  1.0040 -0.2127
 8197TIP3   OH246081   0.889   2.410   2.333  0.1682 -0.0237 -0.3621
 8197TIP3    H146082   0.950   2.337   2.348 -0.1835 -0.3503 -0.5026
 8197TIP3    H246083   0.804   2.368   2.317  0.4287  0.2456 -3.0253
 8198TIP3   OH246084   0.004   5.514  14.945  0.4795  0.4464 -0.2119
 8198TIP3    H146085   0.048   5.430  14.933 -0.4248 -0.0428 -0.1943
 8198TIP3    H246086  -0.029   5.511  15.035 -0.3364  0.4359 -0.5001
 8199TIP3   OH246087   6.261   2.824  13.352  0.1740  0.2176 -0.4988
 8199TIP3    H146088   6.260   2.828  13.447  0.9817  0.1268 -0.4796
 8199TIP3    H246089   6.328   2.886  13.325 -0.8320  1.1046 -1.0792
 8200TIP3   OH246090   2.936   6.585  13.553  0.0806  0.1658 -0.0589
 8200TIP3    H146091   2.937   6.658  13.616  1.5014 -0.1668  0.3558
 8200TIP3    H246092   2.849   6.547  13.561 -0.1208  0.7968  0.9393
 8201TIP3   OH246093   5.458   5.958  17.146  0.1337 -0.1863  0.1853
 8201TIP3    H146094   5.459   6.053  17.156  0.9905 -0.0558 -0.9301
 8201TIP3    H246095   5.545   5.930  17.175  0.2281 -0.5213 -0.4085
 8202TIP3   OH246096   5.632   5.862  12.512 -0.2284 -0.2007  0.2777
 8202TIP3    H146097   5.640   5.768  12.496 -0.9330 -0.6820  2.4237
 8202TIP3    H246098   5.589   5.869  12.597  0.1543  2.0767  0.3630
 8203TIP3   OH246099   3.300   0.093  15.657 -0.0513  0.7649 -0.3924
 8203TIP3    H146100   3.280   0.071  15.566 -2.2534  0.4299  0.1088
 8203TIP3    H246101   3.215   0.115  15.695  0.7447  0.4179  1.7107
 8204TIP3   OH246102   5.040   0.660   3.604  0.5472 -0.3061 -0.1876
 8204TIP3    H146103   4.970   0.686   3.545 -0.7430  0.3024  1.5376
 8204TIP3    H246104   5.068   0.742   3.646  1.2637 -0.7500  0.2252
 8205TIP3   OH246105   3.818   2.273   5.543 -0.0500 -0.6096  0.4153
 8205TIP3    H146106   3.733   2.230   5.552 -1.3486  1.3890 -1.5223
 8205TIP3    H246107   3.818   2.340   5.611  0.0867 -0.7462  0.5521
 8206TIP3   OH246108   4.270   1.322   2.178 -0.3877 -0.4574 -0.3274
 8206TIP3    H146109   4.321   1.243   2.190 -0.2409 -0.0922  2.1318
 8206TIP3    H246110   4.319   1.375   2.115  1.2909 -0.9122  0.5558
 8207TIP3   OH246111   6.123   5.845  14.408 -0.3243 -0.2577 -0.4706
 8207TIP3    H146112   6.107   5.937  14.428  0.6794  0.0368 -0.9783
 8207TIP3    H246113   6.036   5.806  14.408 -0.5981  0.1468  2.2291
 8208TIP3   OH246114   4.868   6.822  14.716 -0.1482  0.1080  0.2311
 8208TIP3    H146115   4.774   6.830  14.729  0.0258  1.6433  0.7664
 8208TIP3    H246116   4.906   6.843  14.802  0.6753 -0.8270  0.1150
 8209TIP3   OH246117   4.857   2.494  13.136  0.3167 -0.5646  0.1569
 8209TIP3    H146118   4.875   2.517  13.227  0.6015  1.7630 -0.4406
 8209TIP3    H246119   4.911   2.416  13.120  0.7801 -0.6034  1.7727
 8210TIP3   OH246120   1.315   2.621   1.616  0.0729 -0.4300 -0.5635
 8210TIP3    H146121   1.335   2.714   1.614  1.4755 -0.6920  0.0491
 8210TIP3    H246122   1.263   2.609   1.695  2.3403 -0.5672  1.0014
 8211TIP3   OH246123   0.576   4.784   3.450 -0.5285  0.3736 -0.5397
 8211TIP3    H146124   0.554   4.834   3.528  1.0340  0.2384  0.0114
 8211TIP3    H246125   0.556   4.693   3.473  1.2609  0.1485  0.2482
 8212TIP3   OH246126   1.665   0.568   4.222  0.1723  0.0976  0.4147
 8212TIP3    H146127   1.704   0.624   4.288 -1.4232 -0.3433  1.8025
 8212TIP3    H246128   1.602   0.624   4.177 -0.8811 -0.3235  1.3035
 8213TIP3   OH246129   6.053   3.617  12.108 -0.0071  0.1427  0.3873
 8213TIP3    H146130   6.120   3.594  12.174  0.2447  1.6541  0.6817
 8213TIP3    H246131   5.975   3.570  12.137  0.5804 -0.6333  0.7650
 8214TIP3   OH246132   1.993   1.204   6.002  0.5267  0.4323  0.1734
 8214TIP3    H146133   1.986   1.166   5.915 -0.5099 -0.2551  0.5372
 8214TIP3    H246134   1.949   1.141   6.059  1.5448  0.6675  1.2607
 8215TIP3   OH246135   0.032   6.087  12.029 -0.1549 -0.1859 -0.0148
 8215TIP3    H146136  -0.026   6.157  12.001  0.3604  0.8794  1.4439
 8215TIP3    H246137  -0.025   6.022  12.071 -0.5626 -0.3496 -0.8196
 8216TIP3   OH246138   1.656   1.605   6.707  0.1441 -0.0665  0.0659
 8216TIP3    H146139   1.604   1.658   6.767  0.6938 -0.9168  1.3415
 8216TIP3    H246140   1.747   1.619   6.734  0.2893 -1.8786  0.6928
 8217TIP3   OH246141   3.454   0.315   0.816  0.1828  0.1273  0.0128
 8217TIP3    H146142   3.394   0.275   0.753  0.1593  1.6851 -1.0073
 8217TIP3    H246143   3.430   0.276   0.900 -2.4730  0.8770 -0.2977
 8218TIP3   OH246144   6.207   1.894  11.595  0.3486 -0.7714  0.1255
 8218TIP3    H146145   6.260   1.856  11.525  0.6362 -0.5688  0.2321
 8218TIP3    H246146   6.225   1.988  11.589 -0.7950 -0.5681 -0.5168
 8219TIP3   OH246147   0.047   4.749  13.431  0.4269 -0.2174 -0.6308
 8219TIP3    H146148  -0.024   4.701  13.473 -0.2739  1.4307  0.1794
 8219TIP3    H246149   0.127   4.710  13.465 -0.0917 -1.3261 -0.6466
 8220TIP3   OH246150   2.771   2.137   6.443 -0.1601 -0.5655 -0.5814
 8220TIP3    H146151   2.789   2.074   6.372  1.0472 -1.2986  0.3244
 8220TIP3    H246152   2.840   2.120   6.507 -0.5047  0.9180  0.2225
 8221TIP3   OH246153   5.367   3.722  15.730  0.3563  0.0731 -0.6519
 8221TIP3    H146154   5.455   3.744  15.699  0.2592  1.3019 -0.1000
 8221TIP3    H246155   5.321   3.692  15.651  0.5313  1.8312 -1.4825
 8222TIP3   OH246156   1.068   6.507  12.625  0.0582  0.0732  0.1458
 8222TIP3    H146157   1.050   6.551  12.708  0.0184 -1.2476  0.8644
 8222TIP3    H246158   1.059   6.576  12.559  0.2764  1.1887  1.2440
 8223TIP3   OH246159   6.532   4.168  11.696 -0.2575 -0.2889 -0.1691
 8223TIP3    H146160   6.486   4.087  11.718  1.8012 -1.5423 -0.1537
 8223TIP3    H246161   6.563   4.202  11.780  0.8189 -0.7692 -0.3451
 8224TIP3   OH246162   3.348   6.261  14.110 -0.1690  0.3940  0.0626
 8224TIP3    H146163   3.402   6.186  14.087 -0.9971  0.1973 -1.4182
 8224TIP3    H246164   3.307   6.287  14.027 -1.0831  1.5254  0.8312
 8225TIP3   OH246165   6.509   0.313  11.766  0.3668 -0.0344 -0.1695
 8225TIP3    H146166   6.528   0.243  11.828  0.7732 -1.2394 -1.6056
 8225TIP3    H246167   6.583   0.374  11.777  1.1151 -0.8778 -0.3548
 8226TIP3   OH246168   5.560   4.221  11.255 -0.7075  0.4073  0.5092
 8226TIP3    H146169   5.577   4.128  11.247 -1.9127  0.2951 -1.3236
 8226TIP3    H246170   5.553   4.237  11.349  3.2938 -0.5628  1.1787
 8227TIP3   OH246171   2.193   5.308  13.999  0.0509 -0.0619 -0.2257
 8227TIP3    H146172   2.183   5.258  13.918  0.1397  0.1813 -0.3881
 8227TIP3    H246173   2.110   5.297  14.045 -0.1412  0.1093 -0.5273
 8228TIP3   OH246174   6.423   2.649   0.417  0.3474  0.0042  0.5327
 8228TIP3    H146175   6.368   2.578   0.449  2.1562 -1.6191  0.2093
 8228TIP3    H246176   6.364   2.704   0.366 -1.3110 -0.6985  1.6324
 8229TIP3   OH246177   5.639   1.670   2.656 -0.2371 -0.1573  1.0342
 8229TIP3    H146178   5.568   1.612   2.685  0.0754 -0.9718  0.1757
 8229TIP3    H246179   5.649   1.732   2.729 -0.3701 -1.3444  2.0983
 8230TIP3   OH246180   0.833   2.564   1.591 -0.2758  0.1296 -0.0980
 8230TIP3    H146181   0.819   2.557   1.685 -0.8717  2.0156 -0.0018
 8230TIP3    H246182   0.744   2.563   1.554 -0.0228 -1.2880 -0.7247
 8231TIP3   OH246183   2.319   4.921  10.802 -0.0839 -0.0851  0.8349
 8231TIP3    H146184   2.398   4.969  10.828  0.7611 -0.2428 -1.1794
 8231TIP3    H246185   2.298   4.956  10.715 -2.4325  0.1353  1.4212
 8232TIP3   OH246186   0.817   0.526   0.300  0.1954  0.0061 -0.1570
 8232TIP3    H146187   0.798   0.441   0.262  2.4913 -0.8111  0.3529
 8232TIP3    H246188   0.855   0.507   0.386 -4.6154  1.7693  2.7871
 8233TIP3   OH246189   5.810   1.180  14.857  0.0729 -0.2684 -0.4181
 8233TIP3    H146190   5.846   1.119  14.793  0.3683  0.5676 -1.0757
 8233TIP3    H246191   5.743   1.130  14.904 -1.0128 -0.5610 -2.1984
 8234TIP3   OH246192   3.606   4.355   0.891 -0.2266 -0.0068 -0.4604
 8234TIP3    H146193   3.600   4.434   0.837 -0.3562 -0.5338 -1.2215
 8234TIP3    H246194   3.518   4.317   0.888  0.5691 -1.8742 -2.7092
 8235TIP3   OH246195   4.543   4.984   0.314  0.3867  0.4566 -0.2780
 8235TIP3    H146196   4.587   5.044   0.375 -1.1566  0.8667  0.5084
 8235TIP3    H246197   4.469   4.950   0.364  1.6320 -2.8012 -0.4106
 8236TIP3   OH246198   6.390   1.700   0.130 -0.5664  0.6354 -0.2907
 8236TIP3    H146199   6.384   1.742   0.044 -0.3789 -0.5153 -0.8781
 8236TIP3    H246200   6.373   1.771   0.192  3.2930  2.5272 -1.0621
 8237TIP3   OH246201   4.107   5.807  12.663  0.1572  0.0772  0.0458
 8237TIP3    H146202   4.151   5.887  12.634  0.3611  0.0336  0.2329
 8237TIP3    H246203   4.107   5.813  12.758 -1.3515  0.6773  0.0352
 8238TIP3   OH246204   6.848   4.824   0.290  0.4569 -0.1703  0.1951
 8238TIP3    H146205   6.758   4.807   0.321  0.2228 -1.7628 -1.1740
 8238TIP3    H246206   6.841   4.903   0.237 -0.5290 -1.1185 -1.1832
 8239TIP3   OH246207   6.659   3.945  16.560 -0.6444  0.5868  0.1544
 8239TIP3    H146208   6.673   3.995  16.479  0.0149 -0.3106 -0.2992
 8239TIP3    H246209   6.646   3.855  16.530 -1.4839  0.4141  0.9857
 8240TIP3   OH246210   1.555   3.227  11.168 -0.3883 -0.5961  0.0352
 8240TIP3    H146211   1.645   3.197  11.182  0.2882  1.0726 -0.5358
 8240TIP3    H246212   1.501   3.156  11.204  1.0731 -2.8260 -1.8156
 8241TIP3   OH246213   3.438   3.364  16.039  0.3727 -0.5877  0.6259
 8241TIP3    H146214   3.400   3.290  15.991 -0.7911 -0.1946  0.9001
 8241TIP3    H246215   3.379   3.376  16.114 -2.2794  3.5137 -1.7809
 8242TIP3   OH246216   1.926   2.645   3.378  0.2452  1.0561  0.6266
 8242TIP3    H146217   1.969   2.696   3.447  1.4820  0.7058  0.1350
 8242TIP3    H246218   1.945   2.693   3.298 -2.8548  2.5873  0.6339
 8243TIP3   OH246219   3.897   5.045  13.417  0.0159 -0.9085  0.1458
 8243TIP3    H146220   3.839   4.969  13.426 -1.2819  0.1180  0.6976
 8243TIP3    H246221   3.932   5.060  13.504  0.6794 -1.1764 -0.0692
 8244TIP3   OH246222   1.003   0.016  17.170 -0.0051  0.5282  0.0355
 8244TIP3    H146223   0.974   0.106  17.151 -0.5610  0.8158  2.0721
 8244TIP3    H246224   0.985   0.004  17.263  1.5786 -1.1449  0.1754
 8245TIP3   OH246225   2.369   3.163   3.401  0.1015 -0.5080 -0.6213
 8245TIP3    H146226   2.377   3.092   3.338 -0.4605 -0.6900 -0.4976
 8245TIP3    H246227   2.283   3.149   3.441 -0.2565  0.5521 -0.9822
 8246TIP3   OH246228   6.139   1.351  11.959  0.7639  0.3405 -0.4789
 8246TIP3    H146229   6.187   1.269  11.966 -0.1916 -0.0961  1.4364
 8246TIP3    H246230   6.049   1.325  11.939  0.2558  0.8489  1.0500
 8247TIP3   OH246231   1.893   1.470   6.109 -0.3825  0.9026  0.1205
 8247TIP3    H146232   1.875   1.402   6.044 -1.5627 -0.9704  2.2484
 8247TIP3    H246233   1.808   1.486   6.151  0.2601  2.3048  0.9709
 8248TIP3   OH246234   3.647   3.733   5.851 -0.3921 -0.2406  0.6995
 8248TIP3    H146235   3.738   3.756   5.832 -0.7071  1.2625  0.8721
 8248TIP3    H246236   3.630   3.773   5.936 -1.8909  1.6133 -0.3806
 8249TIP3   OH246237   4.380   4.007   4.182 -0.0666 -0.2103  0.1403
 8249TIP3    H146238   4.367   3.943   4.252  1.6262 -0.2881  0.4245
 8249TIP3    H246239   4.354   3.962   4.102 -0.3243 -0.7326  0.5125
 8250TIP3   OH246240   4.652   2.534  13.613  0.8931  0.4428  0.1964
 8250TIP3    H146241   4.651   2.546  13.518 -1.6416 -0.6045  0.0100
 8250TIP3    H246242   4.722   2.472  13.629  2.4895  1.9121 -0.7551
 8251TIP3   OH246243   6.393   3.104  12.603  0.7111  0.0316  0.4813
 8251TIP3    H146244   6.319   3.108  12.663 -0.1557  0.2113 -0.5737
 8251TIP3    H246245   6.359   3.060  12.525  1.6390  0.3549 -0.1254
 8252TIP3   OH246246   5.895   5.569   1.890 -0.1945  0.0043  0.1570
 8252TIP3    H146247   5.813   5.567   1.939  0.1466 -1.6503  0.7477
 8252TIP3    H246248   5.877   5.518   1.810  0.1163  0.0460  0.0575
 8253TIP3   OH246249   5.874   3.825  10.392  0.4718  0.4132  0.1181
 8253TIP3    H146250   5.868   3.920  10.384  0.3884  0.3288 -1.1178
 8253TIP3    H246251   5.793   3.792  10.354  0.6306 -0.1616  0.2652
 8254TIP3   OH246252   5.275   0.242   5.803 -0.1015  0.6148 -0.3559
 8254TIP3    H146253   5.345   0.179   5.786 -0.6820  0.5688 -2.9483
 8254TIP3    H246254   5.203   0.214   5.747 -1.3628  2.0262  0.4778
 8255TIP3   OH246255   5.032   4.552   5.152 -0.5674 -0.3409  0.1395
 8255TIP3    H146256   5.039   4.632   5.100  1.6738  0.8946  2.1528
 8255TIP3    H246257   4.973   4.575   5.224 -0.9416 -0.9373  0.0328
 8256TIP3   OH246258   4.970   4.519  17.007 -0.0454  0.5300  0.3675
 8256TIP3    H146259   4.880   4.511  17.039  0.2959 -1.6494  0.9169
 8256TIP3    H246260   4.974   4.462  16.931  1.6176 -1.9503  2.1775
 8257TIP3   OH246261   5.629   2.023  12.386  0.5206 -0.3696 -0.2109
 8257TIP3    H146262   5.662   2.048  12.472  1.9642  0.8597 -1.0817
 8257TIP3    H246263   5.699   2.045  12.325 -1.7540  2.1567 -2.1672
 8258TIP3   OH246264   3.490   2.334   1.472 -0.0431  0.2492 -0.1458
 8258TIP3    H146265   3.512   2.267   1.407 -0.7089 -0.3832  0.2691
 8258TIP3    H246266   3.395   2.335   1.474 -0.0415 -0.1122  1.1875
 8259TIP3   OH246267   3.543   0.024   4.684  0.0582  0.2054 -0.5245
 8259TIP3    H146268   3.584   0.031   4.771  0.8698 -1.8342 -0.6793
 8259TIP3    H246269   3.616   0.031   4.623 -0.2109 -0.5151 -0.9367
 8260TIP3   OH246270   3.052   6.189   0.882  0.5106 -0.2383 -0.6197
 8260TIP3    H146271   3.120   6.178   0.816  2.0960 -0.0668  0.9282
 8260TIP3    H246272   3.048   6.283   0.898  0.3603 -0.3067 -0.2438
 8261TIP3   OH246273   4.300   6.008  12.660  0.1153 -0.1193 -0.0799
 8261TIP3    H146274   4.251   6.049  12.731  0.5804 -0.1650  0.2831
 8261TIP3    H246275   4.388   5.994  12.698  0.9869  1.6706 -1.3034
 8262TIP3   OH246276   4.579   5.311   3.185  0.5342 -0.6610  0.5523
 8262TIP3    H146277   4.606   5.382   3.243  0.1145  1.1957 -1.4140
 8262TIP3    H246278   4.521   5.257   3.239  0.5289  0.7004  1.9957
 8263TIP3   OH246279   4.382   2.685  14.796 -0.3178 -0.2291 -0.5089
 8263TIP3    H146280   4.403   2.630  14.720  1.2151  0.0755 -0.3490
 8263TIP3    H246281   4.456   2.672  14.855 -0.2986  1.4044 -0.1430
 8264TIP3   OH246282   0.138   4.092  12.841 -0.1819  0.2935 -0.4196
 8264TIP3    H146283   0.218   4.137  12.869 -0.6134  0.6662  0.2283
 8264TIP3    H246284   0.078   4.099  12.916 -0.0158 -2.0130  0.0033
 8265TIP3   OH246285   1.628   5.793  13.389 -0.1465  0.4668  0.0695
 8265TIP3    H146286   1.569   5.758  13.322  0.4889  0.4887 -0.5180
 8265TIP3    H246287   1.700   5.729  13.394 -0.5316  0.0973  1.2521
 8266TIP3   OH246288   2.521   5.157   5.473  0.3684  0.3151  0.5503
 8266TIP3    H146289   2.475   5.219   5.529  0.5738  0.8996  0.0860
 8266TIP3    H246290   2.455   5.130   5.409  0.3469  0.2480  0.6013
 8267TIP3   OH246291   5.477   2.363   5.215  0.4485  0.3458  0.3439
 8267TIP3    H146292   5.457   2.374   5.308 -1.5600 -0.6521  0.0741
 8267TIP3    H246293   5.503   2.271   5.207  0.5319  0.4072 -0.1142
 8268TIP3   OH246294   0.409   5.479   3.819 -0.6896 -0.4471 -0.4179
 8268TIP3    H146295   0.388   5.567   3.789  1.5896  0.3096  0.0646
 8268TIP3    H246296   0.357   5.468   3.899 -0.5910  0.6546 -0.1926
 8269TIP3   OH246297   3.457   5.912   0.109  0.5251 -0.2147  0.5113
 8269TIP3    H146298   3.445   5.818   0.099  0.8298 -0.4435  2.0392
 8269TIP3    H246299   3.408   5.950   0.036 -1.7651 -1.4518  1.2970
 8270TIP3   OH246300   0.552   5.952  14.033  0.1150  0.3316 -0.4447
 8270TIP3    H146301   0.590   5.867  14.009  2.8825  0.9703  1.2877
 8270TIP3    H246302   0.458   5.939  14.023  0.5352 -2.2905 -2.1909
 8271TIP3   OH246303   0.999   6.460  11.159 -0.4360  0.2879  0.1252
 8271TIP3    H146304   0.910   6.457  11.125 -0.4016 -1.7825  0.0472
 8271TIP3    H246305   1.027   6.368  11.161  2.1743  0.9418 -1.1243
 8272TIP3   OH246306   6.331   2.187   2.487  0.7458 -0.6576 -0.1722
 8272TIP3    H146307   6.245   2.146   2.494  1.0468 -1.2795 -0.0896
 8272TIP3    H246308   6.377   2.136   2.420  1.5509 -1.2408  0.7843
 8273TIP3   OH246309   2.051   3.444  12.556 -0.0002 -1.2062 -0.0593
 8273TIP3    H146310   2.126   3.407  12.603 -0.3804 -1.0873  0.6540
 8273TIP3    H246311   2.068   3.425  12.464  2.0471  0.7883 -0.1771
 8274TIP3   OH246312   0.131   5.507  11.078 -0.0648 -1.0518  0.2709
 8274TIP3    H146313   0.121   5.543  11.166 -0.1482 -2.0476  0.6856
 8274TIP3    H246314   0.057   5.542  11.029 -0.6923 -1.4293  0.9283
 8275TIP3   OH246315   2.224   3.724   5.326 -0.1479  0.1924  0.0885
 8275TIP3    H146316   2.246   3.631   5.317 -1.1719 -0.1798  1.2122
 8275TIP3    H246317   2.308   3.769   5.317  0.3973 -0.8532 -0.2484
 8276TIP3   OH246318   4.765   0.739  14.914  0.0775  0.1937  0.1659
 8276TIP3    H146319   4.698   0.808  14.909 -1.3934 -1.2210 -0.7287
 8276TIP3    H246320   4.794   0.727  14.824  0.5349 -0.1704  0.3572
 8277TIP3   OH246321   5.606   3.266   1.062 -0.3470  0.5147  0.5019
 8277TIP3    H146322   5.536   3.217   1.019  1.0913 -2.6703  1.4779
 8277TIP3    H246323   5.623   3.340   1.003 -0.6653 -1.7669 -2.7319
 8278TIP3   OH246324   0.527   2.913  14.062  0.0046 -0.0762  0.1937
 8278TIP3    H146325   0.451   2.928  14.005 -0.2013 -0.7861  0.2640
 8278TIP3    H246326   0.489   2.899  14.149  0.0662 -1.8913 -0.0194
 8279TIP3   OH246327   6.579   4.295   3.351  0.4664 -0.5573 -0.0243
 8279TIP3    H146328   6.560   4.205   3.324  0.5217 -0.3312 -0.8275
 8279TIP3    H246329   6.669   4.310   3.324  0.5898 -0.3859  0.4683
 8280TIP3   OH246330   2.726   3.325  16.050  0.1005  0.1927  0.1164
 8280TIP3    H146331   2.689   3.406  16.015 -0.9334 -0.5484 -0.5825
 8280TIP3    H246332   2.787   3.294  15.983 -2.0976 -1.3815 -1.3382
 8281TIP3   OH246333   4.503   1.811  14.708  0.1901  0.7398 -0.1578
 8281TIP3    H146334   4.480   1.719  14.717 -0.6168  0.9603  0.1324
 8281TIP3    H246335   4.598   1.814  14.723  0.5357 -0.2526 -1.7722
 8282TIP3   OH246336   0.018   1.948  14.770 -0.5661 -0.3209  0.2160
 8282TIP3    H146337  -0.046   2.007  14.809 -1.5733 -0.9191 -0.5132
 8282TIP3    H246338   0.086   2.007  14.736 -0.9978  0.3452  0.4752
 8283TIP3   OH246339   6.710   4.049   0.833  0.3561  0.7970 -0.3888
 8283TIP3    H146340   6.690   4.050   0.739 -1.2917  0.1720 -0.0846
 8283TIP3    H246341   6.668   4.128   0.867  0.5337  0.7716 -0.1134
 8284TIP3   OH246342   4.688   6.635   2.652 -0.8980 -0.6591  0.5021
 8284TIP3    H146343   4.701   6.670   2.564 -2.3340 -1.0128  0.1263
 8284TIP3    H246344   4.596   6.653   2.672 -0.8060 -1.3093  1.6009
 8285TIP3   OH246345   5.107   1.687  13.198 -0.2144 -0.1010 -0.2357
 8285TIP3    H146346   5.180   1.687  13.137  0.7968  0.1081  0.9249
 8285TIP3    H246347   5.136   1.630  13.270 -1.1550  0.0495  0.2888
 8286TIP3   OH246348   3.271   4.780  11.458 -0.1080 -0.6006 -0.2937
 8286TIP3    H146349   3.254   4.700  11.508 -3.6817  0.0906 -0.1112
 8286TIP3    H246350   3.226   4.849  11.508  0.7825  1.0817 -1.7110
 8287TIP3   OH246351   5.857   2.767   1.055 -0.2623 -0.0625  0.0393
 8287TIP3    H146352   5.868   2.813   1.138 -0.2837 -1.2410  0.7175
 8287TIP3    H246353   5.919   2.809   0.996  0.3011  0.2967  0.8655
 8288TIP3   OH246354   4.144   5.751  11.354 -0.5512  0.3026  0.4384
 8288TIP3    H146355   4.074   5.750  11.419  1.4723 -0.9745  2.7399
 8288TIP3    H246356   4.223   5.771  11.404  0.9076  0.8637 -1.9265
 8289TIP3   OH246357   1.627   2.466  16.669 -0.6047 -0.1172 -0.0512
 8289TIP3    H146358   1.668   2.418  16.597 -1.4473  0.4286 -0.9176
 8289TIP3    H246359   1.675   2.548  16.674  0.7484 -0.9470  1.3454
 8290TIP3   OH246360   1.852   0.394  10.811  0.8147 -0.7595  0.0803
 8290TIP3    H146361   1.930   0.439  10.843 -0.7774  1.6433  0.9382
 8290TIP3    H246362   1.824   0.447  10.736 -1.2863 -0.0535  1.2852
 8291TIP3   OH246363   3.209   1.058   1.345 -0.6844 -1.0870 -0.5314
 8291TIP3    H146364   3.134   1.074   1.403 -1.4114  0.4783 -1.8292
 8291TIP3    H246365   3.277   1.118   1.377 -1.4633  0.6156 -1.8848
 8292TIP3   OH246366   4.991   3.334   3.031 -0.5765  0.2048  0.4505
 8292TIP3    H146367   4.906   3.298   3.007 -0.0155 -2.4073  2.0173
 8292TIP3    H246368   5.054   3.269   3.003  0.7290  1.0805  1.2425
 8293TIP3   OH246369   3.400   3.807  13.254 -0.2143 -0.1576  0.1414
 8293TIP3    H146370   3.339   3.762  13.313  0.5512 -1.1475  0.2164
 8293TIP3    H246371   3.487   3.778  13.283  0.2116 -0.0752 -0.9953
 8294TIP3   OH246372   6.124   0.317  16.482  0.2653 -0.4439  0.4746
 8294TIP3    H146373   6.118   0.238  16.429  2.9035  0.6249 -1.6372
 8294TIP3    H246374   6.054   0.373  16.448  2.4937  0.6185 -2.8838
 8295TIP3   OH246375   3.281   3.207   5.126  0.3450 -0.0847  0.1922
 8295TIP3    H146376   3.320   3.121   5.145 -0.4691 -0.6190 -0.4536
 8295TIP3    H246377   3.320   3.231   5.041  0.3084  0.0235  0.2069
 8296TIP3   OH246378   0.584   4.991   2.314 -0.4114  0.2793 -0.3529
 8296TIP3    H146379   0.498   4.980   2.353 -0.2066  0.4301  0.1525
 8296TIP3    H246380   0.627   4.906   2.326 -0.7210 -0.0111 -1.2053
 8297TIP3   OH246381   4.699   0.489   5.384  0.2420 -0.2483  0.3430
 8297TIP3    H146382   4.777   0.538   5.409 -0.3129  0.5254  0.6307
 8297TIP3    H246383   4.663   0.457   5.467  0.8110 -1.4891  0.1209
 8298TIP3   OH246384   2.403   3.102   6.194  0.2017 -0.2432  0.0610
 8298TIP3    H146385   2.384   3.196   6.189  1.9406  0.0903 -1.3752
 8298TIP3    H246386   2.358   3.065   6.119  0.0176 -0.4602  0.2793
 8299TIP3   OH246387   3.189   4.882  14.254  0.2562 -0.6543  0.1021
 8299TIP3    H146388   3.261   4.828  14.287  0.1806 -1.7262 -1.4088
 8299TIP3    H246389   3.217   4.972  14.271  1.4681 -1.0845  0.5104
 8300TIP3   OH246390   1.528   0.828   1.314 -0.3681  0.1240  0.4508
 8300TIP3    H146391   1.460   0.785   1.367  0.0728 -1.7586 -0.4161
 8300TIP3    H246392   1.503   0.810   1.224  0.1837  1.2224  0.0623
 8301TIP3   OH246393   6.184   3.856  15.393  0.6118  0.0626 -0.8884
 8301TIP3    H146394   6.158   3.780  15.340  1.2036 -0.1002 -0.9526
 8301TIP3    H246395   6.179   3.825  15.483 -1.4805  0.6647 -0.7435
 8302TIP3   OH246396   3.456   4.903   3.561  0.8446  0.0351 -0.4332
 8302TIP3    H146397   3.446   4.993   3.591  1.4585  0.0936 -0.3876
 8302TIP3    H246398   3.446   4.850   3.641 -0.3139 -0.0026 -0.5829
 8303TIP3   OH246399   5.656   1.563  16.101 -0.3716 -0.3491 -0.3827
 8303TIP3    H146400   5.601   1.634  16.133  0.9766  0.8641 -0.6905
 8303TIP3    H246401   5.699   1.529  16.179  0.3386  0.3721 -0.4494
 8304TIP3   OH246402   6.155   5.587   0.606 -0.0502 -0.4100  0.8990
 8304TIP3    H146403   6.234   5.611   0.558 -1.7028  0.8946 -1.3902
 8304TIP3    H246404   6.146   5.493   0.591 -0.6784 -0.0036 -1.8074
 8305TIP3   OH246405   4.986   5.186   4.582 -0.0977 -0.4162  0.4701
 8305TIP3    H146406   4.938   5.233   4.651 -0.9498 -1.5733  0.6844
 8305TIP3    H246407   4.983   5.094   4.608 -0.0654 -0.8241 -0.8942
 8306TIP3   OH246408   1.437   2.262   2.688 -0.2855  0.0662  0.4043
 8306TIP3    H146409   1.442   2.205   2.611 -0.0681  0.1607  0.3478
 8306TIP3    H246410   1.364   2.226   2.740  0.5287 -0.9396  0.9039
 8307TIP3   OH246411   5.801   0.565   1.057 -0.3196 -0.5545  0.2840
 8307TIP3    H146412   5.748   0.621   1.001 -1.6851 -1.7779  0.2949
 8307TIP3    H246413   5.830   0.622   1.128  0.9690  0.8957 -1.3070
 8308TIP3   OH246414   2.353   1.580  16.260  0.5900  0.2111 -0.6172
 8308TIP3    H146415   2.318   1.511  16.203  0.7620 -0.6150  0.2397
 8308TIP3    H246416   2.299   1.657  16.240 -0.9924 -0.7196 -0.1481
 8309TIP3   OH246417   4.933   0.574  12.738  0.0336 -0.1560 -0.2712
 8309TIP3    H146418   4.931   0.498  12.680  4.6064 -0.3942 -0.4967
 8309TIP3    H246419   4.898   0.541  12.821 -0.4739 -1.7372 -1.0670
 8310TIP3   OH246420   4.207   2.907   2.894  0.4712  0.6945 -0.6498
 8310TIP3    H146421   4.280   2.950   2.938  0.1144  2.8228 -1.9542
 8310TIP3    H246422   4.129   2.945   2.934 -0.1334 -2.9037  2.0543
 8311TIP3   OH246423   0.230   4.140   5.784  0.2116 -0.5121 -0.7499
 8311TIP3    H146424   0.222   4.049   5.757  1.8962 -1.4960  1.7777
 8311TIP3    H246425   0.171   4.148   5.859  2.6537 -0.5838  1.2789
 8312TIP3   OH246426   6.576   5.297   1.013 -0.2534 -0.1332  0.0339
 8312TIP3    H146427   6.614   5.329   1.095 -0.8408  0.5351  0.0534
 8312TIP3    H246428   6.596   5.203   1.012 -1.1963 -0.3867  1.4884
 8313TIP3   OH246429   1.933   1.280   3.704 -0.3875 -0.0335  0.1591
 8313TIP3    H146430   1.972   1.362   3.734  0.6949  0.6450 -2.8173
 8313TIP3    H246431   2.006   1.218   3.702 -0.1447  0.2717 -2.0815
 8314TIP3   OH246432   3.011   3.210  11.888 -0.2167 -0.7322  0.2680
 8314TIP3    H146433   2.956   3.269  11.836  2.0337 -0.0530 -1.4864
 8314TIP3    H246434   2.949   3.152  11.931 -2.4564  1.6947  0.6056
 8315TIP3   OH246435   4.568   3.794  14.006  0.4200 -0.3092 -0.3243
 8315TIP3    H146436   4.493   3.840  14.044  0.5947 -0.3900  0.1271
 8315TIP3    H246437   4.643   3.850  14.027  0.7044 -1.0314  0.6751
 8316TIP3   OH246438   5.526   0.736   1.823  0.0170 -0.1832 -0.5861
 8316TIP3    H146439   5.518   0.695   1.909  2.4670 -2.7151 -1.3930
 8316TIP3    H246440   5.534   0.662   1.762 -0.6174  1.5260 -2.8740
 8317TIP3   OH246441   0.930   5.789  11.103 -0.6732  0.0152  0.6170
 8317TIP3    H146442   0.873   5.712  11.106 -0.3109 -0.2340  1.2539
 8317TIP3    H246443   0.913   5.835  11.185 -0.1860  0.1076  0.6687
 8318TIP3   OH246444   1.293   4.573   1.366  0.2084 -0.0560 -0.1804
 8318TIP3    H146445   1.375   4.528   1.390  0.4125  0.7837  0.7593
 8318TIP3    H246446   1.268   4.621   1.445 -2.4194 -2.0224  0.3212
 8319TIP3   OH246447   5.970   3.499  15.583  0.0213  0.0711  0.3712
 8319TIP3    H146448   5.999   3.583  15.547 -0.1692  0.3297  0.8152
 8319TIP3    H246449   5.922   3.458  15.511 -1.1623  0.9920  0.6074
 8320TIP3   OH246450   0.833   6.054  16.276 -0.1457  0.0245 -0.0950
 8320TIP3    H146451   0.754   6.036  16.225 -0.9086 -2.4084  1.7657
 8320TIP3    H246452   0.904   6.014  16.224 -0.6961 -1.0923 -0.0231
 8321TIP3   OH246453   4.673   2.063  11.396 -0.3975 -0.2405  0.1717
 8321TIP3    H146454   4.650   1.974  11.425 -1.0904 -0.2747 -0.4452
 8321TIP3    H246455   4.755   2.082  11.441 -0.3151 -1.1378  0.4328
 8322TIP3   OH246456   3.613   6.785   6.349  0.0488  0.3402 -0.0033
 8322TIP3    H146457   3.622   6.791   6.444 -1.6933 -1.1721  0.3124
 8322TIP3    H246458   3.665   6.858   6.315  2.5955 -0.4002  1.9816
 8323TIP3   OH246459   4.787   1.663  16.485  0.0710  0.5284 -0.2045
 8323TIP3    H146460   4.695   1.644  16.503 -0.4874  1.4838 -1.8100
 8323TIP3    H246461   4.816   1.716  16.560 -0.5433 -0.1700  0.5345
 8324TIP3   OH246462   4.095   0.535   4.738 -0.0847  0.1916  0.3477
 8324TIP3    H146463   4.191   0.538   4.739 -0.0182 -1.1612  1.4734
 8324TIP3    H246464   4.073   0.498   4.652  0.3244  1.4997 -0.3501
 8325TIP3   OH246465   2.992   4.792  10.450 -0.3267 -0.3039 -0.2289
 8325TIP3    H146466   3.087   4.783  10.443 -0.0658  0.6273  1.4763
 8325TIP3    H246467   2.958   4.707  10.423  1.1357 -1.5375  1.5096
 8326TIP3   OH246468   2.335   3.548   1.112  0.2538  0.0947 -0.3938
 8326TIP3    H146469   2.307   3.590   1.030 -0.4956 -0.0461 -0.2177
 8326TIP3    H246470   2.293   3.599   1.181 -0.3019 -0.6539 -0.1610
 8327TIP3   OH246471   4.242   0.436  13.941 -0.3435 -0.9215  0.3928
 8327TIP3    H146472   4.276   0.390  14.017  0.2430  0.5148  1.0364
 8327TIP3    H246473   4.242   0.528  13.967 -0.4308 -0.4334 -1.2336
 8328TIP3   OH246474   4.867   3.590   1.339 -0.0057  0.3098  0.2946
 8328TIP3    H146475   4.865   3.543   1.256  1.4688 -1.4759  1.1829
 8328TIP3    H246476   4.951   3.637   1.337 -0.1453  0.5723  0.6128
 8329TIP3   OH246477   1.725   0.878   3.689 -0.3396  0.5392 -0.1927
 8329TIP3    H146478   1.670   0.883   3.611 -0.0382  3.1882 -0.3203
 8329TIP3    H246479   1.709   0.960   3.735 -1.0583 -1.2240  2.9929
 8330TIP3   OH246480   3.341   0.117   3.058  0.2366  0.3936 -0.2942
 8330TIP3    H146481   3.298   0.200   3.078 -0.7687 -0.2876  0.4799
 8330TIP3    H246482   3.379   0.130   2.971 -0.8351  1.3073 -0.6520
 8331TIP3   OH246483   6.039   2.260   3.311 -0.3563 -0.2923 -0.5437
 8331TIP3    H146484   5.944   2.256   3.321 -0.1925  0.0789  1.9056
 8331TIP3    H246485   6.056   2.341   3.264 -1.2602 -0.8575 -1.8981
 8332TIP3   OH246486   0.561   0.703  15.963 -0.0073 -0.0838  0.3296
 8332TIP3    H146487   0.626   0.744  15.908 -1.0748  1.6253  0.2764
 8332TIP3    H246488   0.486   0.689  15.906 -0.7806  0.8269  1.0787
 8333TIP3   OH246489   3.576   0.347   2.973  0.3243  0.3769  0.5909
 8333TIP3    H146490   3.657   0.317   3.014  1.8529  0.7660 -1.9245
 8333TIP3    H246491   3.587   0.326   2.880 -0.4257  4.5190 -0.6459
 8334TIP3   OH246492   4.157   1.198   2.481  0.2020 -0.4466 -0.4883
 8334TIP3    H146493   4.101   1.243   2.417  0.5790  1.4209  0.4330
 8334TIP3    H246494   4.244   1.234   2.466  0.1643  0.6254  1.5406
 8335TIP3   OH246495   1.541   6.513   4.290  0.2794  0.5888 -0.1403
 8335TIP3    H146496   1.535   6.475   4.377  1.1499 -0.6074 -0.5612
 8335TIP3    H246497   1.605   6.458   4.245 -1.4740  0.0122 -2.1073
 8336TIP3   OH246498   5.080   6.455  10.789  0.1029 -1.3819  0.0360
 8336TIP3    H146499   5.044   6.475  10.875  1.1823  2.0238 -0.1401
 8336TIP3    H246500   5.053   6.528  10.734  1.7569 -2.0277 -1.7687
 8337TIP3   OH246501   0.475   0.640  16.326 -0.2635 -0.4268 -0.8670
 8337TIP3    H146502   0.427   0.609  16.402  2.7412  0.4585  1.5940
 8337TIP3    H246503   0.472   0.567  16.264 -2.7522 -1.1938  0.0450
 8338TIP3   OH246504   0.608   3.066  14.369 -0.3013 -0.8366 -0.1016
 8338TIP3    H146505   0.691   3.022  14.388 -0.0635  0.3530  1.9739
 8338TIP3    H246506   0.605   3.138  14.433 -1.4225  1.1228 -2.2186
 8339TIP3   OH246507   3.091   3.078  10.203 -0.7653  0.1069  0.0529
 8339TIP3    H146508   3.127   3.067  10.291 -0.1064  0.6270 -0.1452
 8339TIP3    H246509   3.116   2.998  10.157 -0.8167 -0.0169  0.2388
 8340TIP3   OH246510   6.204   2.813  16.773  0.0486  0.2020  0.6823
 8340TIP3    H146511   6.110   2.832  16.769 -0.0306 -0.2826  0.0365
 8340TIP3    H246512   6.241   2.860  16.698  0.7221  2.4628  2.3510
 8341TIP3   OH246513   0.256   6.641   1.701  0.0532  0.1194  0.2984
 8341TIP3    H146514   0.171   6.664   1.663  0.7197  2.1403 -0.0857
 8341TIP3    H246515   0.240   6.560   1.749 -1.4091 -1.1895 -2.1898
 8342TIP3   OH246516   3.377   0.534  12.856 -0.1651 -0.3333 -0.6065
 8342TIP3    H146517   3.442   0.474  12.820 -0.9297 -1.3600 -0.3199
 8342TIP3    H246518   3.414   0.621  12.840  1.0499 -0.8689 -0.8781
 8343TIP3   OH246519   1.811   4.582   2.762  0.6645 -0.1328  0.1331
 8343TIP3    H146520   1.873   4.627   2.705 -0.1315  0.2337 -0.4609
 8343TIP3    H246521   1.800   4.641   2.837 -0.4149  0.7406 -0.6669
 8344TIP3   OH246522   5.088   1.025   3.336  0.2638 -0.2157 -0.0510
 8344TIP3    H146523   5.021   1.047   3.272 -1.5132 -1.3324  1.3217
 8344TIP3    H246524   5.096   1.104   3.390 -0.7902 -0.4411  0.4565
 8345TIP3   OH246525   3.893   0.856  13.690  0.3377  0.6871 -0.0016
 8345TIP3    H146526   3.982   0.865  13.657 -0.2866  1.3569 -1.6376
 8345TIP3    H246527   3.872   0.763  13.678  0.8504  0.5058  0.4987
 8346TIP3   OH246528   6.677   0.424   3.082  0.7245  0.0538  0.6779
 8346TIP3    H146529   6.767   0.457   3.085  1.3663 -1.6440  1.9606
 8346TIP3    H246530   6.686   0.329   3.080 -1.0537 -0.1390 -0.1762
 8347TIP3   OH246531   3.629   5.310   0.351  0.9559  0.6666 -0.2587
 8347TIP3    H146532   3.592   5.390   0.314 -0.3077  0.6318  0.8365
 8347TIP3    H246533   3.694   5.340   0.414  0.2134  0.8751  0.4311
 8348TIP3   OH246534   2.153   0.057  17.058  0.0817  0.7618 -0.0503
 8348TIP3    H146535   2.115   0.005  16.987 -1.5642  3.1432 -1.0425
 8348TIP3    H246536   2.246   0.063  17.038 -0.1641  0.4071 -1.3448
 8349TIP3   OH246537   2.316   5.875  15.023  0.1261  0.4043 -0.6124
 8349TIP3    H146538   2.258   5.931  15.074 -0.1426  0.5175 -1.0387
 8349TIP3    H246539   2.396   5.926  15.013  1.3486 -0.7642  2.2306
 8350TIP3   OH246540   5.417   6.555   5.591 -0.2405  0.2109 -0.2407
 8350TIP3    H146541   5.328   6.591   5.589 -1.1594 -1.9152 -2.5389
 8350TIP3    H246542   5.440   6.543   5.499  1.2663 -2.0225  0.3553
 8351TIP3   OH246543   5.905   2.647  11.936 -0.2889  0.1577  0.4799
 8351TIP3    H146544   5.979   2.615  11.884 -0.9128  2.1318 -1.8271
 8351TIP3    H246545   5.938   2.646  12.026  1.4437 -1.8726 -0.0857
 8352TIP3   OH246546   0.966   0.399  12.858  0.0621 -0.8299  0.4343
 8352TIP3    H146547   0.885   0.443  12.886  0.1206 -1.4236  1.6075
 8352TIP3    H246548   0.951   0.377  12.766 -0.7178 -0.0501  0.3659
 8353TIP3   OH246549   1.973   3.056   4.440 -0.4661 -0.0828 -0.2225
 8353TIP3    H146550   1.986   2.970   4.398 -0.4409 -1.2382  1.9993
 8353TIP3    H246551   1.878   3.066   4.446 -0.4941 -1.0860  1.5833
 8354TIP3   OH246552   2.514   5.796   4.204 -0.3503  0.2280 -0.1740
 8354TIP3    H146553   2.606   5.817   4.223 -0.6208  2.6079 -1.2549
 8354TIP3    H246554   2.512   5.781   4.110 -1.1244  0.3983 -0.1866
 8355TIP3   OH246555   3.636   1.942   3.998  0.4448 -0.6601  0.1074
 8355TIP3    H146556   3.728   1.937   4.024  0.1847 -1.6474  0.9155
 8355TIP3    H246557   3.620   1.860   3.951 -0.4362 -1.3201  1.4737
 8356TIP3   OH246558   5.421   3.094  16.274 -1.0304  0.0020  0.2694
 8356TIP3    H146559   5.377   3.126  16.196  0.2036  0.2423 -0.3521
 8356TIP3    H246560   5.431   3.171  16.330  1.2204  0.6487 -0.8832
 8357TIP3   OH246561   2.906   1.671  13.636 -0.4109  0.3908 -0.4229
 8357TIP3    H146562   2.906   1.635  13.547  0.8489  1.4530 -0.8745
 8357TIP3    H246563   2.841   1.741  13.633 -0.7693  0.0714 -0.3321
 8358TIP3   OH246564   2.309   2.396  11.454  0.4420 -0.0619 -0.9697
 8358TIP3    H146565   2.280   2.457  11.522 -1.4230 -2.4296  0.5232
 8358TIP3    H246566   2.255   2.420  11.378  0.2973  0.6325 -0.6623
 8359TIP3   OH246567   3.116   0.121  15.067  0.0295 -0.1236  0.6032
 8359TIP3    H146568   3.195   0.128  15.013 -0.2510 -1.3366 -0.0083
 8359TIP3    H246569   3.119   0.032  15.102 -0.9530 -0.1131  0.7395
 8360TIP3   OH246570   3.933   2.487   0.738  0.1484 -0.0596  0.0069
 8360TIP3    H146571   3.885   2.492   0.655  1.9061 -1.0219 -1.1360
 8360TIP3    H246572   3.868   2.457   0.801 -1.0044 -0.3377 -1.2481
 8361TIP3   OH246573   6.509   4.090  14.494 -0.1876 -0.2817  0.0957
 8361TIP3    H146574   6.460   4.099  14.412  1.0804  0.8777 -0.5905
 8361TIP3    H246575   6.600   4.077  14.466  0.0665 -1.3508  1.3298
 8362TIP3   OH246576   5.290   6.020  10.657  0.0185 -0.0244 -0.5124
 8362TIP3    H146577   5.290   6.093  10.596 -1.6725  0.7795  0.3543
 8362TIP3    H246578   5.245   6.054  10.735  1.9126 -1.0558  1.1232
 8363TIP3   OH246579   3.978   5.163   0.687 -0.3928  0.8414 -0.3312
 8363TIP3    H146580   4.021   5.248   0.688  0.4293  0.4363  0.9048
 8363TIP3    H246581   3.986   5.130   0.777 -2.9045  0.5428 -0.1366
 8364TIP3   OH246582   3.129   3.985   1.138 -0.6543 -0.4346 -0.1027
 8364TIP3    H146583   3.087   3.899   1.143  1.4655 -1.4591  2.3560
 8364TIP3    H246584   3.189   3.986   1.212  2.1490  1.7259 -2.2013
 8365TIP3   OH246585   3.435   1.607  12.919  0.1053  0.3130 -0.2681
 8365TIP3    H146586   3.401   1.591  12.831  3.0676 -1.8305 -1.1956
 8365TIP3    H246587   3.368   1.571  12.977 -0.4408 -1.3579 -1.8232
 8366TIP3   OH246588   0.261   6.074   3.394  0.0203  0.2109 -0.2891
 8366TIP3    H146589   0.214   6.132   3.334 -3.9014 -0.7136  1.6015
 8366TIP3    H246590   0.260   5.989   3.350 -0.4356  0.1144 -0.0967
 8367TIP3   OH246591   5.338   6.784   4.680  0.3510  0.1156  0.0559
 8367TIP3    H146592   5.380   6.842   4.617  0.0031  0.6541  0.3093
 8367TIP3    H246593   5.371   6.696   4.658 -0.0407  0.2358 -1.1032
 8368TIP3   OH246594   2.588   2.810   4.513 -0.0708 -0.0042 -0.2496
 8368TIP3    H146595   2.607   2.755   4.589 -1.4873  1.7797  1.4923
 8368TIP3    H246596   2.633   2.892   4.531 -0.4361  0.4560 -1.3398
 8369TIP3   OH246597   1.238   2.124  13.268 -0.2890 -0.2098 -0.6425
 8369TIP3    H146598   1.191   2.056  13.220 -0.3611 -1.2717  0.8421
 8369TIP3    H246599   1.236   2.200  13.211 -0.1227 -1.4669 -2.4180
 8370TIP3   OH246600   6.283   3.159  14.386  0.0212 -0.3274 -0.6366
 8370TIP3    H146601   6.264   3.082  14.333 -0.2697 -2.1681  1.9689
 8370TIP3    H246602   6.200   3.179  14.430  0.7185 -0.1197  0.6369
 8371TIP3   OH246603   3.883   4.596  11.035 -0.4509  0.3394 -0.3939
 8371TIP3    H146604   3.944   4.598  10.961 -0.0671  1.2130 -0.0672
 8371TIP3    H246605   3.902   4.513  11.080  0.3899  0.5245 -0.3933
 8372TIP3   OH246606   5.852   1.642   4.416  0.2839  0.0090  0.0053
 8372TIP3    H146607   5.814   1.722   4.452  2.2851  0.4151  1.3782
 8372TIP3    H246608   5.939   1.668   4.386  0.9436 -1.6158  0.4044
 8373TIP3   OH246609   6.176   5.816  15.092  0.1053 -0.0582 -0.1234
 8373TIP3    H146610   6.262   5.853  15.112 -0.5721  0.7318  1.4682
 8373TIP3    H246611   6.188   5.722  15.103  1.0322 -0.0601 -1.0218
 8374TIP3   OH246612   1.872   6.365   2.140 -0.0019  0.4650  0.0559
 8374TIP3    H146613   1.797   6.349   2.197 -0.6594  0.2779 -0.8328
 8374TIP3    H246614   1.910   6.278   2.126 -0.3009  0.3964 -0.3813
 8375TIP3   OH246615   3.546   1.418  16.156 -0.0159  0.1908 -0.9628
 8375TIP3    H146616   3.504   1.476  16.219  0.6490  0.7608 -1.0345
 8375TIP3    H246617   3.517   1.330  16.181 -1.4314  0.5703 -1.1515
 8376TIP3   OH246618   6.360   0.211  15.664 -0.2082  0.0378 -0.2109
 8376TIP3    H146619   6.448   0.247  15.652  0.6000 -1.4643  0.8587
 8376TIP3    H246620   6.355   0.140  15.601 -0.7276  0.2244 -0.3809
 8377TIP3   OH246621   3.871   0.121   0.610 -0.5803 -0.1207 -1.2688
 8377TIP3    H146622   3.890   0.199   0.557 -1.3660  0.3485 -0.8836
 8377TIP3    H246623   3.838   0.157   0.693 -1.8778 -0.8724 -1.4375
 8378TIP3   OH246624   1.222   1.881  16.561  0.0484  0.0947  0.4449
 8378TIP3    H146625   1.197   1.951  16.622  1.3844  0.7936  0.2273
 8378TIP3    H246626   1.278   1.823  16.612 -0.6072 -0.5383  0.4687
 8379TIP3   OH246627   5.887   1.825  14.096  0.3541  0.3117  0.1462
 8379TIP3    H146628   5.870   1.863  14.182 -0.6967 -1.5661  0.8208
 8379TIP3    H246629   5.826   1.871  14.037 -1.3713 -0.7064  1.0604
 8380TIP3   OH246630   6.739   3.325   6.038  0.2676 -1.1412  0.1582
 8380TIP3    H146631   6.799   3.290   6.104 -1.5661 -2.0266  1.4405
 8380TIP3    H246632   6.718   3.249   5.983  0.1673 -0.8811 -0.1645
 8381TIP3   OH246633   3.612   0.163  11.346 -0.1401  0.2035  0.0045
 8381TIP3    H146634   3.687   0.105  11.354  1.2981  1.8844 -0.4774
 8381TIP3    H246635   3.630   0.214  11.267 -1.1209  1.5675  0.6170
 8382TIP3   OH246636   1.652   4.993   1.524  0.0889  0.0178 -0.5942
 8382TIP3    H146637   1.677   5.023   1.437  3.2876 -1.1643 -0.2246
 8382TIP3    H246638   1.577   4.936   1.510 -0.3316  0.9500 -2.3694
 8383TIP3   OH246639   3.269   2.878  12.921  0.5100 -0.2425 -0.0315
 8383TIP3    H146640   3.252   2.842  12.834 -0.2379  0.1295 -0.0479
 8383TIP3    H246641   3.348   2.932  12.909  0.4078 -0.1875 -0.4834
 8384TIP3   OH246642   2.524   5.657   0.632  0.0217  0.2664 -0.6290
 8384TIP3    H146643   2.516   5.677   0.725  0.8410 -1.0099 -0.2529
 8384TIP3    H246644   2.488   5.568   0.624 -0.7497  0.6441 -1.6752
 8385TIP3   OH246645   5.318   6.239   2.254  0.1369  0.0395  0.6156
 8385TIP3    H146646   5.329   6.145   2.271 -0.0051 -0.1325 -0.2066
 8385TIP3    H246647   5.251   6.267   2.316  1.5149  0.0166  2.1862
 8386TIP3   OH246648   3.434   5.181   5.897 -0.5008 -0.0746 -0.1926
 8386TIP3    H146649   3.519   5.187   5.942 -1.1483 -1.0356  1.2233
 8386TIP3    H246650   3.448   5.114   5.830 -0.0981 -0.0934 -0.0958
 8387TIP3   OH246651   6.190   5.755   0.861 -0.4204 -0.2264  0.0071
 8387TIP3    H146652   6.247   5.737   0.786 -1.1715  0.2570 -0.7031
 8387TIP3    H246653   6.217   5.692   0.928 -0.3594 -1.3090 -1.0044
 8388TIP3   OH246654   0.676   6.792  16.807  0.1159  0.0378 -0.0641
 8388TIP3    H146655   0.711   6.833  16.727  0.5292 -1.7812 -0.8617
 8388TIP3    H246656   0.753   6.771  16.859 -0.1533  1.2007  0.8552
 8389TIP3   OH246657   5.090   1.659  16.500 -0.1624  0.1767 -0.0193
 8389TIP3    H146658   5.087   1.748  16.463 -1.7093  0.1777  0.0252
 8389TIP3    H246659   5.013   1.616  16.463 -0.6413 -0.4557  1.6591
 8390TIP3   OH246660   1.626   6.747   1.434 -0.9559  0.7912 -0.5282
 8390TIP3    H146661   1.692   6.815   1.447 -1.6673  1.7025 -1.4902
 8390TIP3    H246662   1.672   6.676   1.390  0.0745  0.1206  1.5196
 8391TIP3   OH246663   1.550   0.174  14.826 -0.0928 -1.1476 -0.3510
 8391TIP3    H146664   1.639   0.164  14.792 -0.3047 -1.4292 -0.8266
 8391TIP3    H246665   1.558   0.243  14.892  0.4077 -0.9060 -0.6565
 8392TIP3   OH246666   3.550   4.689   5.844 -0.1083  0.0489  0.3394
 8392TIP3    H146667   3.490   4.618   5.866 -1.5155  1.0391 -0.1289
 8392TIP3    H246668   3.617   4.686   5.912  0.8861 -2.7889 -0.6265
 8393TIP3   OH246669   5.177   0.161  14.131 -0.9454 -0.0054 -0.6048
 8393TIP3    H146670   5.143   0.248  14.111 -1.3328  0.2405  0.9926
 8393TIP3    H246671   5.211   0.168  14.220  0.4027 -1.1044 -0.9962
 8394TIP3   OH246672   6.581   2.117  14.291  0.1653  0.4016 -0.1811
 8394TIP3    H146673   6.626   2.108  14.207  0.8191 -0.2515  0.2218
 8394TIP3    H246674   6.632   2.063  14.351 -0.0852  1.1397  0.7199
 8395TIP3   OH246675   6.355   3.784   5.952 -0.1570 -0.4153 -0.3969
 8395TIP3    H146676   6.274   3.750   5.915  0.6640 -2.6537 -0.2884
 8395TIP3    H246677   6.349   3.762   6.045 -1.0627  2.8775  0.4667
 8396TIP3   OH246678   3.418   4.193  14.439  0.1602  0.0138  0.1390
 8396TIP3    H146679   3.512   4.204  14.424  0.0181  1.5946  0.2087
 8396TIP3    H246680   3.388   4.139  14.366  1.3623 -1.8491  0.9625
 8397TIP3   OH246681   4.173   0.555  12.265  0.2222 -0.7509  0.0911
 8397TIP3    H146682   4.179   0.471  12.219  2.5105 -0.2690 -0.6150
 8397TIP3    H246683   4.259   0.566  12.307  0.7963  2.1605 -1.5828
 8398TIP3   OH246684   4.717   0.879  12.179 -0.1944 -0.2831 -0.9184
 8398TIP3    H146685   4.689   0.936  12.250 -0.7469 -0.0277 -1.3381
 8398TIP3    H246686   4.754   0.938  12.113  1.2146 -0.5996 -0.4413
 8399TIP3   OH246687   4.802   6.020   5.606  0.2494  0.1363 -0.4963
 8399TIP3    H146688   4.869   5.953   5.616 -0.6719 -0.9850 -1.4831
 8399TIP3    H246689   4.721   5.971   5.590 -0.6029  1.4711 -0.4744
 8400TIP3   OH246690   6.148   2.774   4.908  0.1174  0.1096 -0.4882
 8400TIP3    H146691   6.084   2.705   4.889 -1.0605  0.7367  1.0383
 8400TIP3    H246692   6.193   2.743   4.987  0.4640  0.5205 -0.5211
 8401TIP3   OH246693   0.962   2.220  11.311  0.2696  0.7858 -0.1973
 8401TIP3    H146694   0.901   2.282  11.270  1.0326  2.1716  0.6786
 8401TIP3    H246695   1.040   2.273  11.330  0.8271 -0.3848  0.8608
 8402TIP3   OH246696   3.398   4.923  12.889 -0.4880 -0.2331 -0.1510
 8402TIP3    H146697   3.386   5.003  12.940 -1.7081 -0.4417 -0.0613
 8402TIP3    H246698   3.376   4.948  12.799  0.8488 -0.0609 -0.4397
 8403TIP3   OH246699   6.531   0.624   3.688 -0.6892  0.1418  0.2482
 8403TIP3    H146700   6.525   0.628   3.783 -2.0635  0.7825  0.1514
 8403TIP3    H246701   6.567   0.710   3.663 -0.5062  0.0438  0.1694
 8404TIP3   OH246702   0.909   0.580  11.633  0.3113 -0.2050 -0.1460
 8404TIP3    H146703   0.861   0.658  11.663  0.9032 -0.0877  0.5128
 8404TIP3    H246704   1.001   0.604  11.642  0.5194 -1.3571  1.0837
 8405TIP3   OH246705   3.012   2.944   1.873 -0.0315 -0.4092 -1.0668
 8405TIP3    H146706   2.927   2.948   1.831 -0.3073 -0.1430 -0.4838
 8405TIP3    H246707   3.048   3.032   1.865  0.4489 -0.6528 -1.8189
 8406TIP3   OH246708   4.389   1.585   1.747  0.1193  0.0257 -0.7543
 8406TIP3    H146709   4.426   1.534   1.675 -0.6865 -0.2650 -0.9789
 8406TIP3    H246710   4.424   1.673   1.735 -0.2120  0.0434 -1.6614
 8407TIP3   OH246711   4.350   2.960   1.716 -0.0422  0.0357  0.2774
 8407TIP3    H146712   4.296   3.040   1.717 -1.8347 -1.1038 -0.6446
 8407TIP3    H246713   4.294   2.893   1.754  0.9040 -1.1091 -0.2879
 8408TIP3   OH246714   5.068   5.250   1.154  0.0271  0.2356  0.1356
 8408TIP3    H146715   5.077   5.265   1.060  0.2404  0.3565  0.1747
 8408TIP3    H246716   5.107   5.164   1.169 -0.3689  0.0386  0.0534
 8409TIP3   OH246717   5.874   6.660  11.204  0.3982  0.0483 -0.2293
 8409TIP3    H146718   5.908   6.606  11.275  0.1931 -0.2456 -0.3542
 8409TIP3    H246719   5.952   6.694  11.161  0.5888 -1.6764 -1.3335
 8410TIP3   OH246720   0.310   0.568  15.483  0.0162  0.0151 -0.4342
 8410TIP3    H146721   0.215   0.556  15.488  0.0791 -0.1896  0.2491
 8410TIP3    H246722   0.327   0.581  15.389 -0.8249  1.2192 -0.4353
 8411TIP3   OH246723   5.246   6.780   0.083 -0.4047  0.3416  0.5848
 8411TIP3    H146724   5.312   6.835   0.040  1.3181 -2.5405 -0.7976
 8411TIP3    H246725   5.285   6.692   0.083 -3.8084 -1.3140  0.7949
 8412TIP3   OH246726   2.093   3.473  14.249  0.3594 -0.4739 -0.3903
 8412TIP3    H146727   2.132   3.387  14.266  0.5645 -0.2442  0.3310
 8412TIP3    H246728   2.020   3.479  14.311  0.4100 -0.0918 -0.3652
 8413TIP3   OH246729   0.597   1.857  11.608 -0.3970  0.7513 -0.4329
 8413TIP3    H146730   0.539   1.788  11.642  0.6829 -0.1934 -0.4672
 8413TIP3    H246731   0.571   1.865  11.516  0.0367 -0.2216 -0.6513
 8414TIP3   OH246732   4.224   5.718  14.672  0.1830  0.0693  0.2750
 8414TIP3    H146733   4.161   5.654  14.706 -0.6821  1.0585  0.5957
 8414TIP3    H246734   4.279   5.739  14.747  1.3005 -1.2161 -0.1429
 8415TIP3   OH246735   0.714   5.440  15.078 -0.2765  0.0886 -1.0589
 8415TIP3    H146736   0.662   5.461  15.156  0.1988 -1.9459 -0.1390
 8415TIP3    H246737   0.650   5.432  15.008 -0.8192  0.8899 -0.6726
 8416TIP3   OH246738   1.783   4.649   4.895  0.0296  0.0328  0.0142
 8416TIP3    H146739   1.870   4.611   4.883  0.3736  0.5656  0.7419
 8416TIP3    H246740   1.789   4.737   4.856  0.0117  0.3128  0.6373
 8417TIP3   OH246741   3.225   3.378  11.949 -0.7151 -0.5510  0.2007
 8417TIP3    H146742   3.159   3.310  11.933  0.1464 -1.1507 -1.0333
 8417TIP3    H246743   3.185   3.459  11.917 -1.0606 -0.8196 -0.0527
 8418TIP3   OH246744   2.686   0.515   4.965  0.2482 -0.1832 -0.3105
 8418TIP3    H146745   2.597   0.479   4.954 -1.1734  3.0096 -0.1964
 8418TIP3    H246746   2.682   0.563   5.047  1.5627  1.4168 -1.1409
 8419TIP3   OH246747   1.998   3.641   0.688 -0.0331  0.6102  0.0408
 8419TIP3    H146748   1.977   3.713   0.628  0.0666  0.5941 -0.0135
 8419TIP3    H246749   2.002   3.564   0.632  0.9269  0.7339 -0.0692
 8420TIP3   OH246750   1.112   1.491  11.605 -0.5032  0.0730  0.8140
 8420TIP3    H146751   1.182   1.463  11.546  0.5469 -0.4711  2.2732
 8420TIP3    H246752   1.157   1.543  11.672 -1.8477  1.7740  0.4706
 8421TIP3   OH246753   4.217   2.930  11.733 -0.3561  0.2111  0.2823
 8421TIP3    H146754   4.177   2.987  11.667  1.8987  0.5216 -0.9427
 8421TIP3    H246755   4.198   2.842  11.702 -3.1400  0.2028  1.7312
 8422TIP3   OH246756   5.203   0.417  12.046 -0.4576  0.3414 -0.2843
 8422TIP3    H146757   5.230   0.437  11.956 -0.8433 -3.2699 -1.3468
 8422TIP3    H246758   5.280   0.378  12.086 -1.2621 -1.3703 -0.2982
 8423TIP3   OH246759   1.643   3.337  16.745 -0.1625  0.1240  0.0754
 8423TIP3    H146760   1.683   3.411  16.790 -0.3167  0.5060 -0.4004
 8423TIP3    H246761   1.699   3.324  16.668 -1.3866  1.2114 -1.0655
 8424TIP3   OH246762   6.653   3.136   0.025 -0.0616  0.5480  0.3094
 8424TIP3    H146763   6.629   3.175  -0.059  1.7437  1.9835  0.4187
 8424TIP3    H246764   6.662   3.210   0.084 -0.4985 -0.3825  1.5914
 8425TIP3   OH246765   6.266   1.914   3.595 -0.3702 -0.7060 -0.1713
 8425TIP3    H146766   6.352   1.952   3.575  0.0367 -0.4485  1.8874
 8425TIP3    H246767   6.203   1.982   3.571  0.0852 -0.3521 -0.3716
 8426TIP3   OH246768   4.838   1.748   3.953 -0.4198  1.0404  0.4418
 8426TIP3    H146769   4.895   1.715   3.884 -0.3476  3.1458 -0.5854
 8426TIP3    H246770   4.775   1.678   3.968 -1.2722  0.9885 -2.7335
 8427TIP3   OH246771   5.186   3.716   4.541 -0.0346 -0.7915  0.1250
 8427TIP3    H146772   5.185   3.803   4.581 -0.0128 -1.2137  1.0676
 8427TIP3    H246773   5.096   3.702   4.512 -0.0749 -0.5295  0.1188
 8428TIP3   OH246774   1.880   4.378  11.813 -0.4289 -0.6329  0.0144
 8428TIP3    H146775   1.893   4.285  11.794 -0.2937 -0.6904  0.3819
 8428TIP3    H246776   1.859   4.417  11.729  1.8324 -0.5761 -0.5948
 8429TIP3   OH246777   0.163   4.374  12.394 -0.2178 -0.4798 -1.0210
 8429TIP3    H146778   0.149   4.325  12.475 -1.8074  2.3254  0.5391
 8429TIP3    H246779   0.256   4.365  12.376  1.0952  1.7904  3.3006
 8430TIP3   OH246780   0.055   4.852  15.240  0.2840  0.2288  0.6851
 8430TIP3    H146781  -0.029   4.869  15.198  0.5297 -1.6088 -0.6717
 8430TIP3    H246782   0.038   4.779  15.300  1.1334 -1.0745 -0.5937
 8431TIP3   OH246783   4.105   3.904  13.445  0.6984 -0.6101 -0.4622
 8431TIP3    H146784   4.145   3.837  13.390  3.2031  0.0765  0.3824
 8431TIP3    H246785   4.154   3.900  13.528 -0.1547  1.1467  0.1910
 8432TIP3   OH246786   2.937   6.464  11.070 -0.2214 -0.1140 -0.4685
 8432TIP3    H146787   2.857   6.515  11.081 -0.0580  0.6951 -2.5625
 8432TIP3    H246788   2.914   6.396  11.007  0.2725 -1.0326  0.3163
 8433TIP3   OH246789   6.324   4.065   5.524 -0.0684  0.6693  0.1359
 8433TIP3    H146790   6.419   4.061   5.519 -0.1366 -0.3039 -0.9574
 8433TIP3    H246791   6.298   3.976   5.549 -0.7811  0.2063 -2.0561
 8434TIP3   OH246792   3.929   3.578   5.910 -0.0797  0.2753 -0.1677
 8434TIP3    H146793   3.907   3.541   5.996 -2.0173  1.1067 -0.2523
 8434TIP3    H246794   4.003   3.525   5.879 -0.5307 -1.2329  1.2056
 8435TIP3   OH246795   3.181   5.270  12.593  0.7797  0.5068  0.0929
 8435TIP3    H146796   3.170   5.307  12.506  2.2634 -0.5331 -0.5782
 8435TIP3    H246797   3.098   5.228  12.613  0.7140 -0.0094 -1.2118
 8436TIP3   OH246798   6.086   4.048  16.233 -0.3065  0.0096 -0.2145
 8436TIP3    H146799   6.092   3.983  16.163 -1.8530  1.6230 -1.9509
 8436TIP3    H246800   6.023   4.011  16.294 -1.1099 -0.1872 -1.1411
 8437TIP3   OH246801   5.546   4.878   5.642  0.3473 -0.3422 -0.1649
 8437TIP3    H146802   5.584   4.851   5.725  0.2365  0.6703  0.2382
 8437TIP3    H246803   5.602   4.839   5.575  1.9637  0.9018  0.4006
 8438TIP3   OH246804   6.549   5.533  13.329 -0.3675 -0.1438  0.4060
 8438TIP3    H146805   6.503   5.545  13.412 -0.6028  4.2887 -0.1512
 8438TIP3    H246806   6.488   5.483  13.275 -2.3399  1.1664  1.3320
 8439TIP3   OH246807   3.877   4.479  15.226  0.5575 -0.1875  0.1298
 8439TIP3    H146808   3.874   4.487  15.321 -0.8990  2.9262 -0.0426
 8439TIP3    H246809   3.945   4.541  15.199 -0.7670  0.8866 -0.8951
 8440TIP3   OH246810   5.296   1.156   1.815 -0.2739  0.4850 -0.0345
 8440TIP3    H146811   5.226   1.168   1.751 -0.7417 -2.8545 -0.3003
 8440TIP3    H246812   5.367   1.115   1.766 -0.1429 -0.9488  1.2940
 8441TIP3   OH246813   4.720   4.332  16.586 -0.0367  0.7152  0.6187
 8441TIP3    H146814   4.698   4.239  16.584  0.8655  0.3944  3.1782
 8441TIP3    H246815   4.644   4.374  16.626 -0.1483  1.0060  0.1141
 8442TIP3   OH246816   6.323   0.492  15.169  0.1711 -0.3867 -0.3114
 8442TIP3    H146817   6.376   0.420  15.203 -1.5429 -1.3235  0.5045
 8442TIP3    H246818   6.271   0.454  15.099  0.4858  0.4919 -1.0441
 8443TIP3   OH246819   4.261   3.667  13.611  0.2247  0.1053  0.0294
 8443TIP3    H146820   4.290   3.705  13.693 -0.3454 -0.5996  0.5685
 8443TIP3    H246821   4.342   3.645  13.564  0.5547  0.0575  0.6141
 8444TIP3   OH246822   5.859   4.811   1.368  0.2965  0.1390  0.1274
 8444TIP3    H146823   5.923   4.821   1.438  0.1648  0.1920  0.2408
 8444TIP3    H246824   5.872   4.887   1.312  0.1409  0.2995  0.3057
 8445TIP3   OH246825   0.336   3.329   3.160  0.0129 -0.0327 -0.4664
 8445TIP3    H146826   0.344   3.234   3.153 -1.7421 -0.2250 -0.2172
 8445TIP3    H246827   0.352   3.348   3.252 -1.7819 -0.3688 -0.0480
 8446TIP3   OH246828   3.988   6.218   5.947 -0.1347 -0.0883 -0.1463
 8446TIP3    H146829   4.014   6.133   5.912  0.9837 -0.3364  1.1837
 8446TIP3    H246830   3.893   6.212   5.958 -0.1729 -0.8550 -0.8518
 8447TIP3   OH246831   4.474   3.034  11.696 -0.1953 -0.0473 -0.0635
 8447TIP3    H146832   4.398   2.985  11.727 -0.4046 -0.4937 -1.2323
 8447TIP3    H246833   4.512   2.979  11.628  1.2643  0.1071  0.5837
 8448TIP3   OH246834   1.807   5.722   5.290 -0.2409 -0.4011  0.0386
 8448TIP3    H146835   1.860   5.643   5.301 -0.8800 -0.7080  1.0293
 8448TIP3    H246836   1.860   5.792   5.329 -0.9670 -0.8802  1.9778
 8449TIP3   OH246837   4.825   4.513  12.658  0.0426  0.0621 -0.5769
 8449TIP3    H146838   4.801   4.596  12.699  0.2406 -0.8283  1.4836
 8449TIP3    H246839   4.760   4.500  12.589 -0.2471  1.7055 -0.6342
 8450TIP3   OH246840   5.327   6.062   1.453 -0.0017 -0.1062  0.5301
 8450TIP3    H146841   5.248   6.017   1.482  0.2381  0.0108  1.4038
 8450TIP3    H246842   5.295   6.141   1.409 -0.3847 -0.5008  0.0875
 8451TIP3   OH246843   6.503   0.473   3.461  0.0447  0.3193 -0.2223
 8451TIP3    H146844   6.517   0.511   3.547  0.8948 -0.2060 -0.1202
 8451TIP3    H246845   6.541   0.536   3.400  3.7563 -1.3423  0.0763
 8452TIP3   OH246846   5.186   0.644   1.978 -0.4143 -0.0063 -0.0004
 8452TIP3    H146847   5.189   0.717   2.040  1.0724 -0.0738  0.0446
 8452TIP3    H246848   5.117   0.668   1.916 -0.1255  1.3201  0.1551
 8453TIP3   OH246849   5.429   2.109   5.576 -0.0470  0.1190 -0.7477
 8453TIP3    H146850   5.439   2.038   5.512  1.2880  0.1443 -0.6008
 8453TIP3    H246851   5.387   2.067   5.651  0.6652 -0.5284 -0.6885
 8454TIP3   OH246852   2.172   3.312   0.037  0.3263  0.4489  0.7141
 8454TIP3    H146853   2.128   3.244  -0.015  1.1020  0.3838  0.1201
 8454TIP3    H246854   2.251   3.269   0.070  0.5296  0.8917  0.8056
 8455TIP3   OH246855   4.781   3.734  16.577 -0.0457 -0.3321 -0.0946
 8455TIP3    H146856   4.733   3.716  16.496  0.6991  0.0565 -0.6316
 8455TIP3    H246857   4.869   3.756  16.549 -0.4070  2.3503  0.6299
 8456TIP3   OH246858   4.424   6.151   0.780 -0.5830  0.7397 -0.0093
 8456TIP3    H146859   4.392   6.240   0.770 -0.9360  0.6107 -0.0496
 8456TIP3    H246860   4.397   6.125   0.869 -1.1059  0.4313 -0.2489
 8457TIP3   OH246861   0.382   0.391  12.144  0.2241  0.4845 -0.1807
 8457TIP3    H146862   0.411   0.418  12.057 -1.9939 -1.6580 -1.7152
 8457TIP3    H246863   0.286   0.390  12.138  0.0430 -0.7552  1.9668
 8458TIP3   OH246864   5.569   0.990   5.146  0.1240 -0.4598  0.0564
 8458TIP3    H146865   5.478   0.975   5.174 -0.1357 -0.0334 -0.5359
 8458TIP3    H246866   5.620   0.926   5.196  0.0562  1.9860  3.5834
 8459TIP3   OH246867   4.560   2.608   5.095  0.1863 -0.2897  0.5450
 8459TIP3    H146868   4.628   2.547   5.122  0.6971 -0.1181 -0.3142
 8459TIP3    H246869   4.571   2.684   5.153  1.1674  0.0164 -0.0304
 8460TIP3   OH246870   5.189   2.938   5.309 -0.6951  0.5868 -0.0991
 8460TIP3    H146871   5.101   2.974   5.300 -0.5055  1.2462  0.5182
 8460TIP3    H246872   5.179   2.865   5.370 -0.5103  2.0386  1.7894
 8461TIP3   OH246873   3.156   3.267  11.092 -0.7716 -0.4381 -0.8224
 8461TIP3    H146874   3.126   3.338  11.036 -2.8244 -1.2630 -0.8674
 8461TIP3    H246875   3.120   3.288  11.179  0.6539 -0.2104 -0.2596
 8462TIP3   OH246876   6.365   1.802  11.383  0.4608 -0.7883 -0.4823
 8462TIP3    H146877   6.297   1.776  11.321 -0.9341 -0.9740  1.0417
 8462TIP3    H246878   6.421   1.862  11.334 -1.5394  0.3722 -1.4729
 8463TIP3   OH246879   0.678   6.770   0.401  0.3145 -0.3104 -0.3627
 8463TIP3    H146880   0.719   6.849   0.366  0.2145 -0.2961 -0.4452
 8463TIP3    H246881   0.690   6.777   0.496 -0.5077  0.2469 -0.2995
 8464TIP3   OH246882   5.539   5.658   0.320 -0.8563  0.4058  0.3073
 8464TIP3    H146883   5.501   5.617   0.398  0.1252 -0.0877  0.5513
 8464TIP3    H246884   5.628   5.623   0.317 -0.5937  1.1279 -0.5266
 8465TIP3   OH246885   4.770   5.403   3.402  0.4755  0.0129  0.2147
 8465TIP3    H146886   4.821   5.376   3.478  1.9834  0.0539 -0.7491
 8465TIP3    H246887   4.827   5.464   3.354 -0.9047  0.9402 -0.3249
 8466TIP3   OH246888   2.392   1.499   1.044  0.2369  0.0852 -0.4932
 8466TIP3    H146889   2.414   1.549   1.123  1.0482  1.6910 -1.6734
 8466TIP3    H246890   2.441   1.417   1.053  1.4589  0.8443  0.0328
 8467TIP3   OH246891   6.501   1.024   5.349  0.1548  0.3464  0.2801
 8467TIP3    H146892   6.526   1.105   5.305  1.0901 -0.5717 -0.9691
 8467TIP3    H246893   6.460   0.971   5.281  0.5125 -0.6310  0.7997
 8468TIP3   OH246894   3.090   3.753   2.154  0.5573 -0.1159  0.3973
 8468TIP3    H146895   3.126   3.802   2.228  0.0448  0.8027  0.0517
 8468TIP3    H246896   3.152   3.681   2.141 -0.1506 -1.2128  2.6875
 8469TIP3   OH246897   5.348   4.040  15.100 -0.1138 -0.1914  0.0754
 8469TIP3    H146898   5.385   4.002  15.180 -0.8702 -1.4238 -0.1411
 8469TIP3    H246899   5.280   4.100  15.132  1.4742  1.5282  0.4395
 8470TIP3   OH246900   2.151   2.375   5.811  0.0292  0.2478  1.2612
 8470TIP3    H146901   2.092   2.315   5.857  0.1213 -1.0742 -0.2386
 8470TIP3    H246902   2.123   2.462   5.838 -1.3521 -0.4009  2.0522
 8471TIP3   OH246903   2.010   5.119   4.359  0.1239  0.2916  0.3553
 8471TIP3    H146904   2.033   5.038   4.313  2.0343 -0.2095  2.0328
 8471TIP3    H246905   2.046   5.107   4.447 -0.8094  2.3951  1.0850
 8472TIP3   OH246906   0.020   3.001   0.131 -0.4167 -0.0704 -0.1931
 8472TIP3    H146907   0.057   2.936   0.072  0.0055 -0.0836  0.0819
 8472TIP3    H246908  -0.065   3.023   0.093 -0.8648 -1.2631  0.0567
 8473TIP3   OH246909   5.223   1.169   5.527 -0.1510 -0.4543 -0.1224
 8473TIP3    H146910   5.225   1.257   5.490  2.1653 -0.5878 -0.4678
 8473TIP3    H246911   5.130   1.147   5.530 -0.7050  1.3736 -1.4845
 8474TIP3   OH246912   1.039   1.798   2.859 -0.4041  0.1553  0.6218
 8474TIP3    H146913   0.948   1.788   2.887 -1.2955 -0.5568 -2.1855
 8474TIP3    H246914   1.082   1.718   2.890 -1.3369 -0.6228 -0.0234
 8475TIP3   OH246915   4.025   0.689  15.547  0.7187  0.4284 -0.3471
 8475TIP3    H146916   3.990   0.675  15.460  1.6435  1.3598 -0.8915
 8475TIP3    H246917   4.042   0.601  15.581  1.5957  0.0793 -1.6325
 8476TIP3   OH246918   4.612   2.358   5.730 -0.2984  0.4026  0.0471
 8476TIP3    H146919   4.520   2.383   5.739 -0.5438  0.1028 -1.3495
 8476TIP3    H246920   4.660   2.441   5.730 -0.5997  0.5799  0.4252
 8477TIP3   OH246921   4.012   4.303   1.560  0.0858 -0.1194  0.5763
 8477TIP3    H146922   3.946   4.269   1.621 -0.4359  0.1525  0.1803
 8477TIP3    H246923   3.969   4.299   1.474 -0.5779  2.8536  0.6545
 8478TIP3   OH246924   0.921   2.681  11.030  0.0956  0.4672  0.2365
 8478TIP3    H146925   0.965   2.670  10.945 -1.3611  0.3658 -0.5315
 8478TIP3    H246926   0.830   2.699  11.008 -0.1022  1.5493  1.7719
 8479TIP3   OH246927   5.721   0.479  14.787 -0.3253  0.0403 -0.0328
 8479TIP3    H146928   5.638   0.462  14.833 -0.5250 -1.1238 -0.7973
 8479TIP3    H246929   5.785   0.491  14.857 -0.7054 -1.2983  0.5689
 8480TIP3   OH246930   4.274   6.736  14.373  0.4695  0.3737 -0.3508
 8480TIP3    H146931   4.224   6.755  14.452 -0.5514 -0.3287 -0.8025
 8480TIP3    H246932   4.359   6.705  14.405  0.8376  2.1005  0.4231
 8481TIP3   OH246933   5.349   2.342  14.702  0.3502  0.3352 -0.1366
 8481TIP3    H146934   5.335   2.281  14.630 -1.6856 -1.7197  1.8147
 8481TIP3    H246935   5.414   2.299  14.758 -1.1410 -0.1991  1.2853
 8482TIP3   OH246936   3.369   3.945   0.920  0.3193  0.3109 -0.1392
 8482TIP3    H146937   3.428   3.980   0.853  3.7656 -1.2093  1.8301
 8482TIP3    H246938   3.401   3.982   1.002 -2.3901  0.4357  0.9427
 8483TIP3   OH246939   2.983   4.728   6.047  0.6195 -0.3768  0.2160
 8483TIP3    H146940   2.938   4.794   5.994  0.5897 -0.3917  0.2228
 8483TIP3    H246941   2.937   4.729   6.131 -1.5045 -2.6781 -0.8083
 8484TIP3   OH246942   4.624   6.631   3.146 -0.0451  0.1669 -0.6088
 8484TIP3    H146943   4.664   6.622   3.060  0.4031 -2.3875 -0.1990
 8484TIP3    H246944   4.697   6.656   3.203 -0.2831  1.5444 -0.8642
 8485TIP3   OH246945   6.006   3.668   2.949 -0.4613 -0.3694 -0.7546
 8485TIP3    H146946   6.066   3.666   2.874  0.0598  0.4133 -0.3686
 8485TIP3    H246947   6.038   3.740   3.003 -1.3857 -0.3414 -0.2330
 8486TIP3   OH246948   2.064   3.852  16.529  0.0356 -0.0660 -0.2850
 8486TIP3    H146949   1.972   3.852  16.558 -0.0650 -0.9196 -0.5848
 8486TIP3    H246950   2.067   3.919  16.461 -0.6166 -0.7706 -1.0281
 8487TIP3   OH246951   4.775   2.847  16.541  0.1189  0.0354 -0.0720
 8487TIP3    H146952   4.772   2.901  16.620 -0.8466 -0.5810  0.3221
 8487TIP3    H246953   4.689   2.806  16.537  1.2715 -2.6129  0.4543
 8488TIP3   OH246954   0.874   3.966  13.095  0.1997 -0.0803  0.1521
 8488TIP3    H146955   0.910   4.051  13.121  0.0700 -0.3200  1.1577
 8488TIP3    H246956   0.781   3.972  13.115  0.0606 -0.2099 -0.4500
 8489TIP3   OH246957   2.105   0.049  11.238  0.6865  0.1441  0.3205
 8489TIP3    H146958   2.126  -0.026  11.294 -2.2415 -1.3780 -0.4274
 8489TIP3    H246959   2.160   0.038  11.161  1.2231 -0.4787  0.7776
 8490TIP3   OH246960   6.159   4.938  12.037 -0.3518  0.0061 -0.5743
 8490TIP3    H146961   6.160   4.884  12.117 -2.4559 -0.2025 -0.6288
 8490TIP3    H246962   6.162   5.028  12.069  0.2711 -0.0952 -0.3383
 8491TIP3   OH246963   2.639   6.067  14.346 -0.0986 -1.0810 -0.4898
 8491TIP3    H146964   2.724   6.071  14.390  0.3003  0.5838 -1.3249
 8491TIP3    H246965   2.660   6.046  14.255 -0.6405 -1.3549 -0.5526
 8492TIP3   OH246966   5.239   4.329  11.328 -0.0171  0.0457 -0.2432
 8492TIP3    H146967   5.243   4.241  11.291  1.4360 -0.3341  0.7556
 8492TIP3    H246968   5.166   4.371  11.281 -0.5153 -1.5547 -0.9727
 8493TIP3   OH246969   6.838   1.906   3.154  0.0193  0.5265  0.1454
 8493TIP3    H146970   6.745   1.893   3.136 -0.1206  0.9449  0.5460
 8493TIP3    H246971   6.844   1.996   3.186  0.4865  0.3405  0.5970
 8494TIP3   OH246972   6.330   4.830  10.344 -0.2099  0.3359 -0.3514
 8494TIP3    H146973   6.310   4.872  10.260 -0.3873  1.0466  0.0307
 8494TIP3    H246974   6.416   4.865  10.369  0.1784 -0.4436 -0.5872
 8495TIP3   OH246975   3.690   3.789   3.033 -0.0375  0.1226  0.4448
 8495TIP3    H146976   3.710   3.719   2.970  0.8274  1.7216 -1.1416
 8495TIP3    H246977   3.596   3.805   3.021 -0.2224 -0.6669  0.7495
 8496TIP3   OH246978   3.036   2.281  14.557 -0.8873  0.5131 -0.0503
 8496TIP3    H146979   3.093   2.228  14.612  0.5491  0.7937 -1.2034
 8496TIP3    H246980   3.045   2.370  14.590  0.4240  0.7771 -1.0417
 8497TIP3   OH246981   2.905   3.201  16.231 -0.3507 -0.0632 -0.0419
 8497TIP3    H146982   2.922   3.272  16.293 -0.0305 -0.1739 -0.0007
 8497TIP3    H246983   2.835   3.235  16.175  0.1634  0.5037 -0.3681
 8498TIP3   OH246984   1.016   6.647   3.237  0.1640  0.2484  0.2995
 8498TIP3    H146985   0.938   6.608   3.275  0.5173 -0.1900  0.5767
 8498TIP3    H246986   1.074   6.573   3.219 -0.4664  0.2588 -2.2611
 8499TIP3   OH246987   6.794   3.112   1.997  0.0180  0.1523  0.5464
 8499TIP3    H146988   6.874   3.060   1.994  1.7954  2.7217 -1.0256
 8499TIP3    H246989   6.753   3.099   1.912  0.6263  1.3928  0.0258
 8500TIP3   OH246990   5.872   5.297  14.289  0.8069 -0.5465 -0.4006
 8500TIP3    H146991   5.899   5.218  14.243 -0.2367 -0.9151 -0.4022
 8500TIP3    H246992   5.794   5.327  14.243 -1.6401 -2.1744  2.3288
 8501TIP3   OH246993   0.735   0.801   4.833  0.5420  0.1088  0.7962
 8501TIP3    H146994   0.643   0.810   4.808  0.4304 -1.6229  0.5112
 8501TIP3    H246995   0.783   0.808   4.751  0.3635 -2.7489  0.3544
 8502TIP3   OH246996   2.333   5.556  11.735 -0.2544  0.3317  0.3716
 8502TIP3    H146997   2.296   5.510  11.660 -1.0536 -0.8134  1.4193
 8502TIP3    H246998   2.417   5.589  11.705 -0.2329 -0.7351 -0.8000
 8503TIP3   OH246999   2.125   2.269   6.255 -0.1272 -0.3302 -0.5029
 8503TIP3    H147000   2.188   2.332   6.291  0.7751  0.2203 -2.8644
 8503TIP3    H247001   2.044   2.286   6.304  0.5539  1.5319  0.0809
 8504TIP3   OH247002   5.323   6.222   1.932  0.0189  0.1305 -0.0307
 8504TIP3    H147003   5.303   6.197   2.022  0.5736  0.1826  0.1151
 8504TIP3    H247004   5.412   6.257   1.936 -1.2461  3.7702  0.1028
 8505TIP3   OH247005   3.343   0.148   5.486  0.7200  0.0789 -0.1658
 8505TIP3    H147006   3.359   0.090   5.561  2.2538  1.5904  0.7470
 8505TIP3    H247007   3.424   0.146   5.436 -0.0717 -0.4156 -1.4952
 8506TIP3   OH247008   3.172   4.931  14.566  0.1393  0.5130  0.1394
 8506TIP3    H147009   3.186   4.839  14.540 -0.9791 -0.0519  1.4088
 8506TIP3    H247010   3.086   4.931  14.609  0.9984  1.7337  2.0013
 8507TIP3   OH247011   5.890   5.010   3.759  0.2252 -0.0189  0.0653
 8507TIP3    H147012   5.939   5.090   3.776 -1.8328  1.2267  0.5338
 8507TIP3    H247013   5.890   4.963   3.843  0.2504  0.1975  0.1867
 8508TIP3   OH247014   6.816   0.248  11.379 -0.2280  0.3199 -0.2535
 8508TIP3    H147015   6.890   0.304  11.354 -1.0917  1.5986 -0.0301
 8508TIP3    H247016   6.741   0.285  11.333 -0.9905 -0.1019  0.6238
 8509TIP3   OH247017   0.595   4.937  11.605 -0.0840 -0.1277 -0.3064
 8509TIP3    H147018   0.588   4.848  11.641 -3.3385  0.2039  0.2078
 8509TIP3    H247019   0.671   4.975  11.650  0.3529 -2.0884  0.7553
 8510TIP3   OH247020   4.436   0.416  12.757 -0.3675  0.3687  0.1857
 8510TIP3    H147021   4.487   0.493  12.783 -0.3482  0.1636  0.7666
 8510TIP3    H247022   4.353   0.451  12.725  0.9682  0.9110 -3.0906
 8511TIP3   OH247023   1.146   0.402   5.590 -0.1295 -0.0977 -0.2439
 8511TIP3    H147024   1.222   0.370   5.542  1.5273 -1.9708  3.2712
 8511TIP3    H247025   1.078   0.337   5.573 -0.0598  0.0703 -1.2016
 8512TIP3   OH247026   2.012   5.747  11.625  0.0214 -0.4319  0.1465
 8512TIP3    H147027   2.088   5.799  11.599 -0.9882  1.4301  0.7075
 8512TIP3    H247028   2.011   5.752  11.721 -1.8533  1.2985  0.1235
 8513TIP3   OH247029   5.217   2.137  15.418  0.4104  0.6770 -0.0032
 8513TIP3    H147030   5.160   2.116  15.492  1.2221  1.0704  0.7478
 8513TIP3    H247031   5.220   2.057  15.366 -0.3279  0.4646  0.2789
 8514TIP3   OH247032   0.924   1.427   3.638 -0.1593  0.5578  0.1053
 8514TIP3    H147033   0.871   1.493   3.593 -0.5440 -1.0544 -1.9456
 8514TIP3    H247034   0.950   1.366   3.569  0.5297 -1.2222  1.8471
 8515TIP3   OH247035   6.525   0.910   3.931  0.0280  0.3895  0.3455
 8515TIP3    H147036   6.557   0.958   3.854 -0.2415  0.1150  0.0643
 8515TIP3    H247037   6.451   0.859   3.899  0.3581 -0.2717  0.6309
 8516TIP3   OH247038   1.556   2.888  12.405  0.0826  1.0554 -0.2594
 8516TIP3    H147039   1.616   2.874  12.477  1.6599  0.2232 -1.6767
 8516TIP3    H247040   1.602   2.856  12.327 -1.5817  1.7971 -1.6416
 8517TIP3   OH247041   4.339   1.664   3.981 -0.2688  0.5596  0.0726
 8517TIP3    H147042   4.337   1.686   4.074 -0.4853  0.4079  0.1065
 8517TIP3    H247043   4.429   1.682   3.953 -0.5607  1.9828 -0.0316
 8518TIP3   OH247044   6.294   3.163   3.934  0.6407  0.1918 -0.0455
 8518TIP3    H147045   6.250   3.152   4.018  1.2116  3.5796  0.8504
 8518TIP3    H247046   6.388   3.166   3.956  0.7848  1.3655 -0.7108
 8519TIP3   OH247047   0.717   6.156  14.434 -0.1084  0.0974  0.6061
 8519TIP3    H147048   0.799   6.192  14.401 -1.1686  1.7887 -0.3252
 8519TIP3    H247049   0.701   6.079  14.380  0.5729  0.0839  0.4174
 8520TIP3   OH247050   2.687   3.117   4.498  0.4901  0.0819 -0.0384
 8520TIP3    H147051   2.685   3.170   4.578 -1.2685 -2.1691  1.5516
 8520TIP3    H247052   2.634   3.166   4.435 -0.5313  0.5704  1.1530
 8521TIP3   OH247053   1.980   0.212  11.060 -0.0463  0.3080 -0.1716
 8521TIP3    H147054   2.065   0.240  11.027  0.3899 -0.3385  0.3828
 8521TIP3    H247055   1.996   0.126  11.100 -1.2224 -0.4609 -1.2622
 8522TIP3   OH247056   4.479   2.518   4.585  0.0554  0.7692 -0.1816
 8522TIP3    H147057   4.535   2.596   4.585  1.3734 -0.1511  0.2292
 8522TIP3    H247058   4.416   2.534   4.514  2.0566  1.0011 -2.0120
 8523TIP3   OH247059   2.567   3.891  11.677  0.2072  0.2505  0.0423
 8523TIP3    H147060   2.607   3.945  11.746  1.0392 -1.6830  1.1420
 8523TIP3    H247061   2.589   3.801  11.701 -1.7501 -0.6627 -1.3301
 8524TIP3   OH247062   3.391   3.180  17.168 -0.0329 -0.5554  0.0889
 8524TIP3    H147063   3.374   3.272  17.188 -1.4019 -0.8313  0.2877
 8524TIP3    H247064   3.309   3.148  17.130  0.2925 -1.7816  0.3682
 8525TIP3   OH247065   0.370   0.112   1.884  0.0665  0.3594  0.0451
 8525TIP3    H147066   0.408   0.074   1.805 -0.3917  0.0304 -0.0182
 8525TIP3    H247067   0.441   0.163   1.922  0.9503 -1.1968  0.5554
 8526TIP3   OH247068   4.777   2.441   4.106  0.2581 -0.2869 -0.2258
 8526TIP3    H147069   4.798   2.350   4.089  0.3531 -0.5404  1.1433
 8526TIP3    H247070   4.685   2.451   4.079  0.2043 -0.8192 -0.2350
 8527TIP3   OH247071   2.665   5.002   4.733 -0.2583  0.1988 -0.2876
 8527TIP3    H147072   2.684   5.046   4.816 -1.1394  1.0691 -0.5164
 8527TIP3    H247073   2.747   5.003   4.685  0.1798 -0.0228  0.4404
 8528TIP3   OH247074   1.718   6.304   1.855 -0.3326  0.0174 -0.5014
 8528TIP3    H147075   1.702   6.345   1.770 -0.2419 -1.1504 -1.1054
 8528TIP3    H247076   1.813   6.311   1.867 -0.1275 -1.1120 -1.2231
 8529TIP3   OH247077   0.960   0.755  15.289 -0.3620  0.4619 -0.7083
 8529TIP3    H147078   0.988   0.721  15.204 -0.0859 -1.8435  0.2372
 8529TIP3    H247079   1.020   0.828  15.306  0.1777  0.3622 -2.0680
 8530TIP3   OH247080   1.203   0.131  10.992 -0.0452  0.0265  0.0294
 8530TIP3    H147081   1.243   0.212  11.024 -1.1876  0.2594  0.9584
 8530TIP3    H247082   1.168   0.154  10.906  2.0090 -0.2657 -0.9218
 8531TIP3   OH247083   2.211   2.500   0.813 -0.2078  0.7296  0.6767
 8531TIP3    H147084   2.193   2.459   0.897 -0.1030 -0.3232  0.2093
 8531TIP3    H247085   2.144   2.465   0.754  0.9480 -0.1983 -0.1586
 8532TIP3   OH247086   0.899   2.259  12.928 -0.3417  0.0425 -0.2231
 8532TIP3    H147087   0.988   2.257  12.893 -0.0725 -1.0781  0.4730
 8532TIP3    H247088   0.911   2.249  13.023 -1.1595  1.0637  0.0108
 8533TIP3   OH247089   2.932   3.886   0.786  0.3825 -0.5536 -0.6165
 8533TIP3    H147090   3.009   3.871   0.731  1.1132  1.1953 -0.1452
 8533TIP3    H247091   2.882   3.953   0.739 -1.4070 -2.2934 -1.3847
 8534TIP3   OH247092   6.345   0.078  14.998 -0.6358  0.7994 -0.0409
 8534TIP3    H147093   6.435   0.111  14.991 -0.0762  0.4073  3.3829
 8534TIP3    H247094   6.351  -0.012  14.966  0.2806  0.7015  0.3654
 8535TIP3   OH247095   5.614   0.609   4.130 -0.3615 -0.4452 -0.6271
 8535TIP3    H147096   5.549   0.679   4.121 -0.3781 -0.4088 -0.2550
 8535TIP3    H247097   5.602   0.577   4.220  0.7258  0.1568 -0.2514
 8536TIP3   OH247098   4.639   3.187  11.324  0.4516 -0.7052  0.4976
 8536TIP3    H147099   4.562   3.138  11.354 -0.6360 -0.6285 -1.9218
 8536TIP3    H247100   4.708   3.162  11.385 -0.7988 -2.9618  1.1189
 8537TIP3   OH247101   6.389   4.121  16.638 -0.5251  0.0935  0.4402
 8537TIP3    H147102   6.475   4.082  16.620  0.0210 -0.0041  2.9231
 8537TIP3    H247103   6.406   4.183  16.708 -2.5699 -0.3320  1.3681
 8538TIP3   OH247104   6.522   2.152  12.664  0.3653 -0.9153 -0.5029
 8538TIP3    H147105   6.541   2.236  12.624 -0.8514  0.8419  2.3068
 8538TIP3    H247106   6.426   2.148  12.667  0.3910 -2.5755 -0.8447
 8539TIP3   OH247107   4.140   1.512  14.130 -0.1330  0.7187 -0.1576
 8539TIP3    H147108   4.208   1.533  14.194  0.9693 -3.7905  0.4897
 8539TIP3    H247109   4.074   1.580  14.142  3.4101  4.5566  0.2221
 8540TIP3   OH247110   4.794   2.906  11.241 -0.4815 -0.1185  0.5653
 8540TIP3    H147111   4.845   2.983  11.264  2.1871 -1.0469 -1.6123
 8540TIP3    H247112   4.833   2.835  11.293  1.4503 -1.0431 -1.8914
 8541TIP3   OH247113   3.537   2.435   1.106 -0.1334 -0.4611 -0.2357
 8541TIP3    H147114   3.526   2.344   1.132  0.2249 -0.3755  0.2060
 8541TIP3    H247115   3.521   2.435   1.011 -1.6367 -0.7345 -0.0038
 8542TIP3   OH247116   3.944   4.039   5.486  0.1844 -0.0670 -0.1251
 8542TIP3    H147117   3.892   4.101   5.436 -3.1434 -0.4975  2.4254
 8542TIP3    H247118   3.909   3.953   5.462  0.1497 -0.4315  1.1518
 8543TIP3   OH247119   3.650   6.766   3.342  0.7099  0.0611  0.0372
 8543TIP3    H147120   3.647   6.857   3.313 -0.8141 -0.1770 -0.5987
 8543TIP3    H247121   3.736   6.735   3.314  0.3574  0.6413 -1.8001
 8544TIP3   OH247122   0.085   4.971   5.357  1.0329 -0.1073  0.2077
 8544TIP3    H147123  -0.006   4.955   5.331  0.4708 -0.0293  1.9970
 8544TIP3    H247124   0.125   5.009   5.280 -0.6165  0.4372 -0.4333
 8545TIP3   OH247125   4.082   0.293  14.286  0.1957 -0.4069 -1.0200
 8545TIP3    H147126   4.035   0.298  14.202  0.7326  0.6817 -1.2787
 8545TIP3    H247127   4.171   0.271  14.262  0.4594  0.3638 -0.7941
 8546TIP3   OH247128   0.727   4.144   3.983  0.5168 -0.1279  0.1085
 8546TIP3    H147129   0.731   4.153   4.078 -2.8457 -0.9998  0.4430
 8546TIP3    H247130   0.687   4.225   3.952 -1.1174 -1.0055 -0.1828
 8547TIP3   OH247131   3.275   4.624  14.009 -0.3388  0.0574 -0.4626
 8547TIP3    H147132   3.223   4.698  13.979 -1.1370  0.4645  1.7462
 8547TIP3    H247133   3.366   4.652  13.997 -0.6288  0.9759 -0.5662
 8548TIP3   OH247134   1.693   2.442   4.927  0.2836  0.7818  0.0126
 8548TIP3    H147135   1.621   2.462   4.867  0.5118 -0.4904 -0.7275
 8548TIP3    H247136   1.650   2.425   5.011 -0.3502 -0.3903 -0.5240
 8549TIP3   OH247137   0.485   6.033   4.417 -0.2792  0.1633 -0.4197
 8549TIP3    H147138   0.407   6.065   4.463 -0.7199  0.3691 -1.3001
 8549TIP3    H247139   0.485   6.079   4.334  0.5030 -0.2270 -0.6467
 8550TIP3   OH247140   4.830   4.082   5.437 -0.4678  0.1490  0.0230
 8550TIP3    H147141   4.776   4.012   5.475  1.3011 -0.2009  2.1137
 8550TIP3    H247142   4.783   4.163   5.459 -0.3968 -0.1675  1.4260
 8551TIP3   OH247143   4.538   3.785  11.311  0.3078  0.8374 -0.2655
 8551TIP3    H147144   4.477   3.712  11.322  0.8048  0.4900  0.2637
 8551TIP3    H247145   4.551   3.791  11.217  1.0787 -0.4653 -0.2740
 8552TIP3   OH247146   2.391   6.131   3.567 -0.1401  0.4698 -0.3927
 8552TIP3    H147147   2.319   6.119   3.629  0.2077 -1.3005 -0.2687
 8552TIP3    H247148   2.444   6.201   3.605 -0.4122  0.0172  0.8675
 8553TIP3   OH247149   2.091   2.429  15.623 -0.2649 -0.0917 -0.1748
 8553TIP3    H147150   2.108   2.379  15.544  1.4402  0.5772 -0.2891
 8553TIP3    H247151   2.094   2.365  15.694 -0.0815 -0.4427 -0.5018
 8554TIP3   OH247152   6.133   3.380  13.382  0.0284  0.3259  0.1260
 8554TIP3    H147153   6.111   3.386  13.475  1.9933  0.5418  0.6170
 8554TIP3    H247154   6.220   3.342  13.380 -1.2173 -2.8016 -1.8228
 8555TIP3   OH247155   0.156   1.728  11.968  0.1417  0.2795 -0.2930
 8555TIP3    H147156   0.156   1.660  11.901  1.0481 -0.2955  0.2744
 8555TIP3    H247157   0.126   1.684  12.047  0.1430  0.6850 -0.0635
 8556TIP3   OH247158   5.306   5.937  12.465  0.0045 -0.3369 -0.7821
 8556TIP3    H147159   5.349   5.920  12.381  0.0241 -1.5707 -0.5424
 8556TIP3    H247160   5.217   5.966  12.441  0.7992  1.8943 -1.2679
 8557TIP3   OH247161   4.406   0.596   5.848 -0.0799 -0.1326 -0.3111
 8557TIP3    H147162   4.333   0.538   5.870  0.3612 -0.4532  0.3205
 8557TIP3    H247163   4.366   0.683   5.841 -0.4882 -0.2778  0.2028
 8558TIP3   OH247164   3.442   2.896   1.957 -0.0176 -0.4038  0.2223
 8558TIP3    H147165   3.497   2.907   2.035 -1.6041 -1.7408  1.6188
 8558TIP3    H247166   3.496   2.848   1.895  1.1058  0.2294  0.6949
 8559TIP3   OH247167   6.683   1.572  11.671  0.1986 -0.0090  0.3955
 8559TIP3    H147168   6.634   1.502  11.716  1.4531 -0.3181  1.3364
 8559TIP3    H247169   6.616   1.636  11.647 -0.8176 -0.9386  0.6443
 8560TIP3   OH247170   1.512   1.159   2.836 -0.8817  0.1860  0.5620
 8560TIP3    H147171   1.588   1.121   2.792 -0.1261  1.1147  1.0538
 8560TIP3    H247172   1.456   1.190   2.764  0.3187  1.6408  0.2106
 8561TIP3   OH247173   2.199   6.216   2.025 -0.1477  0.0910 -0.3011
 8561TIP3    H147174   2.279   6.252   1.987 -1.1946  1.5344 -1.2828
 8561TIP3    H247175   2.217   6.209   2.118  0.7058  1.6348 -0.3175
 8562TIP3   OH247176   1.452   3.837   4.280 -0.1514 -0.2416 -0.5073
 8562TIP3    H147177   1.484   3.882   4.201 -0.5537  0.4080 -0.3048
 8562TIP3    H247178   1.473   3.897   4.352 -1.3367 -0.0447 -0.3086
 8563TIP3   OH247179   4.997   2.320  12.852  0.3225  0.1647  0.4638
 8563TIP3    H147180   4.944   2.342  12.776  0.6900  1.4039  0.5495
 8563TIP3    H247181   5.087   2.324  12.821  0.4259 -0.6321  0.6468
 8564TIP3   OH247182   5.994   2.464  14.351 -0.0618  0.2283  0.0405
 8564TIP3    H147183   6.019   2.505  14.434 -1.5788 -1.4222  1.4030
 8564TIP3    H247184   5.941   2.388  14.377 -0.2625 -0.5664 -2.4454
 8565TIP3   OH247185   1.064   6.356   1.261  0.4595  0.0876  0.1721
 8565TIP3    H147186   1.012   6.401   1.327  0.3227  1.1384 -0.6199
 8565TIP3    H247187   1.038   6.265   1.268 -0.0991  0.3034  1.0540
 8566TIP3   OH247188   5.404   0.318   3.058  0.1087  0.5510 -0.5707
 8566TIP3    H147189   5.479   0.376   3.055  0.0540  0.5978 -3.8975
 8566TIP3    H247190   5.328   0.376   3.062  0.1499  0.5325  1.1421
 8567TIP3   OH247191   4.035   1.945   1.557 -0.1040  0.0153  0.3548
 8567TIP3    H147192   4.088   2.024   1.553 -1.4899  0.9275 -1.3858
 8567TIP3    H247193   4.091   1.876   1.519  0.6966  0.3900  0.8321
 8568TIP3   OH247194   1.704   4.539   2.157 -0.0961  0.5898  0.6987
 8568TIP3    H147195   1.645   4.512   2.227  0.0982  0.7133  0.9126
 8568TIP3    H247196   1.714   4.634   2.169  0.3513  0.5276  0.8253
 8569TIP3   OH247197   2.252   3.844  13.932  0.2344  0.3089  0.2736
 8569TIP3    H147198   2.179   3.844  13.994 -0.4330 -2.1261 -0.3795
 8569TIP3    H247199   2.326   3.810  13.983 -0.8010 -3.7346 -0.5374
 8570TIP3   OH247200   4.185   4.059  10.975 -0.2213 -0.4250 -0.5539
 8570TIP3    H147201   4.245   4.133  10.986  0.0922 -0.8458  0.7581
 8570TIP3    H247202   4.132   4.082  10.899  0.5262  0.6986 -0.7566
 8571TIP3   OH247203   3.088   3.980   4.453 -0.1922 -0.4270 -0.1169
 8571TIP3    H147204   3.017   3.929   4.492  0.3979 -2.2859 -1.3069
 8571TIP3    H247205   3.053   4.069   4.445 -2.5513 -1.3631 -1.0647
 8572TIP3   OH247206   1.586   2.380   5.677  0.2931  0.6873  0.2667
 8572TIP3    H147207   1.632   2.398   5.759 -0.4018  1.3629  0.5242
 8572TIP3    H247208   1.512   2.325   5.702  0.9933 -0.4942 -0.1624
 8573TIP3   OH247209   0.787   5.297  14.807 -0.0507 -0.0989  0.2876
 8573TIP3    H147210   0.842   5.375  14.814 -1.4874  1.1041 -0.9207
 8573TIP3    H247211   0.818   5.252  14.729  0.4975 -0.5148  0.7402
 8574TIP3   OH247212   4.034   4.376  14.042  0.7150  0.0194 -0.2500
 8574TIP3    H147213   4.103   4.437  14.019  0.0571  1.3991  1.2380
 8574TIP3    H247214   3.985   4.364  13.961  1.7840  0.2050 -0.9466
 8575TIP3   OH247215   5.027   6.571  13.222 -0.0675  0.3387 -0.3583
 8575TIP3    H147216   5.044   6.610  13.308 -1.5056  0.4021 -0.0797
 8575TIP3    H247217   4.952   6.513  13.236 -0.0031 -0.0468 -1.4735
 8576TIP3   OH247218   6.293   4.511  14.562  0.3471 -0.0188  0.1082
 8576TIP3    H147219   6.258   4.580  14.618  0.6450 -0.4328  0.8052
 8576TIP3    H247220   6.339   4.559  14.493  0.1910  0.4885  0.3503
 8577TIP3   OH247221   0.733   2.986   5.468 -0.2686 -0.3011  0.4749
 8577TIP3    H147222   0.661   2.932   5.435 -0.2509  0.5695 -1.0905
 8577TIP3    H247223   0.812   2.941   5.437 -0.2697  1.4349 -2.4124
 8578TIP3   OH247224   2.413   2.953   0.767  0.5487  0.2970  0.1663
 8578TIP3    H147225   2.464   2.906   0.834 -0.5126  0.7756  1.3581
 8578TIP3    H247226   2.428   3.045   0.787 -0.0319  0.4423 -0.0505
 8579TIP3   OH247227   1.633   1.502   6.238  0.2043  0.4664 -0.0655
 8579TIP3    H147228   1.541   1.529   6.242  0.4078  1.0549  1.1369
 8579TIP3    H247229   1.649   1.460   6.323  0.9920  0.1872 -0.3427
 8580TIP3   OH247230   6.738   4.886  12.963  0.1491 -0.2989  0.2112
 8580TIP3    H147231   6.658   4.870  12.913 -0.6074  1.9346  0.6029
 8580TIP3    H247232   6.800   4.819  12.931 -0.9473 -0.2788 -2.1875
 8581TIP3   OH247233   5.495   5.964   0.912 -0.0817 -0.2454  0.0967
 8581TIP3    H147234   5.552   5.910   0.857 -1.2926  0.6033 -2.1005
 8581TIP3    H247235   5.414   5.973   0.861 -2.1517 -1.1683  2.9449
 8582TIP3   OH247236   0.650   0.876  11.959  0.1341 -0.2836 -0.0879
 8582TIP3    H147237   0.595   0.954  11.955 -1.2933 -1.0091  2.5338
 8582TIP3    H247238   0.719   0.898  12.022  1.7459 -0.0673 -1.8556
 8583TIP3   OH247239   3.931   0.078  12.158 -0.4680 -0.2140  0.1898
 8583TIP3    H147240   3.836   0.079  12.170 -0.7614  0.5103 -1.8478
 8583TIP3    H247241   3.955  -0.015  12.163 -1.0595 -0.3077  1.9531
 8584TIP3   OH247242   0.425   1.847  12.826 -0.0732 -0.6877  0.2637
 8584TIP3    H147243   0.405   1.798  12.745 -0.0532 -2.1096  1.0848
 8584TIP3    H247244   0.513   1.818  12.850 -0.2292 -0.5663  0.9992
 8585TIP3   OH247245   6.841   2.257   3.960  0.2522 -0.2238  0.4675
 8585TIP3    H147246   6.893   2.225   3.886 -0.7006 -1.4158  0.2838
 8585TIP3    H247247   6.903   2.263   4.032  0.6495 -1.7367  0.2843
 8586TIP3   OH247248   3.137   2.481   5.646 -0.0597 -0.2430  0.0063
 8586TIP3    H147249   3.209   2.544   5.640 -0.6839  0.4475 -0.4660
 8586TIP3    H247250   3.059   2.536   5.653 -0.5156 -0.9809  0.9044
 8587TIP3   OH247251   6.195   2.657  10.640 -0.1167 -0.5367 -0.0049
 8587TIP3    H147252   6.196   2.662  10.545 -0.6976 -0.1068  0.0025
 8587TIP3    H247253   6.260   2.722  10.668  1.2875 -1.8403 -0.1222
 8588TIP3   OH247254   4.328   2.553  13.231 -0.2303 -0.0683  0.3360
 8588TIP3    H147255   4.327   2.500  13.152 -0.8707 -0.5270  0.6443
 8588TIP3    H247256   4.278   2.502  13.295 -0.4980  0.7104  0.7601
 8589TIP3   OH247257   0.424   4.937   3.741  0.3790 -0.0274  0.0592
 8589TIP3    H147258   0.469   4.967   3.820  1.3470  1.0674 -0.8597
 8589TIP3    H247259   0.462   4.990   3.671 -0.1700 -1.2484 -1.2038
 8590TIP3   OH247260   0.514   3.383  12.531  0.0253  0.2658 -0.3627
 8590TIP3    H147261   0.448   3.377  12.601 -1.4135 -2.4713 -1.7708
 8590TIP3    H247262   0.463   3.405  12.453  1.8048  4.9372 -0.4974
 8591TIP3   OH247263   4.628   6.108  11.275 -0.1154  0.3186  0.2237
 8591TIP3    H147264   4.707   6.147  11.237  0.2068 -0.3684  0.1690
 8591TIP3    H247265   4.574   6.182  11.299  0.5169  0.8011  0.1892
 8592TIP3   OH247266   6.751   5.692  13.190  0.3990  0.1672  0.2923
 8592TIP3    H147267   6.805   5.717  13.115 -0.5348  2.5270  0.3001
 8592TIP3    H247268   6.673   5.651  13.151  0.3118  0.6023 -0.0071
 8593TIP3   OH247269   3.760   6.566  13.206  0.4273 -0.3937 -0.1770
 8593TIP3    H147270   3.756   6.604  13.294  0.3501 -0.8711  0.0254
 8593TIP3    H247271   3.831   6.613  13.163  0.4293 -0.1202  0.1212
 8594TIP3   OH247272   4.887   3.849  14.530  0.1212  0.3488  1.3014
 8594TIP3    H147273   4.869   3.755  14.537 -1.2247  0.5333  0.7328
 8594TIP3    H247274   4.809   3.891  14.567 -0.5695  1.2214 -0.9497
 8595TIP3   OH247275   1.526   2.137  12.194  0.4776  0.0628  0.7861
 8595TIP3    H147276   1.472   2.139  12.273 -1.2287  1.5706 -0.3404
 8595TIP3    H247277   1.511   2.222  12.152  1.5965 -0.5578 -1.0002
 8596TIP3   OH247278   6.121   2.781  14.794  0.0469  0.4384  0.3771
 8596TIP3    H147279   6.133   2.875  14.779  1.0439  0.4016  0.9167
 8596TIP3    H247280   6.207   2.749  14.818 -0.3470 -0.5747  0.4859
 8597TIP3   OH247281   2.244   5.578  15.407 -0.0413 -0.1823  0.7107
 8597TIP3    H147282   2.255   5.511  15.475  0.2942  0.2437  1.0869
 8597TIP3    H247283   2.285   5.656  15.445  0.4344 -0.0251 -0.1134
 8598TIP3   OH247284   4.902   6.173   0.916 -0.6601  0.8434  0.9252
 8598TIP3    H147285   4.912   6.107   0.847 -2.7859  2.3026 -0.9260
 8598TIP3    H247286   4.992   6.193   0.943  0.2206 -0.2748 -0.9516
 8599TIP3   OH247287   5.826   6.530   4.805  0.3047 -0.2380 -0.0631
 8599TIP3    H147288   5.917   6.522   4.778  0.5268 -0.7926  0.8124
 8599TIP3    H247289   5.790   6.600   4.750  1.5980  0.8720  0.4518
 8600TIP3   OH247290   5.743   0.989  16.015 -0.0912 -0.0043 -0.3288
 8600TIP3    H147291   5.818   0.965  15.961 -1.8847 -0.5384 -2.7898
 8600TIP3    H247292   5.739   0.920  16.082  2.7079  1.1624  1.2212
 8601TIP3   OH247293   3.780   3.208  12.103 -0.1631 -0.3139  0.2949
 8601TIP3    H147294   3.791   3.193  12.009 -0.4378 -0.6720  0.3184
 8601TIP3    H247295   3.690   3.241  12.112 -0.0476 -0.0215  0.4049
 8602TIP3   OH247296   6.355   4.118   0.209  0.1495  0.1998  0.1638
 8602TIP3    H147297   6.403   4.089   0.287  1.2131  1.9683  0.2230
 8602TIP3    H247298   6.409   4.188   0.172 -0.4996 -0.3717 -1.9999
 8603TIP3   OH247299   5.899   4.672   3.359  1.1474 -0.2817 -0.6902
 8603TIP3    H147300   5.938   4.651   3.444  2.6712  0.9714 -1.0238
 8603TIP3    H247301   5.824   4.613   3.352  1.9319 -1.5485  0.8049
 8604TIP3   OH247302   5.922   0.857   4.549 -0.2151 -0.0681  0.3838
 8604TIP3    H147303   6.003   0.821   4.586  0.0552 -2.0599 -1.8496
 8604TIP3    H247304   5.861   0.782   4.548 -1.1270  0.6548 -0.5337
 8605TIP3   OH247305   1.458   5.440   5.430 -0.7462  0.0934 -0.1191
 8605TIP3    H147306   1.552   5.444   5.416 -0.2288  0.6952  2.7193
 8605TIP3    H247307   1.446   5.370   5.494 -1.9469  1.2742  1.0327
 8606TIP3   OH247308   2.699   2.846   0.671 -0.3503  0.6181 -0.4594
 8606TIP3    H147309   2.657   2.830   0.756 -0.8225  0.3860 -0.7297
 8606TIP3    H247310   2.752   2.768   0.657  2.3890  2.0337  1.1325
 8607TIP3   OH247311   5.824   2.012  16.490  0.1643 -0.0894  0.7210
 8607TIP3    H147312   5.771   2.080  16.449  0.6588 -0.7940 -1.2241
 8607TIP3    H247313   5.872   2.057  16.560 -2.0374  0.7983  1.7612
 8608TIP3   OH247314   1.437   4.484   4.606 -0.0940  0.1948  0.2405
 8608TIP3    H147315   1.357   4.531   4.633 -1.0616  0.2937 -2.4736
 8608TIP3    H247316   1.405   4.402   4.568  1.4267 -1.6308  2.6300
 8609TIP3   OH247317   4.987   3.676  12.981 -0.1320  0.2162  0.6859
 8609TIP3    H147318   4.917   3.741  12.972  1.0926  1.5697  0.6960
 8609TIP3    H247319   4.982   3.624  12.901 -0.8295  0.5992  0.4698
 8610TIP3   OH247320   5.092   5.217  13.840  0.3572 -0.6911  0.2668
 8610TIP3    H147321   5.079   5.126  13.867 -0.7216 -0.3201  1.0704
 8610TIP3    H247322   5.104   5.265  13.922 -0.7173  0.1203 -0.0251
 8611TIP3   OH247323   0.248   2.318   4.095  0.5336  0.8949 -0.9946
 8611TIP3    H147324   0.262   2.290   4.005 -0.0780 -3.3483 -0.0170
 8611TIP3    H247325   0.295   2.253   4.148 -1.7395  1.2619  1.7429
 8612TIP3   OH247326   2.418   3.677  16.083 -0.1896  0.0297  0.6522
 8612TIP3    H147327   2.415   3.671  16.179 -0.3967  0.2974  0.6654
 8612TIP3    H247328   2.329   3.656  16.056  0.0165 -0.6549  0.4777
 8613TIP3   OH247329   5.735   4.566  11.945 -0.2119 -0.1694  0.0598
 8613TIP3    H147330   5.802   4.602  11.887 -1.1355  0.9373 -0.3516
 8613TIP3    H247331   5.663   4.629  11.942 -0.9269 -0.8786  1.1844
 8614TIP3   OH247332   6.263   6.684  12.082  0.0593 -0.2352  0.1928
 8614TIP3    H147333   6.359   6.687  12.078  0.0829 -0.9157  0.1462
 8614TIP3    H247334   6.235   6.735  12.006  0.4309 -2.3640 -1.4676
 8615TIP3   OH247335   6.217   0.593   2.027  0.0297  0.1466 -0.0837
 8615TIP3    H147336   6.161   0.625   2.098  0.1738  0.0948  0.0516
 8615TIP3    H247337   6.166   0.521   1.988 -0.8935  1.3838 -1.2390
 8616TIP3   OH247338   4.404   0.948   3.555 -0.2915 -0.5455 -0.5364
 8616TIP3    H147339   4.368   0.884   3.617 -3.1241  0.8898 -0.5167
 8616TIP3    H247340   4.373   0.919   3.469 -0.4999  0.0725 -0.6767
 8617TIP3   OH247341   6.753   0.865  13.439  0.1969  0.1856  0.0485
 8617TIP3    H147342   6.754   0.953  13.402 -1.3179  0.3417  0.3332
 8617TIP3    H247343   6.833   0.861  13.492  0.1370  1.4883  0.2671
 8618TIP3   OH247344   3.792   1.004  12.594  0.0411  0.4779 -0.1556
 8618TIP3    H147345   3.802   0.932  12.656 -0.1361 -0.6166 -1.3593
 8618TIP3    H247346   3.732   0.970  12.527 -0.4673  1.9349 -0.4779
 8619TIP3   OH247347   0.835   4.777   3.366 -0.0658 -0.6250 -0.6624
 8619TIP3    H147348   0.828   4.731   3.282 -1.9295 -0.4328 -0.6559
 8619TIP3    H247349   0.744   4.793   3.392  0.4799  1.8179  0.0139
 8620TIP3   OH247350   5.953   3.665   5.483  0.1811  0.3254  0.0970
 8620TIP3    H147351   5.962   3.683   5.576 -1.5885 -0.6229  0.5036
 8620TIP3    H247352   5.976   3.573   5.474 -0.5277  0.1699 -0.2242
 8621TIP3   OH247353   3.230   3.887  11.317 -0.7983 -0.3978  0.1815
 8621TIP3    H147354   3.208   3.897  11.224  1.4662  1.1720 -0.2789
 8621TIP3    H247355   3.227   3.976  11.352 -1.0291 -0.8899  1.4786
 8622TIP3   OH247356   5.375   6.496   1.598  0.3468  0.6354 -0.0719
 8622TIP3    H147357   5.438   6.562   1.568 -1.1463  1.5377 -1.4111
 8622TIP3    H247358   5.375   6.430   1.528  0.8964 -0.1529  0.6556
 8623TIP3   OH247359   0.749   1.852  12.060 -0.1042 -0.2117 -0.1197
 8623TIP3    H147360   0.719   1.787  11.996 -0.1805 -0.7545  0.4583
 8623TIP3    H247361   0.834   1.880  12.027 -0.0885 -0.5793 -0.4041
 8624TIP3   OH247362   5.330   6.469  15.043 -0.3789  0.0188 -0.2788
 8624TIP3    H147363   5.349   6.375  15.047 -2.6054 -0.5482 -1.2816
 8624TIP3    H247364   5.403   6.510  15.090  2.2354 -1.9451 -2.2858
 8625TIP3   OH247365   4.617   4.319  11.419  0.5370 -0.3609  0.7958
 8625TIP3    H147366   4.676   4.251  11.387  0.0171 -0.4777  0.0560
 8625TIP3    H247367   4.592   4.368  11.341 -1.4167 -1.1722  0.8546
 8626TIP3   OH247368   4.238   2.966   2.158  0.1567  0.9578  0.3010
 8626TIP3    H147369   4.305   3.029   2.184 -1.8445  3.2104  0.3208
 8626TIP3    H247370   4.158   2.995   2.202 -0.9201 -1.5286  0.1699
 8627TIP3   OH247371   3.688   4.702   3.801  0.0501 -0.1818 -0.3701
 8627TIP3    H147372   3.763   4.751   3.768 -0.8951  0.7715 -1.1662
 8627TIP3    H247373   3.725   4.618   3.830  1.3608  0.1257 -1.0720
 8628TIP3   OH247374   3.179   2.547  16.956 -0.0096 -0.4184  0.3210
 8628TIP3    H147375   3.177   2.601  16.877 -0.5246 -0.0553  0.5731
 8628TIP3    H247376   3.226   2.468  16.930 -0.5463 -0.4896 -0.4699
 8629TIP3   OH247377   0.238   1.490  16.466 -0.4670  0.5296  0.3651
 8629TIP3    H147378   0.272   1.436  16.394  0.5389 -0.1479  1.3221
 8629TIP3    H247379   0.152   1.453  16.485 -0.7724  0.7606 -0.5315
 8630TIP3   OH247380   3.886   2.714   0.291  0.4426 -0.4230 -0.0399
 8630TIP3    H147381   3.917   2.625   0.272  0.7230 -0.4548  0.5238
 8630TIP3    H247382   3.822   2.733   0.223  0.7244 -0.8798 -0.4413
 8631TIP3   OH247383   1.774   1.435   2.296 -0.0089  0.5487  0.1763
 8631TIP3    H147384   1.741   1.466   2.211 -0.6920  0.4926  0.4186
 8631TIP3    H247385   1.862   1.402   2.276  0.3802  1.7839 -0.2595
 8632TIP3   OH247386   3.531   6.592   2.764 -0.2048 -0.3019 -0.2824
 8632TIP3    H147387   3.542   6.612   2.857 -0.2200 -0.3269 -0.2756
 8632TIP3    H247388   3.565   6.503   2.754 -0.9424 -0.6041 -0.1503
 8633TIP3   OH247389   1.186   2.478  13.638 -0.8645 -0.2582  0.0087
 8633TIP3    H147390   1.214   2.511  13.724  2.2719  0.5502 -1.2021
 8633TIP3    H247391   1.226   2.538  13.575 -1.4207 -1.9774 -2.0749
 8634TIP3   OH247392   1.131   0.179  13.339 -0.0342  0.3066 -0.1482
 8634TIP3    H147393   1.201   0.118  13.315 -0.5909 -0.2468 -0.4155
 8634TIP3    H247394   1.174   0.248  13.389  1.1879  1.4393 -2.5868
 8635TIP3   OH247395   4.410   1.730   0.618 -0.5168 -0.0960 -0.5307
 8635TIP3    H147396   4.419   1.694   0.530  1.9022 -1.1710  0.0760
 8635TIP3    H247397   4.315   1.733   0.633 -0.9465 -3.1901 -1.8581
 8636TIP3   OH247398   3.779   6.509   3.651  0.1832  0.4871  0.0794
 8636TIP3    H147399   3.711   6.448   3.623  0.0250 -0.1217  1.6766
 8636TIP3    H247400   3.831   6.459   3.714 -0.4635  2.2073  2.0958
 8637TIP3   OH247401   2.890   2.510  11.815  0.2021 -0.0536  0.0228
 8637TIP3    H147402   2.874   2.569  11.741  0.5727 -0.8114 -0.6664
 8637TIP3    H247403   2.958   2.554  11.866 -1.0841  1.2017  0.7607
 8638TIP3   OH247404   6.496   2.616  11.197 -0.2035  0.6155  0.9139
 8638TIP3    H147405   6.499   2.521  11.206  0.4239  0.6937  1.6845
 8638TIP3    H247406   6.577   2.638  11.150 -0.2589  0.7823  0.8952
 8639TIP3   OH247407   1.817   2.905   0.749 -0.3323  0.4314 -0.3241
 8639TIP3    H147408   1.877   2.921   0.677 -2.0647 -0.8513 -2.1612
 8639TIP3    H247409   1.759   2.981   0.749 -1.2338 -0.2318 -1.2880
 8640TIP3   OH247410   6.037   1.353   4.683  0.1945 -0.3199 -0.2838
 8640TIP3    H147411   5.966   1.353   4.747 -0.2855  1.8286 -0.7278
 8640TIP3    H247412   6.002   1.305   4.608 -1.4383  1.9130 -1.0657
 8641TIP3   OH247413   4.230   5.601   6.415  0.2217 -0.5502 -0.2846
 8641TIP3    H147414   4.317   5.614   6.379  1.1875  0.3634  2.1397
 8641TIP3    H247415   4.218   5.674   6.476 -0.8817 -2.3580  1.8502
 8642TIP3   OH247416   1.616   4.192   3.755 -0.0542  0.3197  0.1513
 8642TIP3    H147417   1.564   4.261   3.796  1.0000 -0.1435  2.4678
 8642TIP3    H247418   1.707   4.218   3.771  0.4265 -0.1030 -1.6539
 8643TIP3   OH247419   2.181   1.923  12.131  0.9226 -0.3018  0.2955
 8643TIP3    H147420   2.156   2.015  12.138 -0.8368 -0.8137  1.2219
 8643TIP3    H247421   2.213   1.899  12.218  4.2033  0.1234 -0.6432
 8644TIP3   OH247422   2.529   0.138  15.275 -0.3042 -0.4656  0.3890
 8644TIP3    H147423   2.591   0.143  15.348  0.8834  0.0085 -0.6225
 8644TIP3    H247424   2.584   0.128  15.197 -1.2551  2.9051 -0.9137
 8645TIP3   OH247425   4.461   1.536  17.083  0.0860 -0.2534 -0.1456
 8645TIP3    H147426   4.417   1.619  17.065  0.3543 -0.1551 -0.3630
 8645TIP3    H247427   4.408   1.494  17.150  0.6535  0.6601  0.9013
 8646TIP3   OH247428   2.284   0.976   0.697 -0.5609 -0.2833  0.1159
 8646TIP3    H147429   2.208   0.918   0.686 -1.1964  0.5866 -0.1880
 8646TIP3    H247430   2.246   1.060   0.721  0.2568  0.3579 -0.7663
 8647TIP3   OH247431   6.824   1.250  15.623 -0.1599 -0.5725 -0.0254
 8647TIP3    H147432   6.847   1.168  15.579 -0.8751 -0.1182 -1.2916
 8647TIP3    H247433   6.859   1.319  15.566  0.4384  0.0162  1.0219
 8648TIP3   OH247434   5.191   2.841   5.045  0.9948  0.2589  0.7997
 8648TIP3    H147435   5.251   2.784   5.094  1.9913  0.2309 -0.4238
 8648TIP3    H247436   5.188   2.922   5.097  1.0918 -0.1920  1.5276
 8649TIP3   OH247437   2.025   0.317   1.218 -0.0868  0.0545  0.1356
 8649TIP3    H147438   2.026   0.381   1.146  2.9050  1.1106  0.9570
 8649TIP3    H247439   1.988   0.366   1.292  1.1815  0.5500  0.4741
 8650TIP3   OH247440   6.651   4.267  13.748  0.0294 -0.0572 -0.4252
 8650TIP3    H147441   6.624   4.352  13.782  1.3170 -0.1503  0.9726
 8650TIP3    H247442   6.710   4.287  13.676  0.5145  0.2614  0.0499
 8651TIP3   OH247443   1.938   4.193   1.365 -0.0151 -0.3230  0.2635
 8651TIP3    H147444   1.891   4.114   1.339 -2.5899  1.6970 -1.8889
 8651TIP3    H247445   1.874   4.244   1.415  0.5396  1.5792 -0.8371
 8652TIP3   OH247446   0.282   1.793  17.158  0.1482 -0.3172 -0.5133
 8652TIP3    H147447   0.285   1.827  17.069 -0.0299 -0.4154 -0.5579
 8652TIP3    H247448   0.356   1.732  17.162  0.6853  0.3351 -0.3222
 8653TIP3   OH247449   0.625   6.480   3.791 -0.6665  0.3924  0.2570
 8653TIP3    H147450   0.670   6.541   3.732  0.6183 -0.7024  0.0602
 8653TIP3    H247451   0.545   6.456   3.744  0.1281 -0.1356 -0.8673
 8654TIP3   OH247452   1.588   1.753   0.168  0.6284  0.3085 -0.4447
 8654TIP3    H147453   1.550   1.834   0.135  0.9373  1.3231  1.5835
 8654TIP3    H247454   1.513   1.696   0.185  0.2947  0.7843 -0.3088
 8655TIP3   OH247455   2.074   5.982  16.957 -0.3133  0.5094  0.2472
 8655TIP3    H147456   2.110   5.893  16.960 -0.6907  0.3699  1.0114
 8655TIP3    H247457   1.986   5.971  16.920  0.4024  0.8553 -1.6596
 8656TIP3   OH247458   5.644   3.983   5.277 -0.0419  0.1543  0.3845
 8656TIP3    H147459   5.559   3.942   5.261  0.0306 -0.4262  1.3577
 8656TIP3    H247460   5.701   3.911   5.306  1.0855  0.3465 -1.2227
 8657TIP3   OH247461   0.439   1.927   0.521 -0.4490  0.2336  0.0510
 8657TIP3    H147462   0.416   1.857   0.581  0.0871 -0.4581 -0.5305
 8657TIP3    H247463   0.465   1.882   0.441  0.9280  1.0478  0.0155
 8658TIP3   OH247464   4.756   1.720   5.113 -0.6201 -0.4963  0.1724
 8658TIP3    H147465   4.769   1.627   5.133 -0.6233 -0.1409  1.9829
 8658TIP3    H247466   4.843   1.758   5.118 -0.4951 -0.5125 -1.3854
 8659TIP3   OH247467   2.213   1.084  10.961 -0.1172  0.4342 -0.3458
 8659TIP3    H147468   2.193   0.991  10.951 -1.2543  0.7949 -1.7346
 8659TIP3    H247469   2.308   1.087  10.970  0.0464 -0.7924 -1.3984
 8660TIP3   OH247470   5.549   5.966  14.282  0.0837  0.7504 -0.2960
 8660TIP3    H147471   5.588   6.013  14.208 -0.7830 -0.1941 -1.3811
 8660TIP3    H247472   5.468   6.013  14.300 -0.1502  0.4431 -0.5412
 8661TIP3   OH247473   2.572   3.056  13.111  0.1647 -0.5228 -0.3243
 8661TIP3    H147474   2.491   3.067  13.062  0.5098  0.2806 -0.7312
 8661TIP3    H247475   2.622   2.992  13.060  0.9044  0.9691 -1.5631
 8662TIP3   OH247476   5.244   3.754   2.539 -0.6029  0.5098  0.5011
 8662TIP3    H147477   5.260   3.661   2.552 -0.8516  0.4143  0.1140
 8662TIP3    H247478   5.149   3.764   2.544 -0.4956  0.9765  2.1055
 8663TIP3   OH247479   6.628   0.089   5.050 -0.5609  0.4870 -0.1257
 8663TIP3    H147480   6.557   0.038   5.089 -0.8684  0.0349 -1.2428
 8663TIP3    H247481   6.706   0.062   5.099 -1.0592  0.5615  0.7274
 8664TIP3   OH247482   1.578   1.535   3.757 -0.1788  0.2677  0.0481
 8664TIP3    H147483   1.500   1.508   3.807  1.4267 -2.0886  1.5171
 8664TIP3    H247484   1.620   1.601   3.812 -0.2960  0.3485  0.0411
 8665TIP3   OH247485   3.454   0.451   5.588  0.0014 -0.2606 -0.0449
 8665TIP3    H147486   3.363   0.424   5.591 -0.6113  1.6300  0.0110
 8665TIP3    H247487   3.466   0.485   5.499  1.2084 -2.1265 -0.6675
 8666TIP3   OH247488   5.490   5.066  14.891 -0.4378 -0.9673  0.2105
 8666TIP3    H147489   5.400   5.038  14.876 -0.0978 -1.9832 -0.0180
 8666TIP3    H247490   5.525   5.002  14.953  0.0737 -0.4564  0.4662
 8667TIP3   OH247491   2.319   6.007  16.337 -0.5008  0.2208 -0.3033
 8667TIP3    H147492   2.254   5.948  16.376 -0.3096  0.3872  0.2822
 8667TIP3    H247493   2.403   5.975  16.370 -0.4569  1.3511  0.7751
 8668TIP3   OH247494   6.018   5.763  13.470 -0.3648 -0.3417 -0.1018
 8668TIP3    H147495   5.926   5.787  13.458 -0.9619 -2.1305  0.5345
 8668TIP3    H247496   6.021   5.728  13.559  0.4859 -2.1232 -0.7883
 8669TIP3   OH247497   3.440   2.850   5.762  0.3511  0.1986  0.2873
 8669TIP3    H147498   3.496   2.885   5.692  0.1424 -0.4704 -0.2282
 8669TIP3    H247499   3.423   2.760   5.736  0.4501 -0.1345  1.3258
 8670TIP3   OH247500   5.380   1.971  11.824 -0.0312 -0.2747 -0.8298
 8670TIP3    H147501   5.466   1.979  11.783  0.1027  0.8467 -0.3645
 8670TIP3    H247502   5.376   2.045  11.885 -1.1422 -0.5827 -0.5164
 8671TIP3   OH247503   1.950   2.501  16.925  0.2343  0.0107 -0.0716
 8671TIP3    H147504   1.938   2.520  16.832 -0.2539 -1.7172 -0.3817
 8671TIP3    H247505   2.040   2.471  16.932  1.0136  2.2675  0.4264
 8672TIP3   OH247506   5.365   2.097   2.937  0.3135 -0.1218 -0.8785
 8672TIP3    H147507   5.387   2.158   3.007  1.5505  0.9641 -2.1342
 8672TIP3    H247508   5.326   2.152   2.869 -0.7222 -1.1234 -1.1217
 8673TIP3   OH247509   4.676   2.138   4.209  0.4396  0.3859 -0.5106
 8673TIP3    H147510   4.631   2.189   4.277 -1.1659 -0.4831 -0.8723
 8673TIP3    H247511   4.640   2.050   4.219  2.7829 -0.6006 -0.2250
 8674TIP3   OH247512   2.343   1.216  13.550 -0.0361  0.8226  0.6761
 8674TIP3    H147513   2.274   1.225  13.616 -0.3782 -0.1248  0.4711
 8674TIP3    H247514   2.425   1.215  13.600 -0.2381  0.9927  1.0088
 8675TIP3   OH247515   5.491   1.629   4.841  0.0392 -0.7613  0.4883
 8675TIP3    H147516   5.438   1.680   4.903 -0.8420 -1.5770  0.4241
 8675TIP3    H247517   5.533   1.695   4.786 -1.2901 -0.0980  0.2285
 8676TIP3   OH247518   0.354   2.704  11.638 -0.3014 -0.0538 -0.1535
 8676TIP3    H147519   0.284   2.648  11.604  1.7399 -1.2820 -2.6798
 8676TIP3    H247520   0.378   2.666  11.722  1.1932 -3.3083 -1.8868
 8677TIP3   OH247521   1.973   0.708  12.055 -0.7165  0.2203 -0.0613
 8677TIP3    H147522   1.987   0.620  12.020 -0.5160  0.8095 -1.5213
 8677TIP3    H247523   1.983   0.698  12.150 -0.5870 -1.2998 -0.2105
 8678TIP3   OH247524   2.035   3.292  15.684 -0.5866  0.3054 -0.3096
 8678TIP3    H147525   2.047   3.360  15.618 -2.3811 -1.2384 -2.3541
 8678TIP3    H247526   2.080   3.326  15.761  1.4121  2.3085 -2.2091
 8679TIP3   OH247527   1.056   2.204   1.133  0.1608 -0.8218 -0.1697
 8679TIP3    H147528   1.060   2.284   1.184 -1.8147 -1.4419  1.0807
 8679TIP3    H247529   1.060   2.233   1.042 -0.5578  0.7077  0.2587
 8680TIP3   OH247530   5.912   0.483  15.933  0.2507  0.1276 -0.2394
 8680TIP3    H147531   5.916   0.549  15.864 -0.8697  1.6116  1.0389
 8680TIP3    H247532   5.992   0.498  15.985  1.9829 -2.0980 -2.0726
 8681TIP3   OH247533   6.263   4.888  13.564 -0.3136  0.3421 -0.2712
 8681TIP3    H147534   6.226   4.856  13.482 -0.1252 -1.4978  0.3161
 8681TIP3    H247535   6.192   4.940  13.604 -0.9666 -0.0983 -0.8354
 8682TIP3   OH247536   4.515   4.216   1.329 -0.2573 -0.0519 -0.2239
 8682TIP3    H147537   4.581   4.156   1.294  1.7473  1.6591  0.3822
 8682TIP3    H247538   4.433   4.167   1.324  1.2358 -2.8259  0.2431
 8683TIP3   OH247539   5.849   3.348   0.018  0.0772 -0.2629  0.3063
 8683TIP3    H147540   5.935   3.387   0.030  0.2132 -0.5469  0.2770
 8683TIP3    H247541   5.815   3.335   0.106 -0.0977  0.2045  0.3078
 8684TIP3   OH247542   1.155   1.895   6.593  0.2675 -0.9511  0.2389
 8684TIP3    H147543   1.133   1.987   6.576 -1.1798 -0.7392  2.8289
 8684TIP3    H247544   1.078   1.846   6.562  0.2475 -1.1125  0.5408
 8685TIP3   OH247545   6.157   3.022   3.252 -1.0348 -0.5161 -0.2003
 8685TIP3    H147546   6.235   3.077   3.245 -0.9222 -0.4142  1.4539
 8685TIP3    H247547   6.115   3.029   3.166 -0.4270  1.2426 -0.3890
 8686TIP3   OH247548   1.822   6.563  15.914  0.2306  0.6699 -0.1714
 8686TIP3    H147549   1.780   6.590  15.833  0.3014  1.1488 -0.0556
 8686TIP3    H247550   1.879   6.636  15.937  0.8598  0.1770 -0.1384
 8687TIP3   OH247551   1.511   6.478  13.696  0.0734  0.4819  0.1646
 8687TIP3    H147552   1.440   6.416  13.711 -1.0618  1.4595 -0.9404
 8687TIP3    H247553   1.580   6.451  13.756 -0.6392 -1.4270  0.1713
 8688TIP3   OH247554   1.042   5.056   1.351  0.6048  0.6243 -0.4643
 8688TIP3    H147555   1.030   5.140   1.394 -0.5946  1.4679 -2.2882
 8688TIP3    H247556   1.088   5.077   1.270 -0.9193 -0.2079 -1.6100
 8689TIP3   OH247557   5.614   2.875  15.202 -0.4004 -0.2736 -0.1018
 8689TIP3    H147558   5.707   2.883  15.223 -0.7200 -0.5698  1.5237
 8689TIP3    H247559   5.568   2.889  15.285 -1.9699  2.2891 -1.2644
 8690TIP3   OH247560   5.646   5.986  13.220 -0.2792  0.7248  0.2191
 8690TIP3    H147561   5.669   5.923  13.289  0.8983  1.0212  0.1227
 8690TIP3    H247562   5.566   5.952  13.182  1.0130 -1.4914 -0.7200
 8691TIP3   OH247563   6.097   3.124  16.631  0.1746 -0.2868  0.1735
 8691TIP3    H147564   6.160   3.062  16.594  0.7820 -0.2290  1.0936
 8691TIP3    H247565   6.138   3.210  16.618  1.5726 -0.4028  3.1033
 8692TIP3   OH247566   2.623   3.683  16.309 -0.5298  1.1688  0.3485
 8692TIP3    H147567   2.611   3.620  16.237 -2.5675 -1.3972  2.7067
 8692TIP3    H247568   2.710   3.662  16.344 -0.7874  0.2884  0.4970
 8693TIP3   OH247569   5.025   4.009   0.653 -0.0427  0.5123  0.4047
 8693TIP3    H147570   4.936   3.979   0.669  0.1707 -0.5653 -0.3408
 8693TIP3    H247571   5.015   4.084   0.594 -0.4638  0.6447  0.6386
 8694TIP3   OH247572   6.678   1.779   5.428 -0.4016 -0.2204  0.3975
 8694TIP3    H147573   6.612   1.729   5.380  0.7732 -0.3704 -1.1325
 8694TIP3    H247574   6.755   1.779   5.371  1.5766 -1.6032  2.8787
 8695TIP3   OH247575   5.583   1.194  15.896 -0.0015  0.3448 -0.4475
 8695TIP3    H147576   5.647   1.132  15.933 -0.8107 -1.6359 -2.1332
 8695TIP3    H247577   5.560   1.252  15.968  0.4352 -1.6709  1.4034
 8696TIP3   OH247578   3.926   0.537   1.029  0.6830 -0.4532 -0.2825
 8696TIP3    H147579   3.860   0.561   1.095  1.3828  0.3204  0.1504
 8696TIP3    H247580   3.964   0.456   1.062  1.3047  0.1390  0.4808
 8697TIP3   OH247581   2.644   3.668   0.312 -0.3047  0.7188  0.2449
 8697TIP3    H147582   2.702   3.640   0.242 -0.2138  0.0276  0.5896
 8697TIP3    H247583   2.595   3.589   0.335  0.6238  0.5847  1.8781
 8698TIP3   OH247584   5.990   1.662  13.906 -0.0694  0.8279 -0.3321
 8698TIP3    H147585   5.912   1.651  13.852  0.2655  2.8490 -1.3142
 8698TIP3    H247586   5.960   1.709  13.983 -0.2513 -0.6773  0.5606
 8699TIP3   OH247587   5.642   2.381   2.006  0.5352  0.2246 -0.5240
 8699TIP3    H147588   5.569   2.431   1.969  0.0428  0.1109  0.2628
 8699TIP3    H247589   5.623   2.378   2.100  0.6095 -1.3545 -0.5361
 8700TIP3   OH247590   2.865   5.907  12.794 -0.1133  0.2877  0.0816
 8700TIP3    H147591   2.847   5.813  12.802 -0.0930  0.4175  2.5740
 8700TIP3    H247592   2.780   5.947  12.778 -0.9115  0.1299  3.1924
 8701TIP3   OH247593   2.363   2.276   1.629 -0.3809  0.3134 -0.4141
 8701TIP3    H147594   2.292   2.294   1.567  0.4376 -0.0332 -1.4711
 8701TIP3    H247595   2.433   2.336   1.605  0.1308 -0.1702 -0.1601
 8702TIP3   OH247596   6.812   5.562  16.471  0.4272  0.2195  0.0195
 8702TIP3    H147597   6.738   5.604  16.426 -1.3386 -0.9605  1.6868
 8702TIP3    H247598   6.860   5.635  16.511 -1.5256  0.8701  1.3069
 8703TIP3   OH247599   1.106   1.705   4.884 -0.0006  0.2914 -0.0536
 8703TIP3    H147600   1.166   1.631   4.875 -0.4668 -0.3273  1.7260
 8703TIP3    H247601   1.164   1.780   4.900  0.3801 -0.0033 -0.0334
 8704TIP3   OH247602   0.739   3.984  16.982 -0.9209  0.2269 -0.2622
 8704TIP3    H147603   0.700   4.020  16.902 -2.1444  0.5460  0.4558
 8704TIP3    H247604   0.691   4.025  17.053  0.9735  0.8865  0.6989
 8705TIP3   OH247605   0.573   3.534  12.122  0.3898  0.0956 -0.1132
 8705TIP3    H147606   0.551   3.618  12.082  0.7805  0.2825  0.0586
 8705TIP3    H247607   0.640   3.497  12.064  1.0982  0.4528  0.4571
 8706TIP3   OH247608   6.415   3.008   2.944 -0.3166 -0.6427 -0.7314
 8706TIP3    H147609   6.436   2.978   3.033  0.5802 -0.9731 -1.0393
 8706TIP3    H247610   6.458   3.094   2.937  0.9100 -1.2755 -1.3316
 8707TIP3   OH247611   1.217   3.141   5.796 -0.1796 -0.7982  0.0473
 8707TIP3    H147612   1.227   3.225   5.841  0.4496 -0.0140 -1.4635
 8707TIP3    H247613   1.298   3.094   5.816  0.6362  0.0306 -1.1669
 8708TIP3   OH247614   0.082   0.440  14.505  0.5077  0.2462  0.1114
 8708TIP3    H147615   0.124   0.358  14.481  0.7613  0.7260 -1.1382
 8708TIP3    H247616   0.024   0.460  14.432  2.7413  2.7229 -1.1571
 8709TIP3   OH247617   3.965   4.885  15.128 -0.2719  0.1527  0.1743
 8709TIP3    H147618   3.955   4.937  15.207 -0.6010 -0.6713  0.6828
 8709TIP3    H247619   3.875   4.871  15.096 -0.1923 -0.1294  0.0639
 8710TIP3   OH247620   0.293   3.223  16.147 -0.2790 -0.5993  0.6249
 8710TIP3    H147621   0.244   3.286  16.200 -0.1827 -0.7783  0.9302
 8710TIP3    H247622   0.348   3.276  16.090  0.3272 -0.4093  1.3768
 8711TIP3   OH247623   3.408   0.316   4.009 -0.8351 -0.4332  0.5287
 8711TIP3    H147624   3.339   0.312   4.076 -1.0592 -1.5807  0.2455
 8711TIP3    H247625   3.486   0.344   4.057 -1.0561 -0.9856  1.2226
 8712TIP3   OH247626   5.475   3.851   0.637 -0.1444 -0.7611  0.4152
 8712TIP3    H147627   5.426   3.820   0.560  1.4492  0.5058 -1.1838
 8712TIP3    H247628   5.527   3.924   0.605 -0.2844  0.5966  3.0129
 8713TIP3   OH247629   2.564   1.490  11.109  0.2396  0.4316 -0.1696
 8713TIP3    H147630   2.641   1.492  11.052  0.8337 -1.5459  0.4724
 8713TIP3    H247631   2.551   1.397  11.127 -1.5668  0.8222  0.7568
 8714TIP3   OH247632   4.290   0.923  13.062 -0.2104  0.2617  0.5139
 8714TIP3    H147633   4.208   0.879  13.039  1.3779 -2.1693 -0.9284
 8714TIP3    H247634   4.270   0.968  13.144 -2.8590 -0.5775  0.4426
 8715TIP3   OH247635   6.842   5.560  11.583 -0.2944  0.5587  0.2962
 8715TIP3    H147636   6.782   5.488  11.601 -1.0081  0.7332 -1.2143
 8715TIP3    H247637   6.841   5.613  11.662 -1.0994 -0.1636  0.7866
 8716TIP3   OH247638   4.875   1.485   1.371 -0.1660  0.6249 -0.4521
 8716TIP3    H147639   4.950   1.437   1.336  0.0106 -0.5114  1.4101
 8716TIP3    H247640   4.799   1.442   1.333  0.0151 -0.7741  0.7221
 8717TIP3   OH247641   0.066   0.866  12.830 -0.4383 -0.1881 -0.0184
 8717TIP3    H147642   0.022   0.823  12.903 -0.7444  0.4051  0.1556
 8717TIP3    H247643   0.159   0.860  12.851 -0.4921 -0.5481  0.1196
 8718TIP3   OH247644   5.189   4.802   0.166  0.2706  0.1861 -0.8472
 8718TIP3    H147645   5.246   4.842   0.100 -0.4775  0.6029 -1.2503
 8718TIP3    H247646   5.249   4.750   0.220  1.1983  1.4818 -0.5810
 8719TIP3   OH247647   4.268   2.992  16.793  0.2470 -0.2660  0.6164
 8719TIP3    H147648   4.345   3.009  16.739 -0.0610 -0.0593  0.2421
 8719TIP3    H247649   4.303   2.982  16.882  0.6518  0.3126  0.5248
 8720TIP3   OH247650   5.872   5.811   3.907 -0.2411 -0.1258 -0.3523
 8720TIP3    H147651   5.934   5.820   3.979 -0.7026  0.4505 -0.0179
 8720TIP3    H247652   5.805   5.751   3.941 -1.9630  2.2920  0.7855
 8721TIP3   OH247653   5.655   0.061   1.732  0.1579 -0.4731 -0.1509
 8721TIP3    H147654   5.706   0.083   1.810  0.7341 -1.6549 -0.1751
 8721TIP3    H247655   5.594  -0.006   1.761  0.6388 -1.2060 -0.7774
 8722TIP3   OH247656   3.269   5.726   0.621  0.5746  0.0025 -0.4737
 8722TIP3    H147657   3.213   5.716   0.697  2.4109  1.8776  1.2224
 8722TIP3    H247658   3.270   5.820   0.603  0.6217 -0.3341 -2.5102
 8723TIP3   OH247659   0.799   4.176   1.993  0.8174  0.3963  0.0777
 8723TIP3    H147660   0.735   4.244   1.970  0.4918  0.2405  0.5271
 8723TIP3    H247661   0.746   4.098   2.010  1.0681  0.4539  1.1648
 8724TIP3   OH247662   5.475   5.716   5.199 -0.0836  0.3861  0.0555
 8724TIP3    H147663   5.446   5.627   5.217  2.3147 -0.5453 -0.3356
 8724TIP3    H247664   5.510   5.747   5.282  0.1291  0.5385 -0.0913
 8725TIP3   OH247665   1.293   1.366  11.791 -0.1328 -0.0327  0.1047
 8725TIP3    H147666   1.297   1.277  11.825 -0.7777 -0.1454 -0.0991
 8725TIP3    H247667   1.251   1.417  11.860  2.2427  0.6029  1.1667
 8726TIP3   OH247668   3.131   4.968  17.021  0.2217  0.1513 -0.3637
 8726TIP3    H147669   3.196   4.963  16.950  1.2792  1.9443  0.4130
 8726TIP3    H247670   3.099   5.058  17.018 -1.7558 -0.5001 -0.2620
 8727TIP3   OH247671   6.494   2.204   3.383  0.3862 -0.1261 -0.4280
 8727TIP3    H147672   6.554   2.144   3.428 -1.1467 -0.8808  0.7434
 8727TIP3    H247673   6.416   2.205   3.439 -1.1319 -0.0796 -2.4231
 8728TIP3   OH247674   0.442   3.440  13.536  0.3145 -0.0108 -0.7321
 8728TIP3    H147675   0.379   3.511  13.525 -0.1862 -0.4102 -0.5084
 8728TIP3    H247676   0.516   3.480  13.582  0.0494  0.3680 -0.6281
 8729TIP3   OH247677   6.378   5.047   2.231  0.2464  0.8691 -0.2196
 8729TIP3    H147678   6.363   5.064   2.324  1.0057 -0.3646  0.1535
 8729TIP3    H247679   6.357   4.954   2.220 -1.1969  1.3091 -1.5950
 8730TIP3   OH247680   3.885   3.892   5.766  0.5045  0.2426  0.6218
 8730TIP3    H147681   3.876   3.967   5.706  1.4431  0.0018  0.1571
 8730TIP3    H247682   3.960   3.844   5.732 -0.8718 -1.6568  0.1309
 8731TIP3   OH247683   2.765   1.488   5.767 -0.2704  0.4449  0.3769
 8731TIP3    H147684   2.672   1.468   5.756 -0.6329  2.3935 -0.7100
 8731TIP3    H247685   2.796   1.425   5.831 -2.1313 -0.8334  0.1064
 8732TIP3   OH247686   1.907   2.670  14.972  0.6701  0.5276 -0.4218
 8732TIP3    H147687   1.833   2.665  15.034 -1.5906 -1.8080 -3.0193
 8732TIP3    H247688   1.969   2.604  15.003  1.6760  2.3101  1.6221
 8733TIP3   OH247689   6.629   4.229  12.596 -0.4189 -0.8896 -0.3654
 8733TIP3    H147690   6.550   4.224  12.650 -0.0395 -2.1317  0.1076
 8733TIP3    H247691   6.614   4.167  12.525  0.2380 -1.3301 -0.1262
 8734TIP3   OH247692   1.684   2.325   1.423  0.5748  0.0201  0.5025
 8734TIP3    H147693   1.679   2.345   1.516 -0.6384  0.7615  0.2977
 8734TIP3    H247694   1.778   2.328   1.403  0.7035  2.8776  1.0815
 8735TIP3   OH247695   6.137   5.026   1.741 -0.5429  0.1199  0.0895
 8735TIP3    H147696   6.173   4.963   1.804 -1.6096  0.8904  1.5170
 8735TIP3    H247697   6.190   5.105   1.753 -0.2654  0.0394 -0.5422
 8736TIP3   OH247698   3.348   3.236   1.572  0.2041 -0.0976 -0.2755
 8736TIP3    H147699   3.394   3.184   1.506 -3.0988 -1.9185 -1.4031
 8736TIP3    H247700   3.355   3.184   1.652 -1.4943 -1.4402 -0.9450
 8737TIP3   OH247701   4.408   2.986   4.598 -0.5949  0.1837 -0.9158
 8737TIP3    H147702   4.389   3.002   4.506 -3.1059  0.0401 -0.5075
 8737TIP3    H247703   4.434   3.072   4.632 -0.2188  0.3561 -1.6231
 8738TIP3   OH247704   5.990   3.756  13.900  0.1176  0.1872  0.0036
 8738TIP3    H147705   5.986   3.844  13.939 -4.0837  0.6390 -0.9503
 8738TIP3    H247706   5.997   3.697  13.975  1.3034  1.2452  0.7688
 8739TIP3   OH247707   6.406   5.984   2.994 -0.2671  0.0914  0.0597
 8739TIP3    H147708   6.319   6.022   2.988 -0.0772  0.4575 -0.4924
 8739TIP3    H247709   6.418   5.938   2.911 -0.3190 -0.8080  0.5402
 8740TIP3   OH247710   2.208   6.549   5.997  0.6692  0.6069 -0.2344
 8740TIP3    H147711   2.177   6.590   6.078  0.2246 -2.0182  1.0347
 8740TIP3    H247712   2.138   6.489   5.973  2.2559 -1.1975 -0.5827
 8741TIP3   OH247713   6.591   5.947  11.345  0.1318  0.1910  0.2291
 8741TIP3    H147714   6.621   6.036  11.363  0.5943 -0.1193  1.0718
 8741TIP3    H247715   6.589   5.905  11.431  0.5086 -0.7903 -0.2340
 8742TIP3   OH247716   3.824   0.612   2.721 -0.3706 -0.6465 -0.8470
 8742TIP3    H147717   3.735   0.636   2.748 -0.0894 -1.1987  0.6648
 8742TIP3    H247718   3.870   0.695   2.713 -0.6535 -0.4289 -0.2684
 8743TIP3   OH247719   5.406   0.922   1.381 -0.0812 -0.6050 -0.0142
 8743TIP3    H147720   5.490   0.937   1.339 -0.3054  3.1452  0.5100
 8743TIP3    H247721   5.342   0.934   1.311 -0.2779  1.2671  0.4330
 8744TIP3   OH247722   2.441   3.700   4.419  0.4087 -0.0349 -0.1836
 8744TIP3    H147723   2.484   3.752   4.351  1.3515 -0.7220 -0.1316
 8744TIP3    H247724   2.371   3.654   4.373  0.3458  0.3369 -0.4687
 8745TIP3   OH247725   4.677   3.377   5.621 -0.4788 -0.5936  0.0886
 8745TIP3    H147726   4.587   3.370   5.588 -1.3095 -0.8603  2.2307
 8745TIP3    H247727   4.685   3.467   5.652 -0.4476 -0.9038  1.0192
 8746TIP3   OH247728   1.638   5.168   1.723 -0.0810 -0.1635 -0.8117
 8746TIP3    H147729   1.554   5.196   1.687  0.7549  2.9451 -0.5780
 8746TIP3    H247730   1.682   5.125   1.650 -1.5902 -1.2959 -1.1085
 8747TIP3   OH247731   0.116   0.545   2.841  0.2006  0.0504  0.1971
 8747TIP3    H147732   0.097   0.559   2.933  1.0731  0.8254  0.2819
 8747TIP3    H247733   0.173   0.618   2.817  1.8000 -1.3178 -0.3831
 8748TIP3   OH247734   4.592   1.207  12.017 -0.1888 -0.0779  0.6765
 8748TIP3    H147735   4.563   1.218  12.108 -2.9045  1.3838 -0.2608
 8748TIP3    H247736   4.528   1.147  11.979  2.0036 -2.2008  0.1106
 8749TIP3   OH247737   1.882   1.703  14.392  0.6417 -0.0825  0.1586
 8749TIP3    H147738   1.843   1.747  14.467 -0.4649 -0.1537 -0.3477
 8749TIP3    H247739   1.865   1.610  14.407 -0.6122 -0.0196 -0.7061
 8750TIP3   OH247740   0.050   6.715   1.527 -0.5390  0.5319 -0.1890
 8750TIP3    H147741   0.104   6.674   1.459 -1.5720  0.7730 -1.1914
 8750TIP3    H247742  -0.031   6.738   1.482 -1.2832  0.6342  1.1589
 8751TIP3   OH247743   2.487   5.230   0.075  0.2769  0.2195  0.5319
 8751TIP3    H147744   2.429   5.155   0.091 -0.2219 -0.1878 -2.5326
 8751TIP3    H247745   2.546   5.231   0.150 -0.2125 -2.7504  1.0847
 8752TIP3   OH247746   4.042   3.484   2.524 -0.0378 -0.4156 -0.9416
 8752TIP3    H147747   4.039   3.552   2.456 -0.1964  1.2463  0.6408
 8752TIP3    H247748   4.095   3.415   2.487  2.0371  1.5290 -1.8455
 8753TIP3   OH247749   0.625   2.601   2.317 -0.6694  0.5898 -0.1978
 8753TIP3    H147750   0.630   2.514   2.278  2.6555 -0.4970  2.2145
 8753TIP3    H247751   0.657   2.660   2.249 -0.7888 -0.3823 -1.1197
 8754TIP3   OH247752   2.016   1.391  17.005 -0.1248  0.2190 -0.0696
 8754TIP3    H147753   2.083   1.456  16.982 -0.9239  0.4260 -1.9633
 8754TIP3    H247754   1.994   1.412  17.096  1.2199  1.1598  0.0790
 8755TIP3   OH247755   6.283   5.011  12.499 -0.3925 -0.0896 -0.8356
 8755TIP3    H147756   6.303   5.025  12.591  0.3317  0.4498 -1.0662
 8755TIP3    H247757   6.205   4.955  12.499  0.3994 -1.2442  0.1101
 8756TIP3   OH247758   0.407   3.615   4.420 -0.1425 -0.1129  0.2428
 8756TIP3    H147759   0.496   3.644   4.439  0.3237 -2.1368  1.4645
 8756TIP3    H247760   0.404   3.606   4.325  0.4033  1.5876  0.0454
 8757TIP3   OH247761   4.696   5.458  15.255  0.2771 -0.5113  0.1185
 8757TIP3    H147762   4.670   5.397  15.187  1.0296 -0.6265 -0.0796
 8757TIP3    H247763   4.615   5.499  15.283  0.0045 -0.0496 -1.2487
 8758TIP3   OH247764   2.745   0.694  14.411 -0.0099  0.1620  0.4560
 8758TIP3    H147765   2.711   0.637  14.342  0.5578  0.4827 -0.1073
 8758TIP3    H247766   2.811   0.641  14.455  0.4116  0.3264  0.0294
 8759TIP3   OH247767   1.122   1.186   3.972 -0.0249  0.3245  0.8685
 8759TIP3    H147768   1.097   1.213   3.884  0.1952 -0.4823  0.5527
 8759TIP3    H247769   1.217   1.200   3.976  0.2553 -1.2857  0.3655
 8760TIP3   OH247770   1.869   1.420   0.905  0.1021 -0.1698 -0.3450
 8760TIP3    H147771   1.928   1.345   0.895  0.5285  0.2105 -0.7010
 8760TIP3    H247772   1.783   1.381   0.920  0.1293 -0.7485 -1.5862
 8761TIP3   OH247773   2.708   1.169  11.841 -0.1006  0.3365  0.8179
 8761TIP3    H147774   2.651   1.150  11.915  0.4943  0.4992  1.3298
 8761TIP3    H247775   2.793   1.190  11.881  0.2596  0.3131  0.0875
 8762TIP3   OH247776   2.786   6.356   6.847  0.2702 -0.3859  0.1876
 8762TIP3    H147777   2.692   6.366   6.858  0.4681 -0.6229  2.6758
 8762TIP3    H247778   2.796   6.300   6.770 -1.6284 -0.9699  0.3289
 8763TIP3   OH247779   4.065   0.118   0.834 -0.4589 -0.3649 -0.1155
 8763TIP3    H147780   4.028   0.203   0.811  1.1939  0.2137 -0.7547
 8763TIP3    H247781   3.990   0.059   0.836 -1.2128  0.3097 -3.4125
 8764TIP3   OH247782   2.783   4.707   2.244  0.1727 -0.4207  0.9714
 8764TIP3    H147783   2.733   4.687   2.323 -3.4571  0.9934 -0.7282
 8764TIP3    H247784   2.873   4.719   2.275 -0.4765 -2.8399  4.3548
 8765TIP3   OH247785   4.011   3.683   2.337  0.4100 -0.2668 -0.7527
 8765TIP3    H147786   4.100   3.715   2.323  0.6046 -0.7654 -0.6857
 8765TIP3    H247787   3.969   3.752   2.388  0.4017  0.4957 -1.7574
 8766TIP3   OH247788   3.384   5.843  11.153  0.2202  0.4951 -0.1323
 8766TIP3    H147789   3.376   5.934  11.179  1.0162  0.6252 -0.3225
 8766TIP3    H247790   3.449   5.843  11.082  2.5857 -0.5474  1.8712
 8767TIP3   OH247791   5.246   6.634  15.586  0.0056  0.3353 -0.2478
 8767TIP3    H147792   5.288   6.690  15.520  0.2821  1.2238  0.6564
 8767TIP3    H247793   5.318   6.589  15.629 -0.1097  0.4352  0.0494
 8768TIP3   OH247794   4.574   6.283   2.010  0.2643  0.4347 -0.9734
 8768TIP3    H147795   4.557   6.243   1.925  1.9064  1.3048 -1.7491
 8768TIP3    H247796   4.537   6.372   2.003 -0.6248  0.1404 -0.3358
 8769TIP3   OH247797   4.519   4.955   3.623 -0.0746  0.1894 -0.2219
 8769TIP3    H147798   4.522   4.996   3.536 -1.1643 -3.0522 -1.9517
 8769TIP3    H247799   4.450   5.004   3.669 -0.3691  1.1872 -1.6336
 8770TIP3   OH247800   5.749   4.757   0.520  0.0118  0.0448 -0.2416
 8770TIP3    H147801   5.801   4.802   0.587 -0.4713 -0.1514  0.2837
 8770TIP3    H247802   5.701   4.827   0.476 -1.8404  0.0011  1.5301
 8771TIP3   OH247803   5.552   4.053   2.249 -0.3273  0.3107  0.7948
 8771TIP3    H147804   5.546   4.066   2.154 -0.0284  1.5325  0.9370
 8771TIP3    H247805   5.497   3.977   2.265  1.2730 -1.2633 -0.6355
 8772TIP3   OH247806   1.642   4.321  13.704  0.1538 -0.4398  0.2143
 8772TIP3    H147807   1.654   4.247  13.644  0.6535  0.8674 -1.3564
 8772TIP3    H247808   1.731   4.349  13.725 -0.0448  0.4842 -0.1783
 8773TIP3   OH247809   1.675   5.786  16.510  0.3502 -0.6535  0.6697
 8773TIP3    H147810   1.641   5.713  16.562  2.3996 -1.4629  0.9592
 8773TIP3    H247811   1.614   5.795  16.438 -2.3079  0.1384  2.8346
 8774TIP3   OH247812   5.150   4.949  12.357  0.3715 -0.1136  0.3060
 8774TIP3    H147813   5.156   5.016  12.425  0.5393 -0.2612  0.4400
 8774TIP3    H247814   5.197   4.986  12.282 -0.0710  0.1720  0.1657
 8775TIP3   OH247815   1.193   5.260  17.065  0.2150 -0.3204 -0.5204
 8775TIP3    H147816   1.257   5.207  17.113  0.7539 -0.1946 -1.0999
 8775TIP3    H247817   1.108   5.222  17.089  0.5853 -1.3697 -0.8353
 8776TIP3   OH247818   4.358   5.922  16.583 -0.2366 -0.9505 -0.0533
 8776TIP3    H147819   4.403   5.995  16.539 -2.9504  0.7647 -0.2668
 8776TIP3    H247820   4.333   5.863  16.512  1.1287 -1.6280  0.0063
 8777TIP3   OH247821   1.999   3.229  11.273 -0.2041  0.2703  0.9660
 8777TIP3    H147822   2.080   3.179  11.270  0.0653  0.7221  0.4532
 8777TIP3    H247823   1.931   3.167  11.248  0.2289  0.3414 -0.5383
 8778TIP3   OH247824   5.439   1.963  12.914 -0.4789 -0.4795  0.0864
 8778TIP3    H147825   5.507   1.906  12.949 -0.4598 -0.5949 -0.1392
 8778TIP3    H247826   5.363   1.947  12.971 -0.0446  0.3535  0.9282
 8779TIP3   OH247827   4.622   1.958   5.256  0.0743 -0.0209  0.1670
 8779TIP3    H147828   4.583   1.960   5.169 -2.2245 -0.2140  1.1214
 8779TIP3    H247829   4.708   1.998   5.244 -0.0980 -0.1813 -2.1984
 8780TIP3   OH247830   0.734   6.244   4.824 -0.1389  0.0269  0.0203
 8780TIP3    H147831   0.660   6.195   4.788 -2.2928  3.1661 -0.1663
 8780TIP3    H247832   0.811   6.200   4.787 -1.9132 -2.3095 -1.1975
 8781TIP3   OH247833   5.573   6.191   2.121  0.4044  0.3747  0.2757
 8781TIP3    H147834   5.483   6.176   2.151  0.3402 -2.6260 -1.0870
 8781TIP3    H247835   5.622   6.209   2.201 -1.0927  0.4195  1.2252
 8782TIP3   OH247836   1.907   5.140  15.872  0.0810  0.2964  0.1515
 8782TIP3    H147837   1.927   5.053  15.837 -0.5904  0.3888 -0.5177
 8782TIP3    H247838   1.827   5.128  15.923  0.3210  0.4070  0.5501
 8783TIP3   OH247839   4.494   2.547   0.365 -0.3166  0.1558  0.7172
 8783TIP3    H147840   4.536   2.539   0.451 -1.1829  2.3565  1.4270
 8783TIP3    H247841   4.567   2.559   0.304  0.3086 -1.4069  1.1130
 8784TIP3   OH247842   2.003   0.809   6.189 -0.1539 -0.1519  0.0708
 8784TIP3    H147843   1.921   0.850   6.160  0.1131  1.1912  1.0787
 8784TIP3    H247844   1.990   0.716   6.174 -1.7718  0.0573 -0.0229
 8785TIP3   OH247845   5.114   4.419   3.667 -0.5052 -0.0125  0.3807
 8785TIP3    H147846   5.059   4.490   3.637 -0.7030 -0.7581 -1.0865
 8785TIP3    H247847   5.094   4.410   3.761 -2.4689  0.0850  0.0026
 8786TIP3   OH247848   1.153   6.407   3.189 -0.1227  0.0345 -0.2351
 8786TIP3    H147849   1.223   6.368   3.242  0.7118  1.2623 -0.3832
 8786TIP3    H247850   1.156   6.361   3.106 -1.0247 -1.4807  0.5248
 8787TIP3   OH247851   2.173   4.389   0.070  0.3004  0.1036 -0.9946
 8787TIP3    H147852   2.198   4.379  -0.022 -0.8447 -0.1868 -1.2881
 8787TIP3    H247853   2.235   4.335   0.118  0.8233  0.1443 -1.6116
 8788TIP3   OH247854   2.961   6.626  16.808  0.6518 -0.7007  0.6914
 8788TIP3    H147855   3.023   6.554  16.824 -0.5285 -1.8219  0.3162
 8788TIP3    H247856   2.949   6.666  16.895  1.1463 -1.0917  0.9454
 8789TIP3   OH247857   5.756   6.680   1.994 -0.1154 -0.6515 -0.2862
 8789TIP3    H147858   5.665   6.690   1.967 -0.2008 -1.4381 -0.3095
 8789TIP3    H247859   5.797   6.764   1.971 -0.2586 -1.1405 -2.5081
 8790TIP3   OH247860   2.926   1.952  12.967  0.4696 -0.1426 -0.0834
 8790TIP3    H147861   2.965   1.957  12.879 -0.2861 -0.1752 -0.4261
 8790TIP3    H247862   2.994   1.910  13.020  1.9123  2.0656 -0.0511
 8791TIP3   OH247863   2.297   2.213  13.311  0.1969  0.1903  0.6794
 8791TIP3    H147864   2.373   2.267  13.332  0.0901 -0.0448  1.7592
 8791TIP3    H247865   2.245   2.212  13.392 -1.9091  1.8233 -0.5368
 8792TIP3   OH247866   2.098   1.697  11.987 -0.1924 -0.1763  0.0170
 8792TIP3    H147867   2.005   1.683  11.975 -0.1136 -1.8480  1.0487
 8792TIP3    H247868   2.106   1.790  12.011 -1.9128 -0.5803  2.6180
 8793TIP3   OH247869   2.429   6.812   1.626  0.2825 -0.7047 -0.7072
 8793TIP3    H147870   2.394   6.729   1.594 -0.4571 -0.5049 -0.4376
 8793TIP3    H247871   2.514   6.789   1.663  1.5767 -0.8336 -3.4730
 8794TIP3   OH247872   3.048   1.224   2.864  0.3542 -0.7666  0.2105
 8794TIP3    H147873   3.018   1.245   2.952 -0.2946  0.7153 -0.3199
 8794TIP3    H247874   3.091   1.305   2.834  0.5439 -1.2396 -0.8351
 8795TIP3   OH247875   5.224   2.665  13.659 -0.1924  0.5791 -0.5786
 8795TIP3    H147876   5.204   2.711  13.740  0.8879  0.1806 -0.0628
 8795TIP3    H247877   5.155   2.598  13.652  0.1557  0.1002  0.4335
 8796TIP3   OH247878   4.934   5.570  15.145  0.2938 -0.5944 -0.0580
 8796TIP3    H147879   4.892   5.490  15.175 -3.0847  0.5152 -1.2094
 8796TIP3    H247880   4.930   5.564  15.049  0.2314  0.7582 -0.1651
 8797TIP3   OH247881   0.686   0.425   4.864 -0.0054 -0.2059  0.3422
 8797TIP3    H147882   0.680   0.475   4.945  2.0070  0.4866  0.1073
 8797TIP3    H247883   0.729   0.343   4.890 -1.1613 -0.8379  0.3079
 8798TIP3   OH247884   1.045   3.688   5.102  0.1513  0.5640 -0.3125
 8798TIP3    H147885   1.140   3.691   5.093  0.2413  1.6185  0.7860
 8798TIP3    H247886   1.030   3.634   5.180 -0.1395  0.7441 -0.2426
 8799TIP3   OH247887   6.772   2.067  11.853  0.1652  0.0058 -0.0746
 8799TIP3    H147888   6.830   2.131  11.811  0.0475  0.5623  0.5900
 8799TIP3    H247889   6.741   2.011  11.781  2.4002 -1.0372 -0.3065
 8800TIP3   OH247890   3.574   3.774  13.017  0.0902  0.1116  0.0058
 8800TIP3    H147891   3.589   3.865  12.991 -0.5012  0.0720 -0.4848
 8800TIP3    H247892   3.494   3.777  13.069  0.1633 -0.1106  0.1335
 8801TIP3   OH247893   2.413   0.112  10.976  0.2593  0.5984  0.0574
 8801TIP3    H147894   2.352   0.042  10.954  0.7604  0.2085 -0.1025
 8801TIP3    H247895   2.366   0.192  10.954 -0.4158  0.3266  0.4869
 8802TIP3   OH247896   1.238   5.765   5.728 -0.0020  0.1048 -0.1344
 8802TIP3    H147897   1.277   5.713   5.799 -0.9190  0.2233  0.4777
 8802TIP3    H247898   1.300   5.757   5.656  0.7129 -0.4331  0.5162
 8803TIP3   OH247899   5.388   4.257   2.482 -0.1705  0.0467 -0.4436
 8803TIP3    H147900   5.332   4.243   2.406  0.4340  1.0291 -1.0919
 8803TIP3    H247901   5.347   4.330   2.529  0.2295  0.3799 -0.6035
 8804TIP3   OH247902   6.578   4.849   0.112  0.5454  0.0840 -0.7309
 8804TIP3    H147903   6.589   4.768   0.162 -0.0365 -0.6732 -1.7679
 8804TIP3    H247904   6.498   4.888   0.147 -2.5449 -2.7325 -3.8529
 8805TIP3   OH247905   3.231   4.902  14.842  0.2095 -0.5666  0.8788
 8805TIP3    H147906   3.236   4.893  14.747  0.9571  0.2500  0.8192
 8805TIP3    H247907   3.186   4.823  14.872 -1.5464 -0.0585 -0.2829
 8806TIP3   OH247908   4.441   4.956  16.703  0.3168  0.8029  0.2815
 8806TIP3    H147909   4.419   4.991  16.617  1.4834 -0.4009 -0.5559
 8806TIP3    H247910   4.357   4.935  16.743 -0.2322  1.0007 -0.7339
 8807TIP3   OH247911   3.157   0.223   6.294 -0.6917 -0.0431 -0.4859
 8807TIP3    H147912   3.228   0.200   6.353 -0.4323  0.7154 -0.5012
 8807TIP3    H247913   3.078   0.194   6.340 -0.4043 -0.5891 -0.3261
 8808TIP3   OH247914   5.440   0.388   0.970 -0.2551 -0.0418  0.1708
 8808TIP3    H147915   5.517   0.345   0.934 -1.2617 -1.0939 -0.8407
 8808TIP3    H247916   5.383   0.401   0.894 -1.1672  0.4958  0.9242
 8809TIP3   OH247917   2.279   1.801   4.939 -0.1979  0.2128  0.4555
 8809TIP3    H147918   2.197   1.847   4.954 -0.0098  0.4202  0.8559
 8809TIP3    H247919   2.347   1.862   4.969  0.1618  0.4133 -0.6832
 8810TIP3   OH247920   4.373   3.781  14.952  0.6907 -0.9196  0.5325
 8810TIP3    H147921   4.374   3.703  14.896  0.5237 -0.9697  0.5985
 8810TIP3    H247922   4.282   3.812  14.947  0.7700 -0.6952  0.4581
 8811TIP3   OH247923   2.991   6.828   2.667  0.1363 -0.2897 -0.1934
 8811TIP3    H147924   3.053   6.900   2.680 -0.2479  0.0393 -0.1625
 8811TIP3    H247925   2.989   6.814   2.573  1.6468 -1.5447 -0.0866
 8812TIP3   OH247926   6.485   5.076  11.574 -0.0408  0.5923 -0.0476
 8812TIP3    H147927   6.578   5.090  11.591  0.1987  0.3530 -1.0778
 8812TIP3    H247928   6.451   5.038  11.655 -0.1194  4.2269  1.8380
 8813TIP3   OH247929   1.140   6.815   3.498 -0.1028 -0.2849 -0.0086
 8813TIP3    H147930   1.094   6.838   3.418  0.8474  1.6769 -0.0494
 8813TIP3    H247931   1.119   6.886   3.559 -0.7930 -1.7219  1.5066
 8814TIP3   OH247932   2.755   4.771  15.855 -0.1833 -0.1412  0.1235
 8814TIP3    H147933   2.721   4.816  15.933 -0.6399 -0.1454 -0.0663
 8814TIP3    H247934   2.709   4.687  15.854 -0.0970 -0.1872 -0.0895
 8815TIP3   OH247935   5.505   2.341   3.808 -0.0243  0.2048  0.4748
 8815TIP3    H147936   5.450   2.362   3.884  0.4062 -0.7872  1.0867
 8815TIP3    H247937   5.446   2.293   3.749 -0.3979  1.1004  0.0966
 8816TIP3   OH247938   3.683   0.376  11.509  0.4139  0.0677  0.4142
 8816TIP3    H147939   3.628   0.308  11.470 -2.1502  1.5103  1.2285
 8816TIP3    H247940   3.714   0.338  11.591  1.8377 -1.2469 -0.6749
 8817TIP3   OH247941   4.483   1.955   0.425 -0.2147 -0.0535  0.0295
 8817TIP3    H147942   4.481   2.050   0.440 -0.8587 -0.2428  1.2374
 8817TIP3    H247943   4.443   1.917   0.503 -1.0967 -1.2775 -0.9750
 8818TIP3   OH247944   3.122   5.597   3.836  0.2879  0.2685 -0.1406
 8818TIP3    H147945   3.085   5.617   3.921  0.5742 -1.1610  0.3580
 8818TIP3    H247946   3.145   5.504   3.841  3.6880  0.9489 -0.4835
 8819TIP3   OH247947   0.222   3.304  10.199 -0.4725  0.0387  0.4400
 8819TIP3    H147948   0.263   3.224  10.166 -1.2563  0.5953 -2.0703
 8819TIP3    H247949   0.162   3.274  10.267 -2.0876 -1.7988 -1.6418
 8820TIP3   OH247950   5.682   5.878  12.210  0.2212 -0.4602 -0.5919
 8820TIP3    H147951   5.676   5.913  12.298  0.0438 -0.2129 -0.6997
 8820TIP3    H247952   5.744   5.936  12.165 -1.1874  0.6297 -1.1930
 8821TIP3   OH247953   1.481   2.182  17.092  0.5081  0.3589  0.4005
 8821TIP3    H147954   1.399   2.133  17.093  1.4487 -1.2864  0.5410
 8821TIP3    H247955   1.501   2.193  16.999 -0.1033  1.2064  0.3592
 8822TIP3   OH247956   4.664   3.953  16.935  0.2355 -0.6314 -0.1543
 8822TIP3    H147957   4.723   3.968  16.861  0.8832  1.1496  0.6761
 8822TIP3    H247958   4.594   4.017  16.924 -0.9213 -1.8892 -0.4386
 8823TIP3   OH247959   2.254   3.684   1.368  0.3862  0.3861 -0.0856
 8823TIP3    H147960   2.176   3.640   1.402  2.7307 -2.2033  2.4965
 8823TIP3    H247961   2.245   3.775   1.397 -0.3547 -0.5120  2.9030
 8824TIP3   OH247962   5.617   0.793  13.357 -0.0423  0.4258  0.4877
 8824TIP3    H147963   5.567   0.785  13.276  0.1870 -1.0744  0.4604
 8824TIP3    H247964   5.554   0.828  13.421 -1.0845 -1.1532  0.3815
 8825TIP3   OH247965   1.096   2.085   3.251 -0.0734 -0.1431  0.5093
 8825TIP3    H147966   1.045   2.110   3.328 -0.2433  2.5169 -0.3521
 8825TIP3    H247967   1.186   2.075   3.283  0.0394  1.9086  0.9594
 8826TIP3   OH247968   5.597   1.563  16.730  0.3249 -0.2796  0.4409
 8826TIP3    H147969   5.615   1.639  16.784  1.2114 -1.5284  1.9956
 8826TIP3    H247970   5.513   1.530  16.761  0.4160 -0.4911  0.4701
 8827TIP3   OH247971   2.663   5.420   1.908 -0.2943 -0.1751  0.0823
 8827TIP3    H147972   2.699   5.336   1.936  1.4918  0.7550  0.7581
 8827TIP3    H247973   2.740   5.469   1.877 -0.9270  1.9996  1.7518
 8828TIP3   OH247974   2.359   1.154  15.595  0.2233  0.2601  0.1742
 8828TIP3    H147975   2.316   1.075  15.561  5.0949 -2.2166 -1.0417
 8828TIP3    H247976   2.352   1.145  15.690 -0.2154 -1.0939  0.0395
 8829TIP3   OH247977   3.465   4.705  13.288 -0.7023 -0.3462  0.0053
 8829TIP3    H147978   3.522   4.674  13.217 -1.7715  0.1516 -1.1062
 8829TIP3    H247979   3.380   4.719  13.246 -1.3891 -0.1140  1.4151
 8830TIP3   OH247980   3.730   5.551   5.668 -0.4017  0.0956 -0.3079
 8830TIP3    H147981   3.680   5.601   5.733 -0.2359  0.7237 -0.6577
 8830TIP3    H247982   3.799   5.508   5.718  0.2273  1.2317 -0.1682
 8831TIP3   OH247983   1.872   2.599   0.428 -0.4531 -0.1307 -0.4265
 8831TIP3    H147984   1.800   2.658   0.452  0.4398  0.8771 -0.1542
 8831TIP3    H247985   1.877   2.606   0.332 -1.1254 -0.7189 -0.5179
 8832TIP3   OH247986   4.325   5.300  16.745  0.3349 -0.1269  0.5427
 8832TIP3    H147987   4.318   5.378  16.689  2.0768 -0.7945 -0.7133
 8832TIP3    H247988   4.245   5.251  16.727  0.3249  0.2372 -0.5306
 8833TIP3   OH247989   1.437   3.305  13.948  0.4877 -0.0786 -0.1502
 8833TIP3    H147990   1.457   3.291  13.855  0.0405  0.1768 -0.2898
 8833TIP3    H247991   1.469   3.393  13.966  0.0560  0.0958 -0.2175
 8834TIP3   OH247992   2.928   6.710   4.381 -0.4620  0.3669 -0.3816
 8834TIP3    H147993   2.967   6.751   4.304  0.5827 -0.5751 -0.3724
 8834TIP3    H247994   2.980   6.742   4.455 -1.2164  0.9598 -0.0855
 8835TIP3   OH247995   3.682   1.801  15.575  0.0212  0.3904  0.2155
 8835TIP3    H147996   3.671   1.811  15.670 -0.9441  0.7434  0.0811
 8835TIP3    H247997   3.748   1.867  15.551 -0.1334  0.6756  0.5640
 8836TIP3   OH247998   4.247   2.090  16.435 -0.4803  0.2424  0.0752
 8836TIP3    H147999   4.284   2.169  16.473  0.2483 -0.0409 -0.0249
 8836TIP3    H248000   4.310   2.063  16.368 -0.8553 -0.2662 -0.0867
 8837TIP3   OH248001   5.103   5.209  13.571 -0.1005  0.1491 -0.1300
 8837TIP3    H148002   5.177   5.268  13.555  1.7864 -2.0867 -0.2668
 8837TIP3    H248003   5.099   5.200  13.666 -1.2501  1.4623 -0.0305
 8838TIP3   OH248004   1.435   1.653  15.646  0.2227  0.4035  0.8378
 8838TIP3    H148005   1.468   1.633  15.734  0.3210  0.9287  0.9220
 8838TIP3    H248006   1.496   1.609  15.587 -0.3117 -0.6421  1.0450
 8839TIP3   OH248007   1.326   5.448  13.249 -0.1814 -0.2169 -0.1722
 8839TIP3    H148008   1.389   5.429  13.180 -0.3921  0.0663 -0.4430
 8839TIP3    H248009   1.241   5.424  13.212 -0.1201 -1.7369  0.6204
 8840TIP3   OH248010   3.187   5.425  16.098  0.1509 -0.4164 -0.4718
 8840TIP3    H148011   3.203   5.332  16.117 -1.6510 -0.6293  0.1391
 8840TIP3    H248012   3.228   5.472  16.170  0.0588 -0.7893 -0.1753
 8841TIP3   OH248013   2.286   2.912   2.397  0.9608 -0.1795  0.2652
 8841TIP3    H148014   2.245   2.871   2.472 -0.4244 -1.6659 -1.2290
 8841TIP3    H248015   2.372   2.870   2.390 -0.0152 -2.1385 -0.6022
 8842TIP3   OH248016   0.517   0.314   5.245 -0.5253  0.1962  0.1169
 8842TIP3    H148017   0.495   0.226   5.277  1.2020 -1.3295 -2.4927
 8842TIP3    H248018   0.467   0.322   5.163  0.2988  1.1257 -0.3098
 8843TIP3   OH248019   4.850   1.567   3.440  1.0704 -0.5646 -0.1396
 8843TIP3    H148020   4.840   1.485   3.490  0.4280 -1.0820 -1.0764
 8843TIP3    H248021   4.823   1.544   3.351  1.2966  0.5717 -0.5180
 8844TIP3   OH248022   2.116   2.098  16.344 -0.0999 -0.2682  0.5916
 8844TIP3    H148023   2.185   2.155  16.311  0.4726  0.0854  2.3116
 8844TIP3    H248024   2.162   2.029  16.392 -0.8792 -0.8853  0.4679
 8845TIP3   OH248025   0.863   4.548  11.610  0.4543  0.1909  0.3504
 8845TIP3    H148026   0.898   4.542  11.699  1.3455  1.2229  0.0868
 8845TIP3    H248027   0.777   4.587  11.621  0.0375 -0.8179  0.8560
 8846TIP3   OH248028   6.365   2.168   5.441  0.0742 -0.0749  0.1228
 8846TIP3    H148029   6.356   2.093   5.382  2.2113  0.2042 -0.6447
 8846TIP3    H248030   6.422   2.136   5.512 -0.9526  0.1529  1.0876
 8847TIP3   OH248031   0.175   1.913   5.554 -0.6014  0.4026 -0.4601
 8847TIP3    H148032   0.259   1.959   5.558 -0.0703 -0.6147  1.2355
 8847TIP3    H248033   0.116   1.966   5.608  0.0446 -0.8584  1.6011
 8848TIP3   OH248034   2.937   1.596  14.412  0.5168  0.1629  0.2677
 8848TIP3    H148035   2.984   1.610  14.494  1.5579 -0.7380 -0.1476
 8848TIP3    H248036   3.005   1.574  14.349 -0.1664  1.7513 -1.0860
 8849TIP3   OH248037   3.209   5.462   3.169  0.0721 -0.1694 -0.6086
 8849TIP3    H148038   3.140   5.402   3.140 -1.2108  0.6530  0.5883
 8849TIP3    H248039   3.216   5.448   3.264  0.8196  0.4844 -0.5502
 8850TIP3   OH248040   4.261   6.434   5.152  0.1259  1.0375  0.2389
 8850TIP3    H148041   4.322   6.360   5.153 -0.4141  0.5403  2.4173
 8850TIP3    H248042   4.180   6.398   5.116  0.6557  1.3198 -1.2887
 8851TIP3   OH248043   1.311   4.299   5.073 -0.4649  1.1010  0.4266
 8851TIP3    H148044   1.237   4.319   5.016 -1.0482  0.0595  0.7879
 8851TIP3    H248045   1.290   4.341   5.156 -0.1894  1.6007  0.2489
 8852TIP3   OH248046   3.922   2.434  12.058  0.6860  0.3965 -0.5895
 8852TIP3    H148047   3.936   2.356  12.003  0.9791 -0.1195  0.1920
 8852TIP3    H248048   3.956   2.506  12.007  2.3753 -0.2745 -0.4861
 8853TIP3   OH248049   6.552   1.689   1.862 -0.1400 -0.5041 -0.0459
 8853TIP3    H148050   6.553   1.637   1.781 -1.4602  0.0239 -0.4333
 8853TIP3    H248051   6.644   1.696   1.888  0.1002 -2.8895 -0.0638
 8854TIP3   OH248052   6.390   2.888  13.054  0.9780 -0.3811 -0.3173
 8854TIP3    H148053   6.459   2.840  13.101  0.3122  0.1588  1.2656
 8854TIP3    H248054   6.400   2.979  13.083 -1.9868 -0.6654  2.0772
 8855TIP3   OH248055   0.498   5.807  15.007 -0.0797 -0.0356 -0.5126
 8855TIP3    H148056   0.474   5.717  15.027  0.3904  0.3877  2.3193
 8855TIP3    H248057   0.416   5.849  14.983 -0.5484 -0.8361 -0.3366
 8856TIP3   OH248058   3.977   5.974   5.809 -0.2848 -0.3081  0.6937
 8856TIP3    H148059   4.068   5.947   5.816 -0.0990  0.1650  0.2024
 8856TIP3    H248060   3.933   5.902   5.763 -0.0712 -0.3454  0.5498
 8857TIP3   OH248061   1.693   6.837  14.602 -0.5027 -0.3615 -0.5526
 8857TIP3    H148062   1.723   6.764  14.548  1.3216 -0.4377  0.5085
 8857TIP3    H248063   1.671   6.797  14.686  3.5230  0.5528  1.1506
 8858TIP3   OH248064   2.321   2.691   4.153  0.0239 -0.4054 -0.2176
 8858TIP3    H148065   2.363   2.635   4.088 -0.7025 -0.7207 -0.4258
 8858TIP3    H248066   2.344   2.652   4.237  0.4041 -0.3918 -0.3146
 8859TIP3   OH248067   0.140   3.308  12.359  0.9944  1.2486 -0.3605
 8859TIP3    H148068   0.094   3.350  12.431 -3.0533  1.3086 -2.6449
 8859TIP3    H248069   0.151   3.377  12.294 -0.4026  0.1690 -1.8277
 8860TIP3   OH248070   5.307   1.974   0.971 -0.2247 -0.1177  0.0531
 8860TIP3    H148071   5.329   2.012   0.886 -1.5163  2.8514  0.9211
 8860TIP3    H248072   5.221   1.934   0.958  1.0605 -2.8099 -0.8174
 8861TIP3   OH248073   2.270   5.574   3.021 -0.2200  0.0361 -0.5146
 8861TIP3    H148074   2.219   5.506   3.067  1.1921 -0.7077 -0.0003
 8861TIP3    H248075   2.245   5.655   3.064 -0.9923 -0.3060 -0.2921
 8862TIP3   OH248076   5.643   4.634  13.217  0.2875 -0.1667 -0.3455
 8862TIP3    H148077   5.556   4.640  13.177  0.0115  2.8819  0.3809
 8862TIP3    H248078   5.628   4.660  13.308  1.9256  0.2733 -0.1780
 8863TIP3   OH248079   5.212   6.187  13.682  0.3324 -0.3458  0.1698
 8863TIP3    H148080   5.182   6.262  13.630  1.1785 -0.0389  0.1062
 8863TIP3    H248081   5.255   6.226  13.758  0.5319 -0.7705  0.2770
 8864TIP3   OH248082   1.869   1.959  11.214  0.2143 -0.2333  0.2560
 8864TIP3    H148083   1.818   1.889  11.173 -1.1626 -0.0906  1.6645
 8864TIP3    H248084   1.937   1.979  11.149  0.0783 -2.2114 -0.5828
 8865TIP3   OH248085   3.251   4.890   3.034  0.0706 -0.2899 -0.3405
 8865TIP3    H148086   3.278   4.900   3.125  0.0349 -1.3948 -0.1977
 8865TIP3    H248087   3.286   4.967   2.990  1.0857 -0.3243  0.3774
 8866TIP3   OH248088   6.605   5.407   1.272  0.5526 -0.6229 -0.2747
 8866TIP3    H148089   6.565   5.336   1.323  1.3174  0.2232  1.5860
 8866TIP3    H248090   6.679   5.435   1.324  0.0003  1.8741 -0.7201
 8867TIP3   OH248091   3.795   2.911  16.810  0.5153 -0.2498 -0.4512
 8867TIP3    H148092   3.844   2.970  16.753  1.7128 -0.9165 -0.1576
 8867TIP3    H248093   3.726   2.875  16.754 -0.2152  1.3534 -0.6423
 8868TIP3   OH248094   1.238   5.057  16.722  0.2106 -1.2888  0.2300
 8868TIP3    H148095   1.178   5.126  16.751  0.4328 -0.0809 -1.9694
 8868TIP3    H248096   1.298   5.101  16.662  1.5348 -3.0588  0.1672
 8869TIP3   OH248097   2.267   4.719  12.131  0.1471 -0.1218  0.2592
 8869TIP3    H148098   2.350   4.726  12.178  0.2506  0.7480 -0.0446
 8869TIP3    H248099   2.233   4.633  12.157 -0.1255  0.5827  2.4738
 8870TIP3   OH248100   5.386   1.722   3.749  0.0020 -0.2692 -0.0677
 8870TIP3    H148101   5.380   1.800   3.804  0.5576 -0.1899 -0.1141
 8870TIP3    H248102   5.431   1.752   3.670  1.2207 -0.8675  0.3759
 8871TIP3   OH248103   1.249   0.826   2.825 -0.2914 -0.5980 -0.2674
 8871TIP3    H148104   1.215   0.884   2.893  0.7448 -1.0262  0.6599
 8871TIP3    H248105   1.209   0.856   2.744 -0.1628  1.0996  0.2715
 8872TIP3   OH248106   0.168   4.524   0.433 -0.2813  0.2443 -0.2764
 8872TIP3    H148107   0.100   4.472   0.392  0.2634  0.8553 -2.0434
 8872TIP3    H248108   0.249   4.477   0.414  0.0597  0.9376 -0.5778
 8873TIP3   OH248109   4.468   0.562   0.264 -0.3479 -0.0154  0.0898
 8873TIP3    H148110   4.402   0.543   0.198 -0.2987 -0.4258  0.1517
 8873TIP3    H248111   4.417   0.576   0.345 -0.3601 -0.4655  0.1672
 8874TIP3   OH248112   4.976   2.923   4.707  0.4332 -0.5086  0.3885
 8874TIP3    H148113   5.035   2.976   4.762  1.3640  0.0009 -1.0448
 8874TIP3    H248114   5.012   2.835   4.713  2.4724  0.0636 -1.7846
 8875TIP3   OH248115   6.556   1.093  12.956  0.4030  0.0418  0.3631
 8875TIP3    H148116   6.608   1.124  12.881  0.9586 -1.7988 -0.0437
 8875TIP3    H248117   6.477   1.056  12.916  0.2605 -0.0959  0.7673
 8876TIP3   OH248118   0.423   5.768  12.400  0.1375  0.4266 -0.0183
 8876TIP3    H148119   0.363   5.694  12.405 -1.4174  1.5726 -0.8052
 8876TIP3    H248120   0.475   5.763  12.480  1.1493 -2.3476 -0.7438
 8877TIP3   OH248121   3.617   2.390   5.094  0.3226  0.3323 -0.2011
 8877TIP3    H148122   3.645   2.357   5.009 -1.0158  2.3241 -1.4853
 8877TIP3    H248123   3.614   2.485   5.083 -1.5960  0.5282  1.5212
 8878TIP3   OH248124   4.298   5.845  13.623  0.0929 -0.1610 -0.0782
 8878TIP3    H148125   4.313   5.822  13.531  1.8626  1.0543 -0.1422
 8878TIP3    H248126   4.353   5.784  13.672 -0.3126 -0.3466  0.1521
 8879TIP3   OH248127   4.605   1.918   4.360 -0.2390 -0.2574  0.7282
 8879TIP3    H148128   4.670   1.874   4.414  1.9486  2.0179  0.1008
 8879TIP3    H248129   4.616   1.879   4.273  0.2958  0.1377  0.6193
 8880TIP3   OH248130   1.355   5.152   5.167 -0.4675  0.4011 -0.0867
 8880TIP3    H148131   1.386   5.217   5.103 -1.1197  1.0219  0.2148
 8880TIP3    H248132   1.369   5.068   5.124  1.4736  0.6500 -0.0261
 8881TIP3   OH248133   5.055   4.461  12.046 -0.3103  0.7648  0.1686
 8881TIP3    H148134   5.064   4.427  12.135 -0.9365  0.5968  0.1752
 8881TIP3    H248135   5.138   4.504  12.028  0.5941 -0.9485  0.0794
 8882TIP3   OH248136   1.354   6.529  11.938  0.8449 -0.0596  0.4109
 8882TIP3    H148137   1.325   6.613  11.974 -0.0966 -0.7830  1.4261
 8882TIP3    H248138   1.277   6.472  11.946  0.8769 -0.5241 -1.9886
 8883TIP3   OH248139   0.624   4.815   4.717  0.0658 -0.2734  0.1278
 8883TIP3    H148140   0.536   4.790   4.689 -0.6594  0.9328  1.1665
 8883TIP3    H248141   0.622   4.806   4.812  0.5866  1.1129  0.2967
 8884TIP3   OH248142   1.745   1.798   5.780 -0.2544  0.6468  0.4967
 8884TIP3    H148143   1.721   1.890   5.772 -2.2950  0.2947  1.7533
 8884TIP3    H248144   1.812   1.796   5.847  0.2304  1.2676  0.0377
 8885TIP3   OH248145   3.272   4.362   0.227 -0.3557 -0.1371  0.1541
 8885TIP3    H148146   3.214   4.345   0.301  0.7015  1.1070  1.3134
 8885TIP3    H248147   3.290   4.456   0.232  3.1688 -0.7229  0.9546
 8886TIP3   OH248148   5.219   2.039  13.063  0.3581 -1.0740  0.1927
 8886TIP3    H148149   5.171   2.119  13.081  1.1811 -0.6278  0.4415
 8886TIP3    H248150   5.279   2.029  13.137  1.0779 -1.2792 -0.4039
 8887TIP3   OH248151   3.691   3.142  15.284  0.1747 -0.3485  0.2971
 8887TIP3    H148152   3.752   3.073  15.311  0.3221 -1.2487 -2.0941
 8887TIP3    H248153   3.613   3.127  15.337  0.6922 -1.5155  0.7687
 8888TIP3   OH248154   3.010   3.227   3.560  0.5872 -0.0380  0.3975
 8888TIP3    H148155   2.952   3.265   3.494  1.3884 -0.8958 -0.8569
 8888TIP3    H248156   3.063   3.164   3.511  1.4949 -0.4029  1.7991
 8889TIP3   OH248157   6.824   4.131   0.225 -0.1387 -0.1528  0.7261
 8889TIP3    H148158   6.826   4.224   0.249 -3.0503 -0.1249  1.2293
 8889TIP3    H248159   6.856   4.086   0.303 -0.9965  0.3553  1.3935
 8890TIP3   OH248160   3.168   2.165  11.577 -0.4766 -0.0517  0.1839
 8890TIP3    H148161   3.204   2.226  11.641 -1.0669 -0.6724  1.1435
 8890TIP3    H248162   3.241   2.145  11.519 -0.7080  2.9556 -1.3151
 8891TIP3   OH248163   2.537   2.479  16.124  0.2197  0.0658 -0.5446
 8891TIP3    H148164   2.567   2.417  16.190 -1.2097  0.8388  0.9047
 8891TIP3    H248165   2.611   2.539  16.113  0.9510 -0.8301 -0.6419
 8892TIP3   OH248166   4.212   5.377   3.271  0.1790 -0.8436  0.5908
 8892TIP3    H148167   4.256   5.304   3.315 -1.3363 -3.5068 -1.9204
 8892TIP3    H248168   4.121   5.372   3.301  0.2139  0.6041  1.0103
 8893TIP3   OH248169   2.411   2.473   1.040  0.6252 -0.2876  0.3249
 8893TIP3    H148170   2.455   2.415   0.978  0.0728 -0.7962  0.3999
 8893TIP3    H248171   2.351   2.524   0.986 -0.1391 -1.0021  0.4745
 8894TIP3   OH248172   4.616   2.888  11.511 -0.2416 -0.2275  0.2791
 8894TIP3    H148173   4.684   2.850  11.566  0.2468  1.3637  0.8236
 8894TIP3    H248174   4.592   2.818  11.450  0.7118 -1.3326  1.1331
 8895TIP3   OH248175   6.270   0.267   4.562  0.7601  0.7301 -0.1432
 8895TIP3    H148176   6.318   0.328   4.618 -1.2857  0.3186  2.2350
 8895TIP3    H248177   6.190   0.313   4.539  0.7764  0.2139 -1.3371
 8896TIP3   OH248178   4.496   0.480  16.053  0.2402  0.6123  0.3341
 8896TIP3    H148179   4.572   0.523  16.013  0.4707 -0.1619 -0.0809
 8896TIP3    H248180   4.526   0.392  16.073  0.5460  1.3048  3.4553
 8897TIP3   OH248181   0.258   1.010   5.753 -0.4285 -0.1983  0.3037
 8897TIP3    H148182   0.268   1.105   5.754  0.8182 -0.2667 -1.2386
 8897TIP3    H248183   0.348   0.977   5.762 -0.7554 -1.2093 -0.0423
 8898TIP3   OH248184   3.918   2.208  13.882 -0.3299 -0.2800 -0.6544
 8898TIP3    H148185   3.962   2.158  13.814  1.4078  0.4691 -0.1493
 8898TIP3    H248186   3.952   2.173  13.964 -1.2106 -0.1223 -0.2004
 8899TIP3   OH248187   6.614   4.822  15.302  0.1720 -0.6912  0.3477
 8899TIP3    H148188   6.537   4.876  15.322  2.3251  2.5373  0.6696
 8899TIP3    H248189   6.622   4.827  15.207 -0.3075 -1.5619  0.2468
 8900TIP3   OH248190   3.219   6.233  11.404 -0.3508  0.1079  0.0112
 8900TIP3    H148191   3.242   6.167  11.338  1.0904  0.3831  0.2000
 8900TIP3    H248192   3.165   6.297  11.357 -1.2813 -0.8800 -0.3155
 8901TIP3   OH248193   3.540   5.839   1.446  0.0889 -0.3927 -0.0392
 8901TIP3    H148194   3.629   5.809   1.466  0.7231  1.0749 -0.5216
 8901TIP3    H248195   3.487   5.759   1.445  1.6202 -1.4377 -0.8733
 8902TIP3   OH248196   0.154   6.479  17.164 -0.1390  0.5305 -0.8544
 8902TIP3    H148197   0.235   6.508  17.206 -1.0507  1.0487  0.6455
 8902TIP3    H248198   0.177   6.396  17.122  0.4473 -1.1440  2.4220
 8903TIP3   OH248199   2.234   4.819   6.526 -0.3547 -0.5961 -0.4732
 8903TIP3    H148200   2.274   4.831   6.613 -1.2810 -0.9168  0.0059
 8903TIP3    H248201   2.149   4.779   6.544 -1.3456  0.9958 -1.4139
 8904TIP3   OH248202   4.286   6.298   6.702  0.5145 -0.3953 -0.1155
 8904TIP3    H148203   4.248   6.361   6.762  0.5012  0.3534 -0.8844
 8904TIP3    H248204   4.261   6.330   6.615 -1.0029 -2.4192 -0.4807
 8905TIP3   OH248205   2.305   6.559  17.011  0.0197  0.0710 -0.0088
 8905TIP3    H148206   2.298   6.592  17.100  1.7010 -0.7268  0.4615
 8905TIP3    H248207   2.388   6.513  17.009 -0.9777 -1.8032 -1.3878
 8906TIP3   OH248208   1.730   2.995  14.418 -0.3329 -0.4450  0.4926
 8906TIP3    H148209   1.657   2.937  14.439  1.2250 -1.7908  2.7423
 8906TIP3    H248210   1.808   2.943  14.441  1.2447  1.5776 -0.0385
 8907TIP3   OH248211   4.570   4.950  12.085 -0.5029 -0.0925  0.2134
 8907TIP3    H148212   4.551   4.871  12.137  2.5525 -2.3234 -1.7031
 8907TIP3    H248213   4.564   4.920  11.994  1.1467  1.7849 -0.5729
 8908TIP3   OH248214   4.054   5.550  14.917  0.1636 -0.0873  0.1295
 8908TIP3    H148215   4.145   5.522  14.917  0.7455  1.6956  0.8875
 8908TIP3    H248216   4.040   5.586  15.004 -1.5752 -1.1744  0.3537
 8909TIP3   OH248217   6.514   3.009   0.771  0.5577 -0.3134  0.1523
 8909TIP3    H148218   6.581   3.033   0.707  0.3158  0.9361  0.3294
 8909TIP3    H248219   6.557   3.019   0.856  0.0864  0.8019  0.2810
 8910TIP3   OH248220   6.650   1.651   0.672  0.1928 -0.3737  0.2966
 8910TIP3    H148221   6.607   1.618   0.592 -1.7806  2.2568  0.1315
 8910TIP3    H248222   6.645   1.577   0.733 -0.3661 -1.7007 -1.2485
 8911TIP3   OH248223   1.232   1.692  11.737 -0.3192  0.1702 -0.4833
 8911TIP3    H148224   1.288   1.702  11.660 -0.6258  0.2678 -0.6957
 8911TIP3    H248225   1.272   1.747  11.804 -1.2331  1.7826 -1.2155
 8912TIP3   OH248226   0.884   3.524  13.297 -0.3789 -0.3314  0.0890
 8912TIP3    H148227   0.912   3.441  13.336 -0.3560  0.3653  1.5932
 8912TIP3    H248228   0.965   3.575  13.291 -0.0156 -1.0217 -2.5719
 8913TIP3   OH248229   3.997   0.178  16.210 -0.2616 -0.4987 -0.6359
 8913TIP3    H148230   4.039   0.091  16.211  0.9775  0.0747  0.3289
 8913TIP3    H248231   4.048   0.229  16.273 -0.2546  1.2740 -2.0071
 8914TIP3   OH248232   4.863   3.103   1.056  0.2950 -0.1641 -0.2230
 8914TIP3    H148233   4.921   3.177   1.068  0.6713 -0.4579 -0.1971
 8914TIP3    H248234   4.859   3.062   1.142  0.4384 -0.4241 -0.3379
 8915TIP3   OH248235   1.607   6.263  12.493 -0.1873 -0.1435 -0.1459
 8915TIP3    H148236   1.624   6.171  12.512 -0.8955  0.1732  2.3116
 8915TIP3    H248237   1.549   6.261  12.417 -2.9440 -1.9676  1.8097
 8916TIP3   OH248238   5.986   5.695   2.214  1.0144  0.0148  0.1778
 8916TIP3    H148239   6.066   5.643   2.226  0.7733 -0.6244 -0.8344
 8916TIP3    H248240   5.970   5.735   2.299  2.2685 -0.0591  0.4668
 8917TIP3   OH248241   5.256   2.273  12.789  0.6185  0.1697 -0.1543
 8917TIP3    H148242   5.337   2.247  12.832  0.1930  0.7523  1.0306
 8917TIP3    H248243   5.249   2.214  12.714  0.1107 -2.6214  1.9426
 8918TIP3   OH248244   0.671   6.641   5.856  0.0887 -0.5375  0.0074
 8918TIP3    H148245   0.654   6.649   5.950  2.2585  1.0544  0.3410
 8918TIP3    H248246   0.756   6.598   5.850 -0.1341 -0.8645 -1.2639
 8919TIP3   OH248247   6.412   4.086   2.188  0.3209 -0.0140 -0.2772
 8919TIP3    H148248   6.478   4.094   2.256  0.3532 -1.0181 -0.1725
 8919TIP3    H248249   6.340   4.142   2.218 -0.0435 -1.1380  1.0639
 8920TIP3   OH248250   0.043   5.005  11.257  0.0586 -0.2441 -0.3693
 8920TIP3    H148251  -0.004   4.960  11.187  0.2259  2.4482 -2.3428
 8920TIP3    H248252   0.130   5.021  11.222  0.1560  1.1739  0.4436
 8921TIP3   OH248253   4.348   2.558  11.891  0.1797 -0.1628  0.0753
 8921TIP3    H148254   4.263   2.529  11.858  0.2781 -1.0251  0.5535
 8921TIP3    H248255   4.329   2.641  11.936 -0.1498  0.3993 -1.0740
 8922TIP3   OH248256   4.238   6.410   1.023 -0.0471  0.0254 -0.2677
 8922TIP3    H148257   4.291   6.485   0.996  1.6095 -0.7756  0.6215
 8922TIP3    H248258   4.191   6.384   0.944 -0.3656  1.7551 -0.6874
 8923TIP3   OH248259   1.201   2.319  16.669  0.4381 -0.0201  0.1977
 8923TIP3    H148260   1.222   2.412  16.669  0.4612 -0.0176 -0.4793
 8923TIP3    H248261   1.141   2.307  16.742  1.2265  0.3411  0.9253
 8924TIP3   OH248262   2.062   3.296  15.203  0.2921  0.2281  0.2505
 8924TIP3    H148263   2.118   3.317  15.278 -0.0736 -0.6924  0.7942
 8924TIP3    H248264   2.094   3.212  15.172 -1.3943 -0.8067  1.1947
 8925TIP3   OH248265   2.294   5.427   0.323 -0.1982  0.2268  0.0366
 8925TIP3    H148266   2.228   5.418   0.391  0.8494 -0.8502  0.9579
 8925TIP3    H248267   2.256   5.385   0.245 -0.7916  0.0823  0.4028
 8926TIP3   OH248268   1.660   0.325  16.214  0.0304  0.3571  0.1900
 8926TIP3    H148269   1.586   0.270  16.191  0.4435 -0.8723  1.6575
 8926TIP3    H248270   1.717   0.323  16.136 -0.7718  0.1292 -0.4001
 8927TIP3   OH248271   0.003   2.565   5.661 -0.3869 -0.2851 -0.8969
 8927TIP3    H148272  -0.015   2.589   5.570 -2.1154  1.5948 -0.1362
 8927TIP3    H248273   0.059   2.635   5.694 -0.5655 -0.4436 -0.2452
 8928TIP3   OH248274   4.402   4.830   3.994  0.5205 -0.3527 -0.7241
 8928TIP3    H148275   4.402   4.876   3.910 -1.0876 -1.4807 -1.3926
 8928TIP3    H248276   4.454   4.885   4.052 -2.2719  2.9896 -1.0972
 8929TIP3   OH248277   2.622   3.770   3.236  0.3468  0.0697  0.3800
 8929TIP3    H148278   2.708   3.806   3.258  0.1558  2.9012 -2.8173
 8929TIP3    H248279   2.562   3.816   3.295  0.6768  0.8316  0.1320
 8930TIP3   OH248280   1.505   1.851  12.681  0.7570  0.1393  0.2106
 8930TIP3    H148281   1.598   1.862  12.700  0.7878  0.1977  0.0311
 8930TIP3    H248282   1.501   1.842  12.586  0.7418 -1.4746  0.3454
 8931TIP3   OH248283   3.248   3.777   3.932  0.0301  0.1642 -0.1021
 8931TIP3    H148284   3.187   3.706   3.949  0.2871 -0.3129 -1.0922
 8931TIP3    H248285   3.222   3.846   3.992 -1.7491  0.1342 -0.7900
 8932TIP3   OH248286   6.174   4.351  16.560 -0.0068  0.4313  0.9414
 8932TIP3    H148287   6.232   4.297  16.615 -2.2454  0.0460  3.0871
 8932TIP3    H248288   6.216   4.438  16.560  2.1657 -0.5483 -0.2162
 8933TIP3   OH248289   3.506   1.757   5.537  0.3453  0.3488  0.5143
 8933TIP3    H148290   3.591   1.784   5.573  2.2779  0.1542 -3.3518
 8933TIP3    H248291   3.498   1.807   5.456 -2.3605 -1.0878 -0.1985
 8934TIP3   OH248292   2.208   1.526  14.432 -0.1215 -0.3688  0.5424
 8934TIP3    H148293   2.248   1.465  14.369 -0.3586  0.8242 -0.8111
 8934TIP3    H248294   2.277   1.543  14.495  1.6901  1.7098 -1.7888
 8935TIP3   OH248295   2.728   5.265   6.365 -0.8054  0.1544  0.2702
 8935TIP3    H148296   2.688   5.178   6.369 -1.4045  0.4279  0.3906
 8935TIP3    H248297   2.655   5.324   6.347 -0.0563  0.3767 -2.3729
 8936TIP3   OH248298   4.504   0.311   2.007 -0.2338  0.0025 -0.3050
 8936TIP3    H148299   4.447   0.387   2.009 -0.2411 -0.0155  1.6537
 8936TIP3    H248300   4.468   0.256   1.937 -2.2433  0.2792  0.4539
 8937TIP3   OH248301   1.622   0.844  16.003  0.4165  0.2376 -0.5497
 8937TIP3    H148302   1.534   0.881  16.007 -0.0737 -0.9568  0.5263
 8937TIP3    H248303   1.625   0.798  15.919  0.4226  1.2186 -1.0965
 8938TIP3   OH248304   3.243   0.222   1.607  0.0679 -0.0886 -0.4005
 8938TIP3    H148305   3.239   0.285   1.535  0.5051 -0.7189 -0.9965
 8938TIP3    H248306   3.257   0.137   1.564  0.8164 -0.4181  0.4557
 8939TIP3   OH248307   6.168   5.440   0.212 -0.3838  0.2298  0.0821
 8939TIP3    H148308   6.134   5.392   0.136  0.8685  1.1151 -1.0881
 8939TIP3    H248309   6.136   5.529   0.201  2.3914  1.1791 -1.2337
 8940TIP3   OH248310   1.773   4.268   5.554  0.1569 -0.2664  0.0916
 8940TIP3    H148311   1.694   4.258   5.607  0.7065 -0.4844  0.8765
 8940TIP3    H248312   1.780   4.185   5.507  1.9130 -1.8037  2.7998
 8941TIP3   OH248313   4.745   4.682   2.368  0.8437 -0.3680 -0.2142
 8941TIP3    H148314   4.804   4.679   2.292  0.9063  1.7330 -0.3296
 8941TIP3    H248315   4.724   4.775   2.377 -1.4986 -0.9191  0.5792
 8942TIP3   OH248316   6.086   0.908  15.228  0.5622 -0.0376  1.4696
 8942TIP3    H148317   6.110   1.001  15.225  2.0309 -0.4335 -0.4154
 8942TIP3    H248318   6.163   0.864  15.262  0.5266 -0.7529  0.6636
 8943TIP3   OH248319   2.860   6.838  13.663  0.6755  0.0422 -0.2924
 8943TIP3    H148320   2.923   6.879  13.723  0.2494 -0.6811  0.6715
 8943TIP3    H248321   2.808   6.911  13.630  1.5932  0.5764 -0.6122
 8944TIP3   OH248322   6.680   0.822  17.162  0.4312  0.3050  0.1562
 8944TIP3    H148323   6.662   0.858  17.249 -0.7804 -0.5171  0.2864
 8944TIP3    H248324   6.593   0.808  17.124  0.8517 -1.6560 -0.1922
 8945TIP3   OH248325   5.613   3.626  16.601  0.4963  0.0199 -0.1454
 8945TIP3    H148326   5.590   3.609  16.510 -0.7967 -0.1677  0.2071
 8945TIP3    H248327   5.646   3.716  16.601  0.4951  0.0275 -0.7852
 8946TIP3   OH248328   1.455   6.602   3.971  0.1396 -0.5052 -0.6616
 8946TIP3    H148329   1.420   6.608   4.060 -1.1104 -1.5396 -1.0578
 8946TIP3    H248330   1.524   6.536   3.977  0.0925 -0.5362 -0.4481
 8947TIP3   OH248331   4.556   0.623  11.484  0.7378 -0.1445 -0.1627
 8947TIP3    H148332   4.535   0.531  11.500 -0.7383  0.1772 -0.0569
 8947TIP3    H248333   4.474   0.670  11.503  0.7746  0.9586 -2.3342
 8948TIP3   OH248334   6.466   3.334   1.425  0.1200  0.1668  0.4233
 8948TIP3    H148335   6.482   3.373   1.511 -0.3733  0.8803  0.1946
 8948TIP3    H248336   6.459   3.408   1.366  0.3704 -0.3184 -0.2286
 8949TIP3   OH248337   2.422   1.783  12.599 -0.5295 -0.4379 -0.3343
 8949TIP3    H148338   2.482   1.736  12.657  0.7519 -0.7353 -1.8239
 8949TIP3    H248339   2.453   1.873  12.600 -0.0227 -0.5846 -1.0754
 8950TIP3   OH248340   3.345   3.892  14.844  0.4773  0.2063 -0.2332
 8950TIP3    H148341   3.361   3.984  14.824 -2.6941  0.9861  0.2269
 8950TIP3    H248342   3.419   3.867  14.899  0.9043  2.8292  0.5540
 8951TIP3   OH248343   6.652   2.237   0.489 -0.2345 -0.6143 -0.7933
 8951TIP3    H148344   6.599   2.157   0.494  0.5564 -1.0772  0.9092
 8951TIP3    H248345   6.621   2.291   0.562 -0.6445  0.6103 -1.8262
 8952TIP3   OH248346   0.447   3.357  15.197 -0.6445 -0.4777 -0.1628
 8952TIP3    H148347   0.415   3.291  15.258  0.8545 -0.5632  0.5677
 8952TIP3    H248348   0.402   3.438  15.223 -0.2442 -0.5789  0.8638
 8953TIP3   OH248349   0.965   4.870   4.857 -0.4148 -0.3893 -0.1712
 8953TIP3    H148350   0.959   4.775   4.864  0.6763 -0.5529 -1.1264
 8953TIP3    H248351   0.957   4.902   4.947  1.4159 -1.5426  0.4553
 8954TIP3   OH248352   3.369   1.536  16.924 -0.2013 -0.3135  0.3393
 8954TIP3    H148353   3.396   1.497  16.841 -2.0634 -0.4364 -0.2423
 8954TIP3    H248354   3.317   1.613  16.898 -0.0191  0.1859  1.4113
 8955TIP3   OH248355   5.935   5.228  13.445  0.1727  0.3484 -0.3063
 8955TIP3    H148356   5.878   5.207  13.372  1.2810  0.0713 -1.1172
 8955TIP3    H248357   5.882   5.211  13.523 -1.0427  0.7224 -1.0331
 8956TIP3   OH248358   5.205   0.206   2.864 -0.4277  0.3732  0.1223
 8956TIP3    H148359   5.283   0.263   2.870 -1.0814  1.2648  0.3911
 8956TIP3    H248360   5.139   0.261   2.822 -1.1866 -0.0818  0.7039
 8957TIP3   OH248361   2.769   4.313  15.700 -0.2060 -0.2446  0.1815
 8957TIP3    H148362   2.860   4.286  15.684  0.1300  0.4975  0.7790
 8957TIP3    H248363   2.740   4.347  15.615  0.6911  1.2094  0.4190
 8958TIP3   OH248364   3.130   3.716  12.665 -0.8356  0.4439  0.2197
 8958TIP3    H148365   3.214   3.692  12.703 -1.0700  2.0951  1.9168
 8958TIP3    H248366   3.065   3.670  12.720 -1.1562  2.4741  1.6557
 8959TIP3   OH248367   1.306   5.316  11.374  0.3750 -0.3298 -0.0658
 8959TIP3    H148368   1.295   5.398  11.326 -2.2238 -0.8712 -0.5640
 8959TIP3    H248369   1.400   5.301  11.376  0.7659  1.5096 -1.9117
 8960TIP3   OH248370   5.252   2.949  17.030  0.0534 -0.4293 -0.1240
 8960TIP3    H148371   5.256   2.912  17.118 -2.1730 -2.7559 -0.8936
 8960TIP3    H248372   5.197   3.027  17.040 -3.2367 -2.5528  0.1732
 8961TIP3   OH248373   6.848   3.409   3.339 -0.1074  0.2072 -0.2367
 8961TIP3    H148374   6.852   3.332   3.281 -0.3909 -0.5601  0.7282
 8961TIP3    H248375   6.851   3.372   3.427  0.4453  1.3593  0.2502
 8962TIP3   OH248376   0.180   3.638   4.596  0.2529  0.0028 -0.3963
 8962TIP3    H148377   0.257   3.642   4.538  0.1491  0.7537 -0.4941
 8962TIP3    H248378   0.149   3.728   4.601 -0.9045 -0.3569 -0.7302
 8963TIP3   OH248379   1.730   4.530  14.874  0.5317  0.1062  0.4301
 8963TIP3    H148380   1.718   4.624  14.888 -1.7126  0.1349 -1.2078
 8963TIP3    H248381   1.770   4.524  14.787  0.9289 -0.4691  0.6460
 8964TIP3   OH248382   2.490   5.023  13.170 -0.5391 -0.3105 -0.0621
 8964TIP3    H148383   2.482   4.984  13.257  0.4243 -1.4713 -0.4688
 8964TIP3    H248384   2.530   4.955  13.117 -1.6755  0.1730 -1.5837
 8965TIP3   OH248385   0.592   5.103  11.322 -0.3722 -0.4506 -0.1768
 8965TIP3    H148386   0.653   5.071  11.255 -2.0109 -1.8705 -1.0587
 8965TIP3    H248387   0.625   5.065  11.404  1.4767  1.0647 -0.1356
 8966TIP3   OH248388   1.663   4.343   6.163 -0.1343  0.4282  0.5572
 8966TIP3    H148389   1.595   4.409   6.148  1.3758  2.2127  1.1000
 8966TIP3    H248390   1.647   4.310   6.251 -0.4000  0.6993  0.6114
 8967TIP3   OH248391   1.216   1.839  14.765 -0.0591  0.7201  0.9007
 8967TIP3    H148392   1.205   1.905  14.697  2.4836  0.0965 -0.2472
 8967TIP3    H248393   1.134   1.840  14.813 -0.9557  3.0647 -0.5111
 8968TIP3   OH248394   1.442   0.238  13.705 -0.5810  0.0279 -0.8419
 8968TIP3    H148395   1.512   0.249  13.769  0.0639 -0.0909 -1.5201
 8968TIP3    H248396   1.444   0.318  13.653 -2.0204  0.7565  0.1373
 8969TIP3   OH248397   5.581   4.369   1.891 -0.6133  0.0625  0.1357
 8969TIP3    H148398   5.633   4.437   1.933  0.7090 -1.8409  1.7176
 8969TIP3    H248399   5.639   4.330   1.826 -2.0105  1.6727 -2.2232
 8970TIP3   OH248400   4.891   6.116  13.868  0.1230  0.1971 -0.6630
 8970TIP3    H148401   4.837   6.158  13.935  0.5311 -0.3930  0.0542
 8970TIP3    H248402   4.852   6.029  13.858 -0.1833  0.4260 -1.4993
 8971TIP3   OH248403   6.319   4.547   0.871 -0.2940  0.0431  0.6033
 8971TIP3    H148404   6.353   4.461   0.894 -0.8169 -0.9814 -2.0593
 8971TIP3    H248405   6.229   4.530   0.841  0.2720  1.1275 -1.9646
 8972TIP3   OH248406   0.775   4.970  16.715 -0.6783 -0.0475 -0.3565
 8972TIP3    H148407   0.848   4.927  16.672  0.0146  0.9415 -0.2056
 8972TIP3    H248408   0.802   4.979  16.807 -1.2202 -0.1718 -0.1760
 8973TIP3   OH248409   3.076   6.053   1.116 -0.1151 -0.1480  0.0295
 8973TIP3    H148410   3.032   6.098   1.044 -1.6960 -0.7395  0.5806
 8973TIP3    H248411   3.129   5.986   1.074  0.4269  0.6948 -0.6666
 8974TIP3   OH248412   3.315   1.160   5.210  0.0658 -0.0345  0.0172
 8974TIP3    H148413   3.258   1.111   5.269 -0.2272  0.5606  0.2348
 8974TIP3    H248414   3.257   1.224   5.167  0.8171  1.6641  1.4098
 8975TIP3   OH248415   6.026   0.561  12.981 -0.5770 -0.2359  0.6445
 8975TIP3    H148416   6.090   0.498  12.947 -0.3413  0.3519 -0.0204
 8975TIP3    H248417   5.954   0.507  13.013 -0.1083 -0.8697  0.6618
 8976TIP3   OH248418   2.252   4.500  16.457  0.4700  0.4518  0.1492
 8976TIP3    H148419   2.190   4.435  16.488  0.6542  0.0243 -0.3746
 8976TIP3    H248420   2.268   4.556  16.533 -0.3486  0.4085  0.3586
 8977TIP3   OH248421   2.405   1.070  12.943  0.0021  0.5172  0.2175
 8977TIP3    H148422   2.375   1.074  12.852  0.3752 -0.0383  0.0634
 8977TIP3    H248423   2.333   1.108  12.994 -0.3913  0.4333 -0.2691
 8978TIP3   OH248424   2.524   5.569  14.958  0.2016 -0.4888 -0.1625
 8978TIP3    H148425   2.439   5.571  15.001  0.7178 -0.3765  0.8890
 8978TIP3    H248426   2.573   5.501  15.005  1.5141  1.1025  0.9184
 8979TIP3   OH248427   5.042   3.397  13.695 -0.3408  0.0108  0.2259
 8979TIP3    H148428   5.100   3.412  13.770  1.2242 -1.3917 -0.6381
 8979TIP3    H248429   4.968   3.456  13.710  0.7675  1.0557  1.9493
 8980TIP3   OH248430   1.722   2.468   0.916  0.1746 -0.0947 -0.3899
 8980TIP3    H148431   1.802   2.522   0.918 -0.0869  0.3242 -0.9613
 8980TIP3    H248432   1.678   2.488   0.999 -0.2270  1.0579 -0.8637
 8981TIP3   OH248433   1.435   4.341   0.975  0.6022 -0.2557 -0.3909
 8981TIP3    H148434   1.484   4.276   0.924  1.7824  0.3539 -0.0519
 8981TIP3    H248435   1.447   4.423   0.927  0.8187  0.1079  0.2822
 8982TIP3   OH248436   0.554   1.217   1.279  0.8680  0.1579  0.6787
 8982TIP3    H148437   0.530   1.309   1.268  1.4531  0.1835 -0.5931
 8982TIP3    H248438   0.500   1.187   1.352 -0.7222  1.0104 -0.0864
 8983TIP3   OH248439   0.565   0.252   3.176 -0.3279  0.2614  0.1473
 8983TIP3    H148440   0.576   0.157   3.178  0.2523  0.3395  2.1941
 8983TIP3    H248441   0.558   0.273   3.083 -0.6243 -1.7915 -0.3343
 8984TIP3   OH248442   6.618   2.769  13.161 -0.2312 -0.2571  0.6976
 8984TIP3    H148443   6.613   2.717  13.080 -1.2993  0.7517  0.0826
 8984TIP3    H248444   6.708   2.756  13.193  0.7683  0.6149 -1.5468
 8985TIP3   OH248445   1.894   5.677  17.042  0.0275  0.3326  0.1290
 8985TIP3    H148446   1.855   5.590  17.033  0.4330 -0.1349  2.3744
 8985TIP3    H248447   1.870   5.705  17.130 -0.9679  2.9836 -0.8812
 8986TIP3   OH248448   1.279   2.107   5.458  0.3998  0.3161  0.0443
 8986TIP3    H148449   1.294   2.129   5.366  1.3686  1.9990  0.5540
 8986TIP3    H248450   1.347   2.043   5.479 -1.5284 -2.2628 -1.0738
 8987TIP3   OH248451   0.012   0.817   5.107  0.7378 -0.2145 -0.2172
 8987TIP3    H148452   0.081   0.882   5.114  0.8184 -0.3151 -0.0751
 8987TIP3    H248453   0.055   0.741   5.067  0.9378 -0.6071  0.7127
 8988TIP3   OH248454   4.040   2.988   3.521  0.0199 -0.2563 -0.3840
 8988TIP3    H148455   4.117   2.932   3.534  0.9464  0.5155 -2.2384
 8988TIP3    H248456   4.006   3.003   3.609  0.3119 -2.8941  0.2550
 8989TIP3   OH248457   0.914   6.176   0.389 -0.4283 -0.4237  0.0113
 8989TIP3    H148458   0.944   6.108   0.449 -1.6132 -0.1956  0.9161
 8989TIP3    H248459   0.991   6.232   0.376  0.1923 -1.1928  0.3116
 8990TIP3   OH248460   1.210   3.431   2.858  0.3451 -0.1422  0.0058
 8990TIP3    H148461   1.209   3.449   2.952 -1.0833  0.7915 -0.1470
 8990TIP3    H248462   1.155   3.500   2.820  0.8005 -0.5685 -1.5038
 8991TIP3   OH248463   4.270   6.357  15.606 -0.2069  0.0207  0.2191
 8991TIP3    H148464   4.181   6.340  15.575 -0.7847  2.2898  0.4583
 8991TIP3    H248465   4.260   6.430  15.668  1.3233 -2.0752  3.2162
 8992TIP3   OH248466   1.305   2.029  10.377 -1.0486  0.3564  0.8778
 8992TIP3    H148467   1.356   1.958  10.415 -0.3879 -0.1957 -0.9506
 8992TIP3    H248468   1.363   2.105  10.380 -0.3583 -0.0898 -0.5067
 8993TIP3   OH248469   5.178   5.820   3.193 -0.0106 -0.0888 -0.1411
 8993TIP3    H148470   5.250   5.877   3.221  0.7578 -1.1614  0.1409
 8993TIP3    H248471   5.126   5.807   3.272  1.0082 -1.4489  0.3640
 8994TIP3   OH248472   3.357   0.237   4.762 -0.8400 -0.1101 -0.2065
 8994TIP3    H148473   3.319   0.274   4.682  1.6169  3.4715  0.0812
 8994TIP3    H248474   3.406   0.161   4.732  1.1276  1.8942 -2.4642
 8995TIP3   OH248475   3.808   4.462  13.196  0.0182  0.7543  0.5063
 8995TIP3    H148476   3.852   4.452  13.280  0.6614 -0.7185  0.0263
 8995TIP3    H248477   3.852   4.399  13.138 -1.3055  0.7755 -0.5713
 8996TIP3   OH248478   5.914   6.427  15.023 -0.5779  0.2259  0.5496
 8996TIP3    H148479   5.879   6.363  14.960 -0.5542  1.5960 -0.8987
 8996TIP3    H248480   5.915   6.510  14.976  1.4604  0.9098  1.6518
 8997TIP3   OH248481   0.392   1.791   2.895 -0.0989  0.7401  0.4889
 8997TIP3    H148482   0.416   1.839   2.816 -1.5766  0.9389  0.1337
 8997TIP3    H248483   0.310   1.831   2.924  0.3986  0.6580  2.1282
 8998TIP3   OH248484   5.438   4.825  16.549 -0.0441  0.0463  0.6886
 8998TIP3    H148485   5.427   4.734  16.522  1.4347  0.7606 -3.0537
 8998TIP3    H248486   5.522   4.826  16.595 -0.0135 -0.4871  0.6516
 8999TIP3   OH248487   3.067   2.882  16.354  0.5526  0.2349 -0.0007
 8999TIP3    H148488   3.132   2.912  16.290  2.1017 -0.2643  1.2681
 8999TIP3    H248489   2.987   2.870  16.303  1.1434  1.8987 -1.4319
 9000TIP3   OH248490   0.671   5.828   4.853 -0.3052 -0.3505 -0.0651
 9000TIP3    H148491   0.676   5.904   4.911  0.3128 -0.6912  0.3339
 9000TIP3    H248492   0.699   5.754   4.907 -1.5178 -0.9832 -0.2544
 9001TIP3   OH248493   0.368   5.062  10.252  0.0089 -0.3912 -0.1290
 9001TIP3    H148494   0.442   5.093  10.303  0.5302  1.1104 -1.7332
 9001TIP3    H248495   0.377   4.966  10.253  0.7312 -0.3397  1.4438
 9002TIP3   OH248496   5.810   1.792  12.300  0.2871  0.0872  0.2356
 9002TIP3    H148497   5.757   1.807  12.222  0.2716 -0.6434  0.0967
 9002TIP3    H248498   5.748   1.761  12.366  0.4233 -0.0549  0.2985
 9003TIP3   OH248499   6.335   0.516  14.039 -0.4801  0.0494  0.3127
 9003TIP3    H148500   6.335   0.517  14.135  0.4963  2.6676  0.3688
 9003TIP3    H248501   6.424   0.491  14.016 -0.8456 -1.0555  0.0391
 9004TIP3   OH248502   5.474   3.215  16.763  0.4531 -0.4197  0.4068
 9004TIP3    H148503   5.525   3.293  16.782  0.4082 -0.1589 -0.4703
 9004TIP3    H248504   5.521   3.144  16.806  1.1767 -0.0841  0.1917
 9005TIP3   OH248505   0.096   5.676  12.978 -1.0387 -0.3563 -1.1650
 9005TIP3    H148506   0.144   5.593  12.976  0.8418  0.5988  0.4646
 9005TIP3    H248507   0.142   5.731  12.915 -1.8647 -0.3098 -1.7447
 9006TIP3   OH248508   5.413   3.473  15.151 -0.2718 -0.0646 -0.2859
 9006TIP3    H148509   5.322   3.462  15.178 -1.1460 -0.1573 -2.9821
 9006TIP3    H248510   5.418   3.563  15.119  1.4955  1.0366  2.6816
 9007TIP3   OH248511   6.721   6.482   1.328 -0.0447 -0.2814  0.1353
 9007TIP3    H148512   6.811   6.488   1.295 -0.0219  0.1662  0.2670
 9007TIP3    H248513   6.727   6.423   1.404 -0.3412 -2.5033 -1.4632
 9008TIP3   OH248514   1.661   3.333   0.842 -0.6713  0.0045 -0.1080
 9008TIP3    H148515   1.733   3.352   0.783  1.1130 -2.3581  1.1305
 9008TIP3    H248516   1.607   3.269   0.794 -1.9949  1.7124 -1.0030
 9009TIP3   OH248517   3.666   5.394   2.861  0.2768  0.4127 -0.0876
 9009TIP3    H148518   3.603   5.349   2.805 -0.2857  0.3838  0.5607
 9009TIP3    H248519   3.742   5.336   2.863 -1.1254 -1.5294  2.2930
 9010TIP3   OH248520   5.467   0.996  13.882  0.2435  0.3779  0.0107
 9010TIP3    H148521   5.484   1.063  13.816  0.2912  0.3057 -0.0487
 9010TIP3    H248522   5.554   0.962  13.905  0.1341 -0.5135 -0.8286
 9011TIP3   OH248523   5.835   4.196   0.040  0.3506 -0.9996 -0.2891
 9011TIP3    H148524   5.781   4.268   0.072  0.5949 -0.6787 -0.5905
 9011TIP3    H248525   5.919   4.208   0.084  0.5478 -0.8102 -0.7109
 9012TIP3   OH248526   2.048   0.158  12.980  0.1970  0.9560  0.0277
 9012TIP3    H148527   2.061   0.220  13.052 -1.7101  0.4166  0.9040
 9012TIP3    H248528   1.957   0.173  12.952  0.1064 -0.5764 -0.5860
 9013TIP3   OH248529   6.477   4.427  11.385  0.1387 -0.8852  0.2523
 9013TIP3    H148530   6.534   4.499  11.413  1.3582 -1.8850  0.4268
 9013TIP3    H248531   6.414   4.469  11.326  1.4391  0.1829 -0.4553
 9014TIP3   OH248532   1.318   2.981   0.379 -0.3529  0.3527  0.2411
 9014TIP3    H148533   1.396   2.937   0.346 -0.5728  1.5144 -1.9980
 9014TIP3    H248534   1.253   2.969   0.311 -1.9481  0.0127  1.7635
 9015TIP3   OH248535   3.743   3.818   0.210 -0.2425 -0.3311 -0.5251
 9015TIP3    H148536   3.830   3.779   0.198  0.1298 -0.0378  0.9943
 9015TIP3    H248537   3.752   3.907   0.177  0.7766  0.4855  1.7295
 9016TIP3   OH248538   0.976   5.736  12.447 -0.6384  0.5494 -0.3831
 9016TIP3    H148539   0.924   5.661  12.418 -1.2980  1.1328 -0.7168
 9016TIP3    H248540   1.036   5.752  12.374  0.0284 -0.1205  0.0012
 9017TIP3   OH248541   0.189   1.919  16.552 -0.1480  0.7794 -0.2656
 9017TIP3    H148542   0.126   1.974  16.599 -0.2257  1.0385 -0.6692
 9017TIP3    H248543   0.136   1.869  16.491 -0.0241  0.5852 -0.2150
 9018TIP3   OH248544   6.806   0.869   3.858  0.5768 -0.2678 -0.1089
 9018TIP3    H148545   6.748   0.829   3.793  1.2738  0.3046 -1.1064
 9018TIP3    H248546   6.751   0.881   3.935 -1.5023  2.7284 -1.8281
 9019TIP3   OH248547   2.832   3.351   0.803 -0.2173 -0.3008  0.3168
 9019TIP3    H148548   2.871   3.375   0.719 -0.1268 -1.0387  0.1370
 9019TIP3    H248549   2.808   3.259   0.792  2.1921 -1.2084  1.9865
 9020TIP3   OH248550   0.003   1.985   4.480  0.1798  0.9399 -0.1327
 9020TIP3    H148551  -0.046   2.034   4.414  0.5565  0.9292 -0.4234
 9020TIP3    H248552   0.063   1.930   4.429  1.7796  2.2725  0.2452
 9021TIP3   OH248553   1.606   1.180   0.787 -0.2724  0.8871 -0.0710
 9021TIP3    H148554   1.554   1.213   0.714  0.2038  1.6545 -0.0735
 9021TIP3    H248555   1.613   1.254   0.847 -1.9691 -0.1615  1.5380
 9022TIP3   OH248556   4.575   2.873  14.344 -0.3608 -0.1398 -0.4807
 9022TIP3    H148557   4.587   2.791  14.392 -2.7127 -1.0558 -1.2989
 9022TIP3    H248558   4.618   2.858  14.260 -0.0764 -0.2222 -0.3210
 9023TIP3   OH248559   3.924   1.079   2.577 -0.8220 -0.4656 -0.2859
 9023TIP3    H148560   3.859   1.079   2.507 -1.4341 -2.0009  0.2519
 9023TIP3    H248561   3.999   1.126   2.540 -1.2185 -1.0416 -1.8807
 9024TIP3   OH248562   2.110   4.426  12.375  0.4632 -0.7517 -0.6372
 9024TIP3    H148563   2.053   4.392  12.306  0.0157 -1.0850 -0.1134
 9024TIP3    H248564   2.169   4.353  12.396  0.1252 -0.8967 -0.1710
 9025TIP3   OH248565   1.679   1.776   2.636  0.0569  0.0892  0.2308
 9025TIP3    H148566   1.736   1.787   2.712 -1.7597  1.2907  1.5206
 9025TIP3    H248567   1.689   1.857   2.587 -0.5952  0.3575  0.5285
 9026TIP3   OH248568   4.321   5.792   2.611  0.7362  0.5470 -0.6897
 9026TIP3    H148569   4.410   5.767   2.583  1.4092  0.5096  1.3402
 9026TIP3    H248570   4.331   5.816   2.703 -1.4070  0.4276 -0.3837
 9027TIP3   OH248571   0.904   6.300  12.548  0.4258  0.3233  0.1874
 9027TIP3    H148572   0.935   6.358  12.618  3.7797 -0.7626 -0.2514
 9027TIP3    H248573   0.893   6.358  12.472  1.9806  0.7290  0.2377
 9028TIP3   OH248574   0.078   5.238  14.603  0.6681  0.3310  0.4467
 9028TIP3    H148575   0.013   5.300  14.635  1.2416  0.4085  1.5034
 9028TIP3    H248576   0.027   5.172  14.556  0.0017  1.2788 -0.1877
 9029TIP3   OH248577   5.524   4.389  11.807  0.0302  0.0802  0.1117
 9029TIP3    H148578   5.467   4.418  11.735 -1.6628  0.0510  1.3755
 9029TIP3    H248579   5.600   4.447  11.803  0.7234 -0.8749 -2.5929
 9030TIP3   OH248580   6.028   0.333   2.322 -0.3111  0.0981 -0.0357
 9030TIP3    H148581   6.093   0.371   2.382 -0.0629  0.3335 -0.4475
 9030TIP3    H248582   6.059   0.243   2.307 -0.1387  0.1727 -0.1386
 9031TIP3   OH248583   2.870   4.705   3.536 -0.3958  0.1516 -0.2171
 9031TIP3    H148584   2.866   4.622   3.488  0.9739  0.8209 -1.5794
 9031TIP3    H248585   2.866   4.772   3.468 -0.5859  1.1973  0.7926
 9032TIP3   OH248586   3.434   5.250  15.478 -0.1084  0.0106  0.4275
 9032TIP3    H148587   3.403   5.327  15.431 -2.1251 -0.4363  0.9141
 9032TIP3    H248588   3.497   5.284  15.541 -0.2561  1.1226 -0.0004
 9033TIP3   OH248589   1.813   0.858   0.255 -0.5335 -0.0923  0.5845
 9033TIP3    H148590   1.882   0.803   0.218 -0.0206  0.5888  0.5121
 9033TIP3    H248591   1.766   0.800   0.316  2.6730  0.4376  3.9084
 9034TIP3   OH248592   4.884   0.849   4.122  0.5355  0.0764 -0.0485
 9034TIP3    H148593   4.809   0.804   4.160 -1.4880  2.2433 -1.2050
 9034TIP3    H248594   4.882   0.825   4.030 -0.6256  2.3754 -0.7053
 9035TIP3   OH248595   5.759   2.977   2.387  0.2130 -0.3454 -0.7077
 9035TIP3    H148596   5.853   2.996   2.380  0.2186  0.9506  1.7520
 9035TIP3    H248597   5.717   3.063   2.381 -0.6460 -0.7020  0.0071
 9036TIP3   OH248598   5.535   4.097   1.974  0.8537  0.4544 -0.6529
 9036TIP3    H148599   5.482   4.055   1.906 -3.0604  0.3966  2.1603
 9036TIP3    H248600   5.548   4.187   1.942  1.4233 -0.2587 -2.5729
 9037TIP3   OH248601   0.839   1.101   0.845  0.5096 -0.1103 -0.2735
 9037TIP3    H148602   0.841   1.197   0.841  0.3976 -0.1486 -2.0539
 9037TIP3    H248603   0.930   1.076   0.857  0.3956  0.2110  1.6905
 9038TIP3   OH248604   3.060   1.715  16.511 -0.2435  0.3331 -0.3495
 9038TIP3    H148605   3.117   1.639  16.524 -1.1213 -0.3045 -0.0337
 9038TIP3    H248606   3.091   1.780  16.574  1.6012  0.9217 -1.7763
 9039TIP3   OH248607   3.608   2.910  12.553 -0.6895  0.2620  0.0189
 9039TIP3    H148608   3.609   2.842  12.620  2.9184 -0.3206 -0.4040
 9039TIP3    H248609   3.622   2.992  12.602 -1.4159  0.2627  0.2304
 9040TIP3   OH248610   3.069   6.473   0.870  0.4513 -0.5484 -0.9188
 9040TIP3    H148611   3.039   6.554   0.828  0.4701  0.4290  0.8297
 9040TIP3    H248612   3.161   6.466   0.845  0.3283 -0.2958 -1.4672
 9041TIP3   OH248613   3.521   0.196   1.452 -0.5208  0.0133  0.2290
 9041TIP3    H148614   3.492   0.112   1.418 -0.2839  0.9076 -2.3552
 9041TIP3    H248615   3.542   0.179   1.544 -2.6028 -2.2100  0.3854
 9042TIP3   OH248616   4.594   5.053   6.179  0.1230  0.4107  0.0231
 9042TIP3    H148617   4.595   4.958   6.192 -1.3119  0.2944 -0.4879
 9042TIP3    H248618   4.686   5.078   6.175  0.5233 -0.9881 -0.0752
 9043TIP3   OH248619   4.183   6.470  11.420 -0.0913 -0.2319  0.3804
 9043TIP3    H148620   4.113   6.422  11.375 -0.6553 -0.2978  1.2990
 9043TIP3    H248621   4.264   6.429  11.390 -0.3681  0.4383 -1.4143
 9044TIP3   OH248622   0.376   2.469  13.113 -0.3616  0.3249  0.2975
 9044TIP3    H148623   0.404   2.379  13.127  2.4587  1.3384  1.8187
 9044TIP3    H248624   0.324   2.491  13.191 -0.1966  0.3343  0.4034
 9045TIP3   OH248625   3.047   6.111  11.109  0.1756 -0.1016  0.0039
 9045TIP3    H148626   2.971   6.084  11.058  0.4553 -0.4500 -0.2319
 9045TIP3    H248627   3.113   6.134  11.044 -0.2209  1.6857  0.1832
 9046TIP3   OH248628   4.881   4.690  15.888  0.2545 -0.1443 -0.2606
 9046TIP3    H148629   4.926   4.773  15.876  0.3168 -0.2393 -0.6910
 9046TIP3    H248630   4.791   4.706  15.858 -0.3050  0.3272  1.5079
 9047TIP3   OH248631   0.908   0.683   4.314  0.1941  0.0503 -0.0009
 9047TIP3    H148632   0.883   0.743   4.244 -0.1507 -0.5347 -0.3834
 9047TIP3    H248633   0.930   0.741   4.388  1.0316  0.6933 -0.7274
 9048TIP3   OH248634   6.549   3.601  13.839 -0.2511 -0.3035  0.2084
 9048TIP3    H148635   6.507   3.550  13.769  1.0133  1.3855 -1.9370
 9048TIP3    H248636   6.493   3.589  13.915 -2.0998 -1.7028 -1.2787
 9049TIP3   OH248637   0.166   3.644  11.885  0.4062 -0.1823 -0.1234
 9049TIP3    H148638   0.115   3.584  11.830  0.4083 -0.3821  0.0930
 9049TIP3    H248639   0.252   3.604  11.892 -0.0667 -0.9984  1.3737
 9050TIP3   OH248640   2.272   2.156   2.155 -0.3196  0.2331  0.4104
 9050TIP3    H148641   2.265   2.094   2.228 -0.3810 -0.6955 -0.3683
 9050TIP3    H248642   2.189   2.148   2.109 -0.1857  0.6415  0.0957
 9051TIP3   OH248643   0.329   3.078  16.382  0.0139  0.8420 -0.0963
 9051TIP3    H148644   0.314   3.115  16.295  3.7461 -0.3250 -1.4161
 9051TIP3    H248645   0.399   3.131  16.419  0.8491 -0.7811  0.7353
 9052TIP3   OH248646   5.661   2.439  17.029  0.1663 -0.0480  0.0050
 9052TIP3    H148647   5.620   2.362  17.067  2.6860 -0.9496  1.0957
 9052TIP3    H248648   5.603   2.511  17.053 -2.0659 -1.4850 -0.7409
 9053TIP3   OH248649   2.265   0.679   4.838 -0.4368  0.3575  0.4033
 9053TIP3    H148650   2.334   0.641   4.784 -0.1205  1.7475 -0.2094
 9053TIP3    H248651   2.312   0.726   4.907 -0.8039  0.3189  0.6856
 9054TIP3   OH248652   1.603   5.822   4.116  0.2054  0.1982 -0.4721
 9054TIP3    H148653   1.573   5.897   4.167  0.0744  0.8013 -1.3969
 9054TIP3    H248654   1.696   5.816   4.133  0.0347 -0.0726  0.4040
 9055TIP3   OH248655   1.346   4.373   5.357  0.5280 -0.0191  0.1718
 9055TIP3    H148656   1.287   4.298   5.363  1.7021 -0.8714  1.4141
 9055TIP3    H248657   1.301   4.443   5.404  0.0463 -0.3370  0.1898
 9056TIP3   OH248658   2.796   1.114   5.015 -0.1297  0.4439  0.0887
 9056TIP3    H148659   2.756   1.200   5.003  0.3520  0.5216 -1.1124
 9056TIP3    H248660   2.723   1.055   5.032 -0.8486  0.5253 -2.3840
 9057TIP3   OH248661   0.985   6.819  13.438 -0.4879 -0.2649  0.4337
 9057TIP3    H148662   1.024   6.897  13.399 -1.5439  0.8059  1.4505
 9057TIP3    H248663   1.029   6.809  13.522 -2.5610  1.1847  1.7684
 9058TIP3   OH248664   0.817   4.246  11.311  0.1526 -0.0416  0.2024
 9058TIP3    H148665   0.723   4.260  11.319  0.0568  0.2755 -1.2830
 9058TIP3    H248666   0.827   4.189  11.234  1.0459 -1.8407  1.5599
 9059TIP3   OH248667   6.216   0.815   6.417 -0.1830  0.0209 -0.3091
 9059TIP3    H148668   6.164   0.759   6.474 -0.0151  0.5158  0.3361
 9059TIP3    H248669   6.193   0.787   6.328 -3.2964  1.7083 -0.1837
 9060TIP3   OH248670   3.410   6.666  15.630  0.4023 -0.5413 -0.0655
 9060TIP3    H148671   3.385   6.734  15.693  2.7954 -0.9313  1.4377
 9060TIP3    H248672   3.500   6.689  15.606  0.3185 -1.7038 -1.6349
 9061TIP3   OH248673   2.943   1.366  14.603  0.0199 -0.0737 -0.0874
 9061TIP3    H148674   3.026   1.350  14.560  1.0658  1.9924  1.0214
 9061TIP3    H248675   2.947   1.457  14.632 -0.6670 -1.1349  4.0617
 9062TIP3   OH248676   4.709   0.614  11.255  0.1720  0.1358 -0.2101
 9062TIP3    H148677   4.802   0.602  11.271  0.4789  0.9217 -1.3095
 9062TIP3    H248678   4.675   0.648  11.338  0.8096 -0.3680  0.2688
 9063TIP3   OH248679   3.049   4.530  15.383 -0.0881  0.0769  0.1046
 9063TIP3    H148680   2.984   4.505  15.317 -1.2374  0.0959  1.1858
 9063TIP3    H248681   3.093   4.606  15.346 -0.0390 -0.4920 -1.0476
 9064TIP3   OH248682   5.877   0.356  16.819  0.8058  0.0573 -0.7263
 9064TIP3    H148683   5.790   0.361  16.778  0.1577  1.0396  0.6857
 9064TIP3    H248684   5.868   0.287  16.884  0.5375  1.2563  0.5605
 9065TIP3   OH248685   1.329   6.654   3.618  0.2870 -0.4930  0.1792
 9065TIP3    H148686   1.378   6.710   3.678  0.1585 -0.6914  0.4727
 9065TIP3    H248687   1.262   6.711   3.582 -0.0665 -0.5405  0.7448
 9066TIP3   OH248688   3.714   0.974  15.689  0.6308 -0.0260  0.5055
 9066TIP3    H148689   3.773   0.956  15.616 -0.5475 -2.2733 -0.0034
 9066TIP3    H248690   3.740   0.911  15.756 -0.7829 -0.7202  0.4549
 9067TIP3   OH248691   4.287   2.483   2.784 -0.0834 -0.3260 -0.1406
 9067TIP3    H148692   4.316   2.556   2.839 -0.9217  1.8084 -2.3249
 9067TIP3    H248693   4.344   2.411   2.809  1.6913  1.4331  1.2762
 9068TIP3   OH248694   1.975   3.483  12.929  0.3548  0.2124  0.2563
 9068TIP3    H148695   1.908   3.467  12.863  0.3089  0.6200  0.2004
 9068TIP3    H248696   2.043   3.533  12.884  1.3054 -1.2757 -0.0191
 9069TIP3   OH248697   4.640   1.368   1.284 -0.4349  0.2711 -0.4962
 9069TIP3    H148698   4.614   1.284   1.321  0.7240  0.1112  0.0118
 9069TIP3    H248699   4.562   1.423   1.291 -0.5203 -0.0355  1.3889
 9070TIP3   OH248700   1.818   5.979  15.584  0.3816  0.1241  0.8797
 9070TIP3    H148701   1.866   5.912  15.535  1.0143  0.2242  1.3451
 9070TIP3    H248702   1.880   6.008  15.651  0.0620  1.0692  0.7773
 9071TIP3   OH248703   2.989   2.694   1.066 -0.0971  0.3463 -0.2081
 9071TIP3    H148704   2.969   2.784   1.042 -1.1030 -0.1703 -1.4413
 9071TIP3    H248705   3.083   2.685   1.053  0.1524  1.4132  0.6915
 9072TIP3   OH248706   3.808   2.404   0.270 -0.8147  0.0268  0.4317
 9072TIP3    H148707   3.716   2.417   0.250 -0.7556 -0.8092 -0.4233
 9072TIP3    H248708   3.817   2.310   0.285  0.3274 -0.3058 -1.9067
 9073TIP3   OH248709   0.355   5.199  13.211  0.1455  0.1438  0.2287
 9073TIP3    H148710   0.372   5.227  13.301  0.1946  0.7036  0.0480
 9073TIP3    H248711   0.276   5.144  13.217  0.8539 -0.8521  0.7827
 9074TIP3   OH248712   0.482   6.495  14.444  0.0873 -0.0622  0.1613
 9074TIP3    H148713   0.467   6.563  14.378  1.1558 -0.1254 -0.1577
 9074TIP3    H248714   0.458   6.537  14.527 -1.4695 -0.0459 -0.2552
 9075TIP3   OH248715   0.404   1.045   5.142  0.3211  0.0649  1.0238
 9075TIP3    H148716   0.406   1.118   5.080 -0.2049 -0.7584  0.0192
 9075TIP3    H248717   0.483   0.995   5.123 -0.8956 -1.3913 -0.5162
 9076TIP3   OH248718   0.875   3.010  11.887 -0.1705 -0.2536 -0.2078
 9076TIP3    H148719   0.886   3.051  11.802  2.3222 -0.5861 -0.1214
 9076TIP3    H248720   0.887   3.082  11.950 -0.1515 -0.3384 -0.1140
 9077TIP3   OH248721   3.822   4.617   2.290 -0.4167 -0.3075 -0.3825
 9077TIP3    H148722   3.734   4.585   2.270 -0.6516  0.9309 -1.4582
 9077TIP3    H248723   3.876   4.586   2.218 -0.2351  0.0122 -0.3850
 9078TIP3   OH248724   1.381   2.063   1.585  0.1833 -0.0731  0.4820
 9078TIP3    H148725   1.334   2.077   1.503  1.7154 -0.4838 -0.5026
 9078TIP3    H248726   1.419   2.149   1.606 -0.2686  0.0495  0.8119
 9079TIP3   OH248727   4.551   1.332   2.898 -0.3685  0.1786  0.1178
 9079TIP3    H148728   4.490   1.366   2.963  1.2406  0.9698  1.2643
 9079TIP3    H248729   4.572   1.407   2.843  0.3288  0.1627  0.3553
 9080TIP3   OH248730   6.609   3.586   0.404 -0.1640  0.2790  0.2231
 9080TIP3    H148731   6.529   3.633   0.380  0.5597  0.7995 -1.3232
 9080TIP3    H248732   6.657   3.648   0.459  1.3376  1.9917 -2.7646
 9081TIP3   OH248733   0.103   2.002   1.447  0.4680  0.3482 -0.2037
 9081TIP3    H148734   0.167   2.042   1.505  0.5439  0.6490 -0.4975
 9081TIP3    H248735   0.064   2.075   1.399  0.0150  0.1527 -0.1372
 9082TIP3   OH248736   6.142   0.136  17.099 -0.2211 -0.6598  0.0686
 9082TIP3    H148737   6.125   0.140  17.193 -1.7720  0.7007 -0.2115
 9082TIP3    H248738   6.226   0.091  17.091  0.8558  0.7800  2.2199
 9083TIP3   OH248739   1.683   3.715  14.189  0.8016  0.3859  0.0019
 9083TIP3    H148740   1.759   3.774  14.192  0.5294  0.6997  1.4298
 9083TIP3    H248741   1.676   3.682  14.279 -1.1554  0.8788  0.0599
 9084TIP3   OH248742   2.603   5.086   0.814  0.0512  0.0634  0.3553
 9084TIP3    H148743   2.590   5.178   0.789 -0.3948  0.0259  0.4497
 9084TIP3    H248744   2.568   5.081   0.903 -0.0784 -0.2422  0.2861
 9085TIP3   OH248745   1.819   3.635   2.220  0.2626 -0.2041 -0.2891
 9085TIP3    H148746   1.741   3.582   2.208  0.3285 -0.6217  0.9157
 9085TIP3    H248747   1.870   3.587   2.286  0.8174  0.8244  0.0490
 9086TIP3   OH248748   6.310   2.739   5.785 -0.0774  0.1807  0.0696
 9086TIP3    H148749   6.360   2.814   5.817  0.9547 -0.6342  0.4066
 9086TIP3    H248750   6.337   2.666   5.840 -2.3028 -0.1290  0.8574
 9087TIP3   OH248751   1.833   5.149   0.557 -0.3309 -0.0076  0.2653
 9087TIP3    H148752   1.771   5.168   0.628 -1.5237 -0.7704 -0.5224
 9087TIP3    H248753   1.837   5.230   0.507  1.0702  0.7683  1.5734
 9088TIP3   OH248754   3.058   6.076   3.132  0.2495 -0.0001 -0.1021
 9088TIP3    H148755   3.053   6.035   3.219 -0.0164 -3.5748 -1.6465
 9088TIP3    H248756   3.124   6.025   3.085  0.2103  1.6752 -2.1167
 9089TIP3   OH248757   4.720   0.517  14.549  0.6617  0.1827 -0.8850
 9089TIP3    H148758   4.767   0.575  14.609  1.6264 -1.1782 -0.2874
 9089TIP3    H248759   4.773   0.517  14.469  1.4023 -0.9042 -0.4111
 9090TIP3   OH248760   5.161   3.707  16.134 -0.3735 -0.0067 -0.5246
 9090TIP3    H148761   5.096   3.777  16.132  0.5457  0.8854  0.2136
 9090TIP3    H248762   5.235   3.744  16.182  0.4960 -1.1668 -0.9374
 9091TIP3   OH248763   5.737   1.112  13.050 -0.1848 -0.3466 -0.2506
 9091TIP3    H148764   5.806   1.110  13.116  0.2848  2.5224 -0.5420
 9091TIP3    H248765   5.782   1.095  12.967  0.0267  0.4625 -0.3127
 9092TIP3   OH248766   1.734   1.158   3.254  0.3839  0.3459 -0.0744
 9092TIP3    H148767   1.729   1.070   3.291  0.3728  0.5335  0.3775
 9092TIP3    H248768   1.777   1.210   3.322  1.0860  0.5226 -0.6498
 9093TIP3   OH248769   0.103   0.231   4.018 -0.0058 -0.1504  0.7600
 9093TIP3    H148770   0.136   0.143   4.035 -1.1289 -0.3546  2.0869
 9093TIP3    H248771   0.130   0.282   4.095 -0.2696  0.3924  0.4995
 9094TIP3   OH248772   2.544   5.709   5.083 -0.1146  0.3575  0.4174
 9094TIP3    H148773   2.507   5.637   5.031  0.7320  0.4368 -0.3102
 9094TIP3    H248774   2.476   5.777   5.080 -1.0983 -0.5390  1.4533
 9095TIP3   OH248775   3.305   4.608  11.940  0.0725  0.1380  0.1614
 9095TIP3    H148776   3.298   4.519  11.976 -3.0866  0.7394  1.3179
 9095TIP3    H248777   3.266   4.664  12.006  0.3219  2.1858 -1.3278
 9096TIP3   OH248778   0.156   4.566  13.075  0.0414 -0.3143 -0.2669
 9096TIP3    H148779   0.072   4.602  13.045  0.4043 -0.0326 -0.9505
 9096TIP3    H248780   0.210   4.644  13.091  1.3805 -0.5143 -3.2891
 9097TIP3   OH248781   2.876   0.985  13.914  0.0842  0.3454 -0.0143
 9097TIP3    H148782   2.918   0.928  13.978 -0.0019  0.1032 -0.1771
 9097TIP3    H248783   2.909   0.957  13.829 -0.1826  0.3434 -0.1188
 9098TIP3   OH248784   4.127   6.413  16.606  0.3752  0.5515 -0.0364
 9098TIP3    H148785   4.107   6.371  16.689  1.6442  2.1433  1.1405
 9098TIP3    H248786   4.094   6.353  16.540 -1.6024 -0.2833  1.6068
 9099TIP3   OH248787   3.355   1.525   3.662  0.6878  0.1434 -0.5193
 9099TIP3    H148788   3.313   1.599   3.706 -2.1655 -0.8616 -1.2888
 9099TIP3    H248789   3.334   1.537   3.570  0.2059 -1.5548 -0.6707
 9100TIP3   OH248790   6.728   6.745   0.753  0.5751 -0.4482  0.1618
 9100TIP3    H148791   6.664   6.700   0.699  1.7340 -1.3076 -0.5441
 9100TIP3    H248792   6.811   6.734   0.706  1.3370  0.1771  1.3073
 9101TIP3   OH248793   2.542   5.348   0.439 -0.5029  0.1664  0.2207
 9101TIP3    H148794   2.539   5.262   0.398  0.0041 -0.3911  1.3325
 9101TIP3    H248795   2.463   5.393   0.407  0.7459  0.4636 -2.8482
 9102TIP3   OH248796   5.669   3.037   1.522  0.2960  0.0526 -0.5486
 9102TIP3    H148797   5.691   3.094   1.448 -0.5237  1.1383  0.0243
 9102TIP3    H248798   5.583   3.067   1.551  1.3360  0.8525  1.9816
 9103TIP3   OH248799   4.147   5.043   3.861  0.2165  0.1687  0.5065
 9103TIP3    H148800   4.115   4.996   3.938 -1.3299  0.2239 -0.0730
 9103TIP3    H248801   4.102   5.128   3.865 -0.2763 -0.0263 -0.7191
 9104TIP3   OH248802   3.310   6.046   3.441 -0.0277  0.3489 -0.0232
 9104TIP3    H148803   3.313   6.016   3.350  0.9223  0.1701  0.0649
 9104TIP3    H248804   3.400   6.040   3.472 -0.4161 -0.0400  1.0816
 9105TIP3   OH248805   5.453   3.213   1.910  0.9708  0.2193  0.5298
 9105TIP3    H148806   5.395   3.181   1.841  0.2921  0.4720  0.9696
 9105TIP3    H248807   5.488   3.295   1.877 -0.4922  1.0966  1.0459
 9106TIP3   OH248808   2.376   4.006   6.052 -0.1023 -0.6734  0.2015
 9106TIP3    H148809   2.320   4.054   6.114 -3.3784 -1.5686 -1.8398
 9106TIP3    H248810   2.393   4.068   5.982  0.8529 -0.6622  0.4294
 9107TIP3   OH248811   3.143   5.596  14.256  0.7192  0.2155 -0.1955
 9107TIP3    H148812   3.156   5.544  14.334 -0.2044  2.7256  1.7794
 9107TIP3    H248813   3.231   5.624  14.230  1.0894 -1.1850 -0.5001
 9108TIP3   OH248814   0.329   5.663  15.377 -0.1682 -0.4080 -0.0783
 9108TIP3    H148815   0.335   5.755  15.404  0.2988 -0.7953  1.2025
 9108TIP3    H248816   0.355   5.613  15.454 -0.1932 -1.6238 -0.8235
 9109TIP3   OH248817   3.858   5.401  12.918 -0.3607  0.2925  0.4285
 9109TIP3    H148818   3.832   5.346  12.844  0.3327  0.0066  0.3825
 9109TIP3    H248819   3.901   5.476  12.878  0.4598 -0.1038  0.5476
 9110TIP3   OH248820   6.360   6.120   1.656 -0.0245  0.0197 -0.6787
 9110TIP3    H148821   6.411   6.146   1.580 -1.0491  0.2683 -1.3057
 9110TIP3    H248822   6.375   6.026   1.665 -0.6257 -0.1985 -1.7810
 9111TIP3   OH248823   3.575   2.217  12.110  0.5352  0.5679  0.5405
 9111TIP3    H148824   3.572   2.124  12.089  0.1542  0.2178  2.0138
 9111TIP3    H248825   3.659   2.230  12.153 -0.2819  0.4060  2.3006
 9112TIP3   OH248826   0.716   3.910  14.937 -0.4344  0.6489 -0.2617
 9112TIP3    H148827   0.801   3.928  14.978 -1.0265 -0.3212  1.4723
 9112TIP3    H248828   0.728   3.824  14.896 -0.4806  0.6565 -0.2905
 9113TIP3   OH248829   4.215   2.316  14.472  0.1857 -0.2735  0.2554
 9113TIP3    H148830   4.260   2.382  14.418  1.1687 -0.2485  1.0806
 9113TIP3    H248831   4.240   2.232  14.433  3.0249 -0.4225  2.1222
 9114TIP3   OH248832   0.630   4.339   3.519 -0.1674  0.3525  0.7285
 9114TIP3    H148833   0.612   4.423   3.560 -1.0231  0.8006 -0.5042
 9114TIP3    H248834   0.640   4.359   3.426  0.5664 -0.7845  0.5365
 9115TIP3   OH248835   2.754   3.055  14.910 -0.8494  0.0840  0.1394
 9115TIP3    H148836   2.706   2.980  14.945  0.8122 -0.3584  1.5976
 9115TIP3    H248837   2.718   3.131  14.955 -1.4249 -0.0231 -0.1380
 9116TIP3   OH248838   2.278   6.604   2.991  0.2360  0.3274  0.3787
 9116TIP3    H148839   2.220   6.641   3.059  0.5360  1.5115  0.0234
 9116TIP3    H248840   2.303   6.680   2.938  2.5773 -0.0366  0.8510
 9117TIP3   OH248841   4.792   0.140   2.981 -0.1928  0.1834 -0.0681
 9117TIP3    H148842   4.786   0.179   3.068 -1.3942 -0.1002 -0.0070
 9117TIP3    H248843   4.776   0.213   2.921 -1.4101  0.0097  0.0194
 9118TIP3   OH248844   4.778   4.807   6.356 -0.3894  0.8138 -0.3134
 9118TIP3    H148845   4.780   4.755   6.436 -0.4381  0.3233 -0.6272
 9118TIP3    H248846   4.686   4.809   6.331 -0.5294  1.9065  0.2419
 9119TIP3   OH248847   0.452   3.354  11.925  1.1561  0.7043  0.2203
 9119TIP3    H148848   0.518   3.381  11.989  0.7355  1.5829  0.2866
 9119TIP3    H248849   0.378   3.326  11.978  0.6944  1.7196  0.1231
 9120TIP3   OH248850   4.995   5.093  11.024  0.0488 -0.3267  0.3400
 9120TIP3    H148851   5.089   5.108  11.017 -0.2241  1.8769  0.7319
 9120TIP3    H248852   4.974   5.036  10.950  1.2498  1.5885 -1.5840
 9121TIP3   OH248853   1.217   1.799  11.214 -0.6003  0.0765 -0.2672
 9121TIP3    H148854   1.180   1.861  11.276  0.7946  0.3772  0.2961
 9121TIP3    H248855   1.147   1.783  11.151 -1.1739  1.7826 -0.1049
 9122TIP3   OH248856   1.215   4.074  10.812  0.2740  0.5251 -0.4498
 9122TIP3    H148857   1.166   4.133  10.869  1.9006  1.8234 -0.3404
 9122TIP3    H248858   1.252   4.009  10.871 -0.5821  0.0291 -0.4355
 9123TIP3   OH248859   0.937   3.184   0.914  0.2627  0.6509 -0.0265
 9123TIP3    H148860   0.887   3.222   0.986 -0.0246  1.1554 -0.4873
 9123TIP3    H248861   1.021   3.161   0.952  1.2698  3.6849 -0.1706
 9124TIP3   OH248862   6.196   3.075   5.046 -0.7572 -0.4903  0.3247
 9124TIP3    H148863   6.105   3.060   5.020 -0.4952  0.3503 -1.2379
 9124TIP3    H248864   6.246   3.059   4.966  0.1230  2.2038  0.2328
 9125TIP3   OH248865   1.231   4.486  13.864 -0.5145 -0.2364  0.0119
 9125TIP3    H148866   1.200   4.548  13.929 -0.5679 -0.9309  0.6660
 9125TIP3    H248867   1.297   4.433  13.910 -0.7750 -0.9375 -0.3988
 9126TIP3   OH248868   3.741   6.376   3.378 -1.0831 -0.4473  0.1394
 9126TIP3    H148869   3.834   6.392   3.394 -1.5055  0.1275  2.2798
 9126TIP3    H248870   3.704   6.464   3.365 -1.3349 -0.6778 -0.7830
 9127TIP3   OH248871   6.442   1.542   3.117  0.4834  0.1499  0.3405
 9127TIP3    H148872   6.470   1.498   3.198  1.1160  1.4340  0.8435
 9127TIP3    H248873   6.346   1.545   3.124  0.4304 -1.0376  0.3367
 9128TIP3   OH248874   3.407   3.411  12.795  0.5577  0.1456  0.5674
 9128TIP3    H148875   3.395   3.505  12.805 -0.3534  0.0294  0.6043
 9128TIP3    H248876   3.423   3.399  12.701  1.3797  0.4029  0.6660
 9129TIP3   OH248877   6.418   3.221   3.481  0.3288 -0.1971 -0.0096
 9129TIP3    H148878   6.391   3.310   3.503 -0.7988 -0.7024  0.7123
 9129TIP3    H248879   6.401   3.213   3.387  1.3671  0.6451 -0.3007
 9130TIP3   OH248880   6.302   5.019  14.435 -0.3690  0.0038  0.1022
 9130TIP3    H148881   6.224   5.058  14.473  1.2322  2.2068  1.3488
 9130TIP3    H248882   6.347   5.091  14.392  1.3756 -1.0145  0.1042
 9131TIP3   OH248883   2.484   5.960   0.331 -0.4912  0.4892  0.2860
 9131TIP3    H148884   2.545   5.892   0.300 -1.5446 -0.3169 -0.0572
 9131TIP3    H248885   2.397   5.926   0.308 -1.1465  1.0702  1.8295
 9132TIP3   OH248886   4.132   6.195   0.132  0.1761  0.5077  0.1949
 9132TIP3    H148887   4.064   6.129   0.124 -0.3435  1.0639 -0.0561
 9132TIP3    H248888   4.187   6.165   0.204  0.0838 -0.3128 -0.0656
 9133TIP3   OH248889   0.929   6.757  16.932  0.7988 -0.7958  0.5547
 9133TIP3    H148890   1.000   6.693  16.921  1.0758 -0.3724 -0.1541
 9133TIP3    H248891   0.953   6.807  17.010  0.2923 -1.9098  1.4666
 9134TIP3   OH248892   1.944   4.978   0.054  0.1491  0.1631  0.2637
 9134TIP3    H148893   2.021   4.934   0.090  0.3768  1.4487  1.4103
 9134TIP3    H248894   1.906   5.025   0.128 -0.8725  0.7774 -0.6251
 9135TIP3   OH248895   4.345   0.621   0.532 -0.2415  0.2420  0.3003
 9135TIP3    H148896   4.264   0.572   0.545 -0.2436 -0.8992 -3.0005
 9135TIP3    H248897   4.413   0.569   0.573 -0.5262 -1.6325 -1.4649
 9136TIP3   OH248898   2.214   6.064  13.461 -0.2942  0.4346  0.3799
 9136TIP3    H148899   2.175   6.147  13.489 -1.1391  0.0891  0.2544
 9136TIP3    H248900   2.192   6.057  13.368 -2.3926 -1.0741  0.9202
 9137TIP3   OH248901   3.818   5.723  16.311 -0.4898  0.4052 -0.0950
 9137TIP3    H148902   3.723   5.727  16.303 -0.3696  1.6891 -1.2375
 9137TIP3    H248903   3.842   5.804  16.356  0.1534  0.6661 -0.8889
 9138TIP3   OH248904   0.633   0.560  14.365 -0.0568 -0.2164 -0.5514
 9138TIP3    H148905   0.629   0.512  14.283 -2.5788 -2.2403  0.5992
 9138TIP3    H248906   0.544   0.593  14.378  0.0423 -0.6712  1.7167
 9139TIP3   OH248907   5.680   2.472   1.634  0.2739  0.8676  0.4886
 9139TIP3    H148908   5.708   2.560   1.660  0.2441  0.6655  1.2220
 9139TIP3    H248909   5.602   2.455   1.686 -0.0051  0.5976 -0.0165
 9140TIP3   OH248910   0.340   3.437  15.954  0.2813  0.1324  0.4308
 9140TIP3    H148911   0.358   3.526  15.923 -0.6969 -0.4811 -2.2498
 9140TIP3    H248912   0.308   3.391  15.876  3.3467 -3.3791  0.9580
 9141TIP3   OH248913   3.150   2.840  11.796  0.2909  0.0806 -0.0035
 9141TIP3    H148914   3.198   2.920  11.775  0.6106 -0.3142 -0.8415
 9141TIP3    H248915   3.211   2.769  11.775 -0.8503 -0.4513 -1.7032
 9142TIP3   OH248916   0.648   6.642   4.315  0.5525  0.0255 -0.3373
 9142TIP3    H148917   0.667   6.736   4.308 -2.3172  0.7373 -0.0180
 9142TIP3    H248918   0.697   6.613   4.392  0.3139  1.6318  0.4543
 9143TIP3   OH248919   1.360   2.560   3.186 -0.1578 -0.0166 -0.0492
 9143TIP3    H148920   1.361   2.467   3.160 -0.8584  0.1367 -0.6441
 9143TIP3    H248921   1.446   2.574   3.226 -0.6073 -1.3174  1.4669
 9144TIP3   OH248922   2.959   0.506  15.733  0.3579 -0.0691  0.1456
 9144TIP3    H148923   2.998   0.545  15.655  0.1340 -0.5456 -0.2090
 9144TIP3    H248924   3.033   0.477  15.785  0.4961 -1.6424 -0.8658
 9145TIP3   OH248925   3.110   6.194   4.856 -0.4835  0.2485  0.4108
 9145TIP3    H148926   3.201   6.163   4.856 -0.3757  0.3496 -1.8805
 9145TIP3    H248927   3.112   6.273   4.801 -2.1880 -0.6945 -1.1384
 9146TIP3   OH248928   6.553   5.375  13.897 -0.6499 -0.2429 -0.5090
 9146TIP3    H148929   6.619   5.347  13.834 -0.5068  1.8813 -1.3876
 9146TIP3    H248930   6.470   5.350  13.858 -0.4849 -0.5469 -0.6665
 9147TIP3   OH248931   4.813   5.278   4.767 -0.1071  0.3489  0.4755
 9147TIP3    H148932   4.835   5.301   4.858 -2.2575  1.7281  0.7288
 9147TIP3    H248933   4.754   5.204   4.774 -0.6039  0.7161  0.2475
 9148TIP3   OH248934   4.162   5.694  11.806  0.2094  0.3567  0.1218
 9148TIP3    H148935   4.095   5.721  11.744 -1.2220  0.4142  1.6283
 9148TIP3    H248936   4.240   5.743  11.780 -0.7359  1.4485 -0.7650
 9149TIP3   OH248937   6.714   6.038  13.246  0.0177  0.0357  0.3769
 9149TIP3    H148938   6.698   6.120  13.291  1.6189 -1.1803  3.4295
 9149TIP3    H248939   6.810   6.030  13.243 -0.0813 -1.8521  0.5151
 9150TIP3   OH248940   0.145   5.192   1.363  0.4016  0.0389 -0.0134
 9150TIP3    H148941   0.093   5.252   1.310  1.1497  0.2268 -0.5533
 9150TIP3    H248942   0.145   5.229   1.451  0.3427  0.4952 -0.2074
 9151TIP3   OH248943   2.682   3.915  14.630  0.2439  0.2798 -0.0460
 9151TIP3    H148944   2.591   3.906  14.600  0.6480 -0.8479 -1.0146
 9151TIP3    H248945   2.712   3.825  14.642  0.6420  0.6591  2.2214
 9152TIP3   OH248946   1.413   3.237   3.963  0.0665 -0.0741  0.1875
 9152TIP3    H148947   1.467   3.285   4.025  0.9942 -3.0827  1.9490
 9152TIP3    H248948   1.473   3.207   3.895  0.7696 -3.1340  1.9697
 9153TIP3   OH248949   1.780   2.270  14.020 -0.0142  0.5469  0.2364
 9153TIP3    H148950   1.856   2.212  14.014  1.4064  2.4428 -1.5967
 9153TIP3    H248951   1.777   2.296  14.112 -1.6789 -3.4573  1.5463
 9154TIP3   OH248952   2.015   0.445   3.160 -0.1040 -0.0993 -0.0757
 9154TIP3    H148953   2.056   0.498   3.092  1.1470  0.1024  0.8111
 9154TIP3    H248954   1.929   0.483   3.172 -0.7266 -0.6976 -2.1783
 9155TIP3   OH248955   3.184   3.695   4.313 -0.4192 -0.2087 -0.4039
 9155TIP3    H148956   3.217   3.741   4.236  1.3047 -3.5808 -1.8538
 9155TIP3    H248957   3.261   3.682   4.369 -0.6687 -1.8777 -0.3910
 9156TIP3   OH248958   5.116   5.659   3.653  0.1941  0.0232  0.5028
 9156TIP3    H148959   5.182   5.717   3.616 -0.9105  1.3864  0.5856
 9156TIP3    H248960   5.141   5.650   3.745  2.2126 -2.3351 -0.1744
 9157TIP3   OH248961   5.206   5.938  15.038 -0.1299 -0.1038  0.1843
 9157TIP3    H148962   5.206   5.968  14.947  0.9879  0.8356  0.4660
 9157TIP3    H248963   5.241   5.849  15.034 -1.3880 -0.5920 -0.4287
 9158TIP3   OH248964   4.003   3.059  15.774 -0.1876  0.4493 -0.2951
 9158TIP3    H148965   3.936   3.006  15.818  0.5081 -0.7648 -0.6545
 9158TIP3    H248966   4.071   2.996  15.751  0.5593  1.4810 -0.9522
 9159TIP3   OH248967   4.847   1.198   2.352  0.3681  0.1092 -0.2260
 9159TIP3    H148968   4.929   1.247   2.344  0.1349  0.4559 -0.5155
 9159TIP3    H248969   4.874   1.111   2.381  0.7754  0.4791  0.5662
 9160TIP3   OH248970   0.458   3.006  13.645 -0.2382  0.4548  0.1039
 9160TIP3    H148971   0.488   3.096  13.657 -0.4767  0.3928  1.2784
 9160TIP3    H248972   0.393   2.993  13.714  1.3800 -1.3045  1.3932
 9161TIP3   OH248973   4.520   6.392   2.793 -0.5824  0.2998  0.0101
 9161TIP3    H148974   4.488   6.478   2.818  3.6612  2.1692 -0.1832
 9161TIP3    H248975   4.546   6.402   2.701 -0.1583 -1.2863 -0.0790
 9162TIP3   OH248976   0.318   3.507   2.764  0.7719 -0.1359  0.1569
 9162TIP3    H148977   0.233   3.510   2.807  0.6321  0.2758 -0.1428
 9162TIP3    H248978   0.330   3.595   2.729  2.5522  0.7084  2.5611
 9163TIP3   OH248979   2.100   4.901   1.227 -0.6355 -0.0754  0.1911
 9163TIP3    H148980   2.086   4.941   1.141 -1.6158 -1.4415 -0.3225
 9163TIP3    H248981   2.165   4.956   1.269  0.1119  0.4337 -1.5631
 9164TIP3   OH248982   4.040   6.266  10.807 -0.3979 -0.0513  0.1049
 9164TIP3    H148983   4.102   6.282  10.736  0.1510  1.9035  0.9666
 9164TIP3    H248984   3.968   6.218  10.766  0.3072  0.2480 -1.5620
 9165TIP3   OH248985   4.633   1.163   4.159 -0.0338 -0.5459 -0.5149
 9165TIP3    H148986   4.592   1.249   4.170 -2.0173 -1.3433 -1.2148
 9165TIP3    H248987   4.717   1.170   4.203 -0.4249  1.5609 -0.0297
 9166TIP3   OH248988   6.183   5.897   2.119 -0.0317  0.1688 -0.1479
 9166TIP3    H148989   6.122   5.904   2.046  0.0139  0.3793 -0.1667
 9166TIP3    H248990   6.204   5.803   2.124 -1.8763 -0.2363  1.1130
 9167TIP3   OH248991   6.134   6.028   5.280  0.6700 -0.0603  0.1100
 9167TIP3    H148992   6.111   6.055   5.369  2.5381 -1.4049  1.0829
 9167TIP3    H248993   6.181   5.945   5.292 -0.2324 -1.0050 -2.2717
 9168TIP3   OH248994   4.209   6.611  14.771  0.2486  0.7630 -0.5641
 9168TIP3    H148995   4.137   6.551  14.748  0.5475  0.5924 -1.0605
 9168TIP3    H248996   4.261   6.562  14.835  0.2814  0.6383 -0.6856
 9169TIP3   OH248997   0.764   2.626  12.487 -0.0522 -0.4357  0.3797
 9169TIP3    H148998   0.754   2.596  12.577 -0.2956 -0.1522  0.4462
 9169TIP3    H248999   0.859   2.631  12.474 -0.0167  0.2734  0.8698
 9170TIP3   OH249000   3.306   3.154  16.384  0.3972 -0.1193  0.0947
 9170TIP3    H149001   3.400   3.169  16.385  0.3589  0.9039 -2.5719
 9170TIP3    H249002   3.288   3.119  16.296 -1.8793  1.2924 -0.0932
 9171TIP3   OH249003   3.852   4.047   2.673 -0.1092  0.0491 -0.2458
 9171TIP3    H149004   3.788   3.976   2.665  1.6141 -1.4468 -1.8609
 9171TIP3    H249005   3.857   4.086   2.586  0.8791  0.3831 -0.0628
 9172TIP3   OH249006   0.921   2.883   6.540  0.4632  0.0370  0.1446
 9172TIP3    H149007   0.946   2.893   6.632  0.5918  1.2913 -0.0122
 9172TIP3    H249008   0.840   2.933   6.532  0.7952  0.4772 -0.5643
 9173TIP3   OH249009   0.350   3.077   1.807 -0.1671  0.1619 -0.4453
 9173TIP3    H149010   0.440   3.088   1.837 -0.7664  0.0173  1.4931
 9173TIP3    H249011   0.344   3.132   1.729  1.1298  1.5260  0.3767
 9174TIP3   OH249012   2.458   2.608   3.725  0.1255 -0.4160 -0.4150
 9174TIP3    H149013   2.462   2.576   3.815 -0.3505  0.9235  0.1082
 9174TIP3    H249014   2.423   2.697   3.733  1.3411  0.2272 -1.8043
 9175TIP3   OH249015   1.784   1.307  15.132  0.2713 -0.2348 -0.3095
 9175TIP3    H149016   1.857   1.368  15.146  2.1445 -2.4421  0.3364
 9175TIP3    H249017   1.806   1.263  15.050  1.5626 -3.2073  1.4636
 9176TIP3   OH249018   6.629   3.051  16.944  0.4552  0.2345  0.3435
 9176TIP3    H149019   6.624   3.132  16.892 -1.6276  0.6597  1.0930
 9176TIP3    H249020   6.594   2.984  16.886  1.5327 -0.0209 -0.0329
 9177TIP3   OH249021   5.725   3.385   0.251 -0.4610 -0.0765  0.1542
 9177TIP3    H149022   5.704   3.422   0.336  0.2943  0.1902  0.2347
 9177TIP3    H249023   5.666   3.429   0.190 -1.6651 -0.9553  0.6588
 9178TIP3   OH249024   0.042   4.915  13.791  0.3779 -0.1622 -0.0567
 9178TIP3    H149025   0.068   4.823  13.789  0.7595 -0.0469 -1.8000
 9178TIP3    H249026   0.084   4.954  13.714  0.2862  1.4934  0.6768
 9179TIP3   OH249027   1.222   4.992  11.403 -0.1789  0.9066 -0.9008
 9179TIP3    H149028   1.239   5.077  11.444  0.9476  0.3470 -0.1612
 9179TIP3    H249029   1.308   4.960  11.377 -0.1201 -1.3212  1.5657
 9180TIP3   OH249030   4.695   0.095   3.854 -0.3540  0.6185  0.2997
 9180TIP3    H149031   4.790   0.108   3.852 -0.2065 -0.1415  1.4890
 9180TIP3    H249032   4.662   0.151   3.784  0.9753  0.8441 -0.1829
 9181TIP3   OH249033   3.877   2.162  12.259 -0.0517 -0.4114 -0.6392
 9181TIP3    H149034   3.956   2.146  12.311 -0.3269 -0.3388 -0.1956
 9181TIP3    H249035   3.907   2.220  12.188  0.1643  0.1489 -0.1045
 9182TIP3   OH249036   0.396   6.377   4.738  0.0234 -0.5302 -0.0685
 9182TIP3    H149037   0.359   6.375   4.649  1.0424 -0.8252 -0.5047
 9182TIP3    H249038   0.410   6.285   4.761 -0.6696 -0.4779  0.6001
 9183TIP3   OH249039   2.893   6.698  11.327 -0.2213 -0.1361  0.2043
 9183TIP3    H149040   2.976   6.683  11.282  0.5420 -0.7782  1.7379
 9183TIP3    H249041   2.827   6.661  11.269  0.5667  0.2710 -0.9865
 9184TIP3   OH249042   5.597   2.549   2.525 -0.1688 -0.0248  0.1943
 9184TIP3    H149043   5.510   2.588   2.538  0.2081  1.5319 -1.5451
 9184TIP3    H249044   5.658   2.621   2.542  0.6698 -0.4679 -0.8219
 9185TIP3   OH249045   3.525   0.319   2.367 -0.6419  1.0340  0.1057
 9185TIP3    H149046   3.459   0.265   2.325 -1.2855  1.7157  0.2279
 9185TIP3    H249047   3.523   0.294   2.459 -2.7393  2.9871  0.6815
 9186TIP3   OH249048   1.601   1.115  16.849 -0.1311  0.4956  0.2437
 9186TIP3    H149049   1.608   1.146  16.759  1.4904 -3.4578 -1.2055
 9186TIP3    H249050   1.689   1.124  16.884  0.1154 -1.1449  0.1486
 9187TIP3   OH249051   4.741   5.790  15.231  0.1553 -0.1990  0.2480
 9187TIP3    H149052   4.782   5.704  15.220  0.8427  0.1823 -0.2251
 9187TIP3    H249053   4.771   5.841  15.156 -0.1501  0.4970  0.5885
 9188TIP3   OH249054   2.272   2.734  15.319 -0.1746 -0.1738  0.4146
 9188TIP3    H149055   2.208   2.670  15.347 -0.3036  0.1793  0.9328
 9188TIP3    H249056   2.301   2.703  15.233 -1.0543 -0.3194  0.1670
 9189TIP3   OH249057   5.650   5.465   2.861 -0.4018 -0.1564  0.9108
 9189TIP3    H149058   5.682   5.432   2.945 -0.1005 -0.7562  0.5703
 9189TIP3    H249059   5.727   5.463   2.803 -0.8062 -0.6420  0.3707
 9190TIP3   OH249060   0.207   5.684  15.117 -0.4290  0.5765 -0.2120
 9190TIP3    H149061   0.278   5.684  15.180 -0.1899  1.2195 -0.4708
 9190TIP3    H249062   0.131   5.718  15.166 -0.6972 -0.5559  0.1958
 9191TIP3   OH249063   3.486   3.763  11.496 -0.1602  0.1969 -0.5242
 9191TIP3    H149064   3.391   3.771  11.485 -0.5701 -1.6920  1.0672
 9191TIP3    H249065   3.504   3.809  11.578  0.0061 -0.8255  0.0321
 9192TIP3   OH249066   3.493   0.659   5.326  0.4009  0.6580  0.0498
 9192TIP3    H149067   3.551   0.628   5.256  2.7270  0.7229  1.8127
 9192TIP3    H249068   3.499   0.754   5.321 -2.0559  0.8240 -1.6257
 9193TIP3   OH249069   3.939   0.897   1.706 -0.0472 -0.1987  0.0310
 9193TIP3    H149070   3.938   0.993   1.715 -1.1456 -0.2708  0.9085
 9193TIP3    H249071   3.873   0.878   1.640 -1.1356 -0.4387  1.1542
 9194TIP3   OH249072   3.439   2.899   2.294 -0.3809 -0.4362  0.1555
 9194TIP3    H149073   3.446   2.823   2.351 -0.0095 -0.2702  0.3388
 9194TIP3    H249074   3.352   2.892   2.254 -0.0001 -1.4363 -0.5327
 9195TIP3   OH249075   1.468   1.906   0.479 -0.3902  0.0775  0.3602
 9195TIP3    H149076   1.483   1.937   0.568 -1.5997  1.8897 -0.0243
 9195TIP3    H249077   1.549   1.860   0.456  0.0905 -0.0824  2.2248
 9196TIP3   OH249078   2.859   6.302   3.147 -0.1142  1.1766  0.3340
 9196TIP3    H149079   2.768   6.277   3.136  0.1842  0.7257 -1.6954
 9196TIP3    H249080   2.903   6.221   3.175 -0.4331  1.5812  2.0545
 9197TIP3   OH249081   0.212   2.493  12.880  0.1099  0.1000 -0.3072
 9197TIP3    H149082   0.268   2.463  12.952 -0.6104  0.5631  0.4685
 9197TIP3    H249083   0.216   2.422  12.816 -0.2353 -0.9022  0.7501
 9198TIP3   OH249084   2.302   1.694  12.947 -0.0130  0.0573 -0.7973
 9198TIP3    H149085   2.383   1.691  12.896  0.5578  0.8941  0.0195
 9198TIP3    H249086   2.318   1.636  13.022  0.3362  1.1807  0.0307
 9199TIP3   OH249087   2.301   4.728   4.208 -0.2958  0.4871  0.0923
 9199TIP3    H149088   2.261   4.709   4.292 -0.9972  2.5405  0.2880
 9199TIP3    H249089   2.266   4.663   4.148 -0.3140 -0.5730  1.2329
 9200TIP3   OH249090   5.563   2.260   1.484  0.3127  0.0062  0.0170
 9200TIP3    H149091   5.605   2.323   1.542  1.8991  0.1966 -1.2797
 9200TIP3    H249092   5.476   2.298   1.467  0.1880  0.4188  1.4667
 9201TIP3   OH249093   0.578   6.314  11.783 -0.2771  0.0996  0.6375
 9201TIP3    H149094   0.554   6.277  11.697  0.4260 -1.2297  0.9875
 9201TIP3    H249095   0.514   6.276  11.843  0.7152 -0.9177  1.0706
 9202TIP3   OH249096   2.506   6.247   1.963 -0.4528 -0.3689  0.4213
 9202TIP3    H149097   2.482   6.155   1.955 -0.4397 -0.3435  0.0807
 9202TIP3    H249098   2.521   6.276   1.873 -1.0352  0.1192  0.4773
 9203TIP3   OH249099   6.240   4.700   1.222  0.6689 -0.0668 -0.1469
 9203TIP3    H149100   6.249   4.613   1.263  1.2847  0.0589 -0.0036
 9203TIP3    H249101   6.177   4.687   1.152 -0.4544 -0.2821  0.8706
 9204TIP3   OH249102   3.153   1.381   5.124 -0.2010 -0.3578 -0.2060
 9204TIP3    H149103   3.150   1.406   5.031  1.2587 -3.1199 -1.1022
 9204TIP3    H249104   3.066   1.347   5.143 -0.7894  1.0649 -0.2597
 9205TIP3   OH249105   4.099   3.489   2.133 -0.4440  0.3469  0.0140
 9205TIP3    H149106   4.036   3.500   2.061 -0.1275 -0.4830 -0.4025
 9205TIP3    H249107   4.084   3.565   2.190 -1.4920  0.4083 -0.3248
 9206TIP3   OH249108   5.006   2.218   2.625  0.3619  0.0635 -0.4456
 9206TIP3    H149109   5.050   2.235   2.542  1.5778 -1.7342 -0.2261
 9206TIP3    H249110   4.917   2.194   2.601  0.5769 -0.0030 -1.1974
 9207TIP3   OH249111   2.492   4.925   0.050  0.0246 -0.2297 -0.0339
 9207TIP3    H149112   2.464   4.897  -0.037 -3.2706 -0.3762  0.9535
 9207TIP3    H249113   2.489   4.845   0.102 -0.1650  0.2434  0.6888
 9208TIP3   OH249114   0.551   2.650   5.577 -1.0712 -0.1853 -0.5522
 9208TIP3    H149115   0.476   2.684   5.529 -0.9563  0.4917 -0.2653
 9208TIP3    H249116   0.530   2.666   5.669 -0.6111 -0.0671 -0.4664
 9209TIP3   OH249117   6.032   0.276  12.367 -0.5312 -0.3242  0.0313
 9209TIP3    H149118   6.017   0.183  12.387  1.0477 -0.7588 -0.6687
 9209TIP3    H249119   6.074   0.311  12.446 -0.8955 -0.2376  0.1945
 9210TIP3   OH249120   1.154   6.532  16.207 -0.3606  0.0979  0.4845
 9210TIP3    H149121   1.149   6.602  16.142  0.9972  0.2542  0.5183
 9210TIP3    H249122   1.239   6.490  16.190 -1.2842 -1.7589  0.2476
 9211TIP3   OH249123   2.614   2.767  12.846  0.0180  0.1817  0.0874
 9211TIP3    H149124   2.671   2.844  12.847  2.2271 -1.1854 -3.3407
 9211TIP3    H249125   2.671   2.694  12.871 -1.6697 -0.6178  1.8633
 9212TIP3   OH249126   2.713   5.017   2.983  0.4072  0.1746 -0.3260
 9212TIP3    H149127   2.728   5.039   2.891  0.1420 -3.0348 -1.2638
 9212TIP3    H249128   2.635   5.067   3.008 -1.3237 -1.0892 -2.8171
 9213TIP3   OH249129   0.725   5.443  12.591 -0.2166  0.2699 -0.1308
 9213TIP3    H149130   0.746   5.352  12.572  0.8377  0.1280  1.4836
 9213TIP3    H249131   0.655   5.438  12.657 -2.2188  0.7012 -2.1216
 9214TIP3   OH249132   5.873   3.075  12.245  0.3570  0.5109 -0.2251
 9214TIP3    H149133   5.930   3.068  12.168 -0.4655  1.4974 -0.9654
 9214TIP3    H249134   5.909   3.148  12.295  0.1738  0.6840 -0.3390
 9215TIP3   OH249135   5.008   5.617   4.917 -0.1825 -0.4111 -0.1596
 9215TIP3    H149136   5.015   5.698   4.967  0.4955 -1.2596  1.1694
 9215TIP3    H249137   5.022   5.644   4.826  4.4655  0.4815  0.5694
 9216TIP3   OH249138   6.359   5.904  12.086  0.1182 -0.2775  0.0374
 9216TIP3    H149139   6.422   5.833  12.092 -0.2696 -0.6545 -0.2754
 9216TIP3    H249140   6.360   5.944  12.173 -2.7411 -3.3481  1.7105
 9217TIP3   OH249141   1.369   1.804  10.462  0.4079 -0.2860 -0.3033
 9217TIP3    H149142   1.325   1.747  10.399  0.6690  0.1808 -0.9140
 9217TIP3    H249143   1.348   1.765  10.547  2.3672 -2.6300 -0.7713
 9218TIP3   OH249144   3.952   3.130   2.901 -0.5078 -0.2478  0.2192
 9218TIP3    H149145   3.875   3.092   2.860 -0.1898  0.8570 -1.5112
 9218TIP3    H249146   3.918   3.198   2.959 -0.8658 -0.3409  0.1190
 9219TIP3   OH249147   3.854   3.279  16.362  0.2371  0.0184 -0.7595
 9219TIP3    H149148   3.874   3.328  16.283  1.7182  0.2560 -0.2585
 9219TIP3    H249149   3.915   3.312  16.428 -0.9164 -0.2093  0.4804
 9220TIP3   OH249150   4.979   2.313   0.945 -0.4836  0.7229  0.3811
 9220TIP3    H149151   4.988   2.279   1.034  1.0930  1.5116  0.5616
 9220TIP3    H249152   4.885   2.316   0.930 -0.7517 -0.6408  1.5324
 9221TIP3   OH249153   2.296   2.712  10.918  0.1381  0.3288 -0.1653
 9221TIP3    H149154   2.283   2.807  10.917 -0.0020  0.3144 -0.9600
 9221TIP3    H249155   2.218   2.677  10.875 -0.5756 -0.2695  1.5647
 9222TIP3   OH249156   0.685   3.423   1.300 -0.2053 -0.0698  0.1751
 9222TIP3    H149157   0.759   3.452   1.353  2.6643 -3.3929 -1.6393
 9222TIP3    H249158   0.637   3.362   1.356  0.7529 -0.8683  0.1484
 9223TIP3   OH249159   1.907   0.656  13.219 -0.1734  0.3791 -0.1812
 9223TIP3    H149160   1.966   0.726  13.248  0.8632 -0.6783  0.2980
 9223TIP3    H249161   1.850   0.699  13.155  1.3389  1.3576 -0.9297
 9224TIP3   OH249162   3.357   2.184  16.101 -0.8129  0.1941  0.0473
 9224TIP3    H149163   3.431   2.215  16.153 -0.7261 -0.4957  0.3403
 9224TIP3    H249164   3.344   2.094  16.130 -0.2988 -0.4499 -1.6558
 9225TIP3   OH249165   6.386   4.134  16.023  0.1887  0.2051 -0.1731
 9225TIP3    H149166   6.476   4.101  16.022  0.4403  0.8814 -0.2645
 9225TIP3    H249167   6.373   4.165  16.113  0.7163  1.8755 -0.6329
 9226TIP3   OH249168   4.440   2.836  13.880  0.4562  0.0194 -0.0096
 9226TIP3    H149169   4.505   2.851  13.811  0.0068 -0.8556 -0.6538
 9226TIP3    H249170   4.438   2.741  13.890 -0.7680  0.0252 -0.0591
 9227TIP3   OH249171   5.953   4.403   2.181  0.2992  0.1273  0.7532
 9227TIP3    H149172   5.925   4.427   2.092  1.2474 -0.3047  0.3223
 9227TIP3    H249173   5.877   4.361   2.220 -0.8116  2.1363  0.8753
 9228TIP3   OH249174   6.390   6.376   6.014  0.6917  0.0107  0.5840
 9228TIP3    H149175   6.437   6.406   6.091  1.0130 -0.3654  0.5401
 9228TIP3    H249176   6.298   6.387   6.036  0.7702  2.8902 -0.1790
 9229TIP3   OH249177   4.960   3.618   3.257 -0.2504 -0.7210  0.1151
 9229TIP3    H149178   4.922   3.530   3.262  1.2213 -1.4672 -1.1319
 9229TIP3    H249179   5.001   3.622   3.171  1.4933  0.4559  0.9490
 9230TIP3   OH249180   4.727   5.666   5.606 -0.3757 -0.1485  0.1979
 9230TIP3    H149181   4.745   5.677   5.699 -0.8293  1.9987  0.0923
 9230TIP3    H249182   4.631   5.660   5.601 -0.4006  0.5206 -0.1847
 9231TIP3   OH249183   1.956   0.559  14.910 -0.2137 -0.3041 -0.4749
 9231TIP3    H149184   1.964   0.615  14.988 -0.2765  1.1599 -1.4851
 9231TIP3    H249185   1.977   0.471  14.942 -1.0676  0.1101  1.3757
 9232TIP3   OH249186   3.690   1.902   0.646  0.2913  0.6329  0.1841
 9232TIP3    H149187   3.599   1.895   0.617 -0.0484  0.2895  1.2967
 9232TIP3    H249188   3.719   1.811   0.655  1.2370  0.7085 -1.5673
 9233TIP3   OH249189   2.386   5.115  11.878 -0.3853 -0.2603  0.0010
 9233TIP3    H149190   2.330   5.041  11.902  0.4561 -1.1192 -0.5874
 9233TIP3    H249191   2.424   5.090  11.794  2.0112 -0.3816  1.0320
 9234TIP3   OH249192   1.156   2.189  11.871 -0.4532 -0.4449 -0.9489
 9234TIP3    H149193   1.251   2.191  11.856 -0.2577 -0.9390  0.1270
 9234TIP3    H249194   1.128   2.280  11.860 -0.2535 -0.6230 -3.5140
 9235TIP3   OH249195   3.297   2.595   1.283 -0.1827 -0.8463 -0.1657
 9235TIP3    H149196   3.295   2.632   1.195 -0.5368 -0.3024  0.0641
 9235TIP3    H249197   3.261   2.507   1.274 -1.0448 -0.4762 -0.4241
 9236TIP3   OH249198   0.705   6.453   5.407 -0.4761 -0.5227  0.2499
 9236TIP3    H149199   0.746   6.500   5.334  1.4040 -0.0436  1.5211
 9236TIP3    H249200   0.691   6.521   5.473 -0.2789 -1.2670  1.0779
 9237TIP3   OH249201   5.269   6.025  15.345  0.7459  0.2361  0.3981
 9237TIP3    H149202   5.212   6.070  15.406  0.7896  1.0689 -0.1524
 9237TIP3    H249203   5.211   5.969  15.294  0.3288  1.4013 -0.4506
 9238TIP3   OH249204   2.283   3.202   0.631 -0.1443  0.4324 -0.3024
 9238TIP3    H149205   2.354   3.147   0.665 -0.7954 -0.1830  0.0963
 9238TIP3    H249206   2.314   3.292   0.642  1.1412  0.1595 -1.3973
 9239TIP3   OH249207   0.535   1.978   2.393  0.3216  0.3468 -0.0559
 9239TIP3    H149208   0.613   2.022   2.359 -0.2753  1.9220  0.5506
 9239TIP3    H249209   0.541   1.888   2.358  1.1213  1.1250 -2.0829
 9240TIP3   OH249210   0.994   5.622  13.037  0.3525  0.2142 -0.6119
 9240TIP3    H149211   0.909   5.593  13.070  1.9553 -0.9158  2.9412
 9240TIP3    H249212   1.044   5.542  13.022  0.5603  0.7858 -3.8364
 9241TIP3   OH249213   6.268   1.907  11.996  0.4500  0.1696  0.5334
 9241TIP3    H149214   6.235   1.819  12.012  0.7914 -0.1554 -0.4538
 9241TIP3    H249215   6.199   1.965  12.029  0.4476 -0.4469  1.6620
 9242TIP3   OH249216   4.610   5.777  11.140  0.2172  0.0338 -0.0154
 9242TIP3    H149217   4.534   5.778  11.198 -0.0572 -1.4118 -0.3292
 9242TIP3    H249218   4.589   5.714  11.072  1.4517  0.0617 -0.4574
 9243TIP3   OH249219   6.078   0.877   3.371  0.0548  0.2034 -0.0380
 9243TIP3    H149220   6.057   0.848   3.283  1.7837 -0.3339 -0.3072
 9243TIP3    H249221   6.104   0.798   3.418 -1.5126  0.3768  1.1789
 9244TIP3   OH249222   2.035   5.379   0.839  0.0532  0.3474 -0.1178
 9244TIP3    H149223   1.953   5.401   0.794 -0.0153  2.6983  0.9652
 9244TIP3    H249224   2.092   5.454   0.822  1.6594 -0.8152 -0.0579
 9245TIP3   OH249225   5.894   1.289   2.092  0.2827 -0.4546  0.2509
 9245TIP3    H149226   5.950   1.245   2.028  0.6838  0.6962 -0.2182
 9245TIP3    H249227   5.811   1.303   2.047  0.8232  1.0628 -0.3215
 9246TIP3   OH249228   6.441   2.516   1.945 -0.1802  0.5153  0.1864
 9246TIP3    H149229   6.509   2.467   1.899 -1.1114 -0.0121 -0.6737
 9246TIP3    H249230   6.463   2.608   1.929 -0.4521  0.3480 -1.3043
 9247TIP3   OH249231   5.070   1.922   4.602 -0.1707  0.3484  0.3299
 9247TIP3    H149232   5.147   1.875   4.572 -0.3007  1.2682 -1.5900
 9247TIP3    H249233   5.021   1.858   4.654  0.1551 -1.3496 -1.3506
 9248TIP3   OH249234   2.248   4.932   3.073  0.2359 -0.5957 -0.3895
 9248TIP3    H149235   2.195   4.946   3.151 -1.2004 -0.6315 -1.3221
 9248TIP3    H249236   2.338   4.948   3.102 -0.3955  0.8271  0.9112
 9249TIP3   OH249237   1.986   2.749   4.593  0.1334  0.0476  0.7645
 9249TIP3    H149238   2.063   2.804   4.606  0.5045 -0.1989 -0.3108
 9249TIP3    H249239   1.963   2.761   4.501 -0.3484 -0.8670  0.7534
 9250TIP3   OH249240   1.215   0.508   1.600 -0.1138  0.4631  0.0777
 9250TIP3    H149241   1.239   0.560   1.676 -2.2522  0.0746  1.0978
 9250TIP3    H249242   1.125   0.480   1.617  0.1248 -1.5671 -1.5339
 9251TIP3   OH249243   1.445   2.340   1.629  0.2672 -0.0038 -0.1174
 9251TIP3    H149244   1.495   2.388   1.695  0.4241  2.2133 -1.7440
 9251TIP3    H249245   1.357   2.377   1.633  0.6872  1.4101 -2.2040
 9252TIP3   OH249246   5.370   4.105  10.428 -0.1668 -0.2352  0.1247
 9252TIP3    H149247   5.277   4.126  10.433  0.0029  0.2178  1.9505
 9252TIP3    H249248   5.377   4.016  10.465  0.2093  0.0351  0.7200
 9253TIP3   OH249249   0.739   5.308  13.959  0.3296  0.1367  0.9825
 9253TIP3    H149250   0.649   5.337  13.946  0.3871 -0.0345  0.1356
 9253TIP3    H249251   0.777   5.373  14.018  0.2010  1.3182 -0.1797
 9254TIP3   OH249252   4.432   2.261   3.141  0.2387  1.0754  0.6316
 9254TIP3    H149253   4.355   2.244   3.195  2.1726 -1.2099  2.9551
 9254TIP3    H249254   4.452   2.353   3.155 -1.0160  1.2554  1.4276
 9255TIP3   OH249255   0.914   5.201   0.634 -0.2994 -0.0212  0.7793
 9255TIP3    H149256   0.914   5.295   0.652 -0.0617  0.2442 -0.5128
 9255TIP3    H249257   1.006   5.175   0.645 -0.4587 -0.2362  1.7072
 9256TIP3   OH249258   0.219   0.256  17.151  0.3341  0.3633  0.2588
 9256TIP3    H149259   0.246   0.270  17.060 -0.8250 -0.6477 -0.2626
 9256TIP3    H249260   0.296   0.280  17.202  1.5095 -0.4173 -1.0615
 9257TIP3   OH249261   1.035   4.199  16.227  0.3752 -0.0075  0.8573
 9257TIP3    H149262   0.974   4.171  16.159  2.8302  0.9106 -1.9527
 9257TIP3    H249263   0.990   4.272  16.270 -0.1235  1.5816 -2.0436
 9258TIP3   OH249264   2.255   6.406  12.849 -0.2698 -0.0867 -0.4049
 9258TIP3    H149265   2.221   6.475  12.792 -0.7491 -1.6592 -2.1565
 9258TIP3    H249266   2.322   6.448  12.902 -0.7354  1.7597 -1.2135
 9259TIP3   OH249267   4.710   4.311  16.968  0.2168 -0.5821  0.1896
 9259TIP3    H149268   4.627   4.266  16.954  0.6958 -1.3170 -0.4111
 9259TIP3    H249269   4.709   4.336  17.060 -1.2592  0.6810 -0.1183
 9260TIP3   OH249270   0.121   0.100  11.815 -0.4228 -0.2445 -0.6388
 9260TIP3    H149271   0.103   0.132  11.727 -0.2056  0.5920 -0.3876
 9260TIP3    H249272   0.210   0.065  11.810 -0.1037  0.5272 -0.5688
 9261TIP3   OH249273   4.822   1.470   4.335  0.2860  0.1905 -0.2832
 9261TIP3    H149274   4.830   1.458   4.240 -0.7325 -0.0219 -0.3505
 9261TIP3    H249275   4.888   1.412   4.372 -0.0357 -0.5394 -0.8352
 9262TIP3   OH249276   1.132   5.636   0.111  0.1135  0.0444  0.1800
 9262TIP3    H149277   1.103   5.704   0.172 -2.2906  1.0911 -1.9359
 9262TIP3    H249278   1.199   5.679   0.058 -0.0368  0.1713  0.0891
 9263TIP3   OH249279   3.002   2.055   3.846  0.1962  0.3245 -0.2251
 9263TIP3    H149280   3.094   2.075   3.860  0.1131  0.9179 -0.4893
 9263TIP3    H249281   2.963   2.059   3.933  0.6387 -1.1602  0.0696
 9264TIP3   OH249282   3.498   4.238   3.063 -0.5263  0.2451  0.1189
 9264TIP3    H149283   3.576   4.258   3.114 -0.4889  0.7982 -0.1462
 9264TIP3    H249284   3.532   4.204   2.980 -0.5658 -3.6544  1.5238
 9265TIP3   OH249285   5.566   3.090  12.371 -0.1350 -0.0826 -0.1433
 9265TIP3    H149286   5.624   3.038  12.314  0.0708  0.8725 -0.8340
 9265TIP3    H249287   5.605   3.083  12.458  1.0108  0.5104 -0.5909
 9266TIP3   OH249288   6.578   1.732  12.711  0.0018 -0.3006  0.5207
 9266TIP3    H149289   6.515   1.773  12.652 -0.7991 -1.0453  0.8294
 9266TIP3    H249290   6.663   1.749  12.671 -0.3046  1.5242  0.5750
 9267TIP3   OH249291   3.309   3.690  11.978 -0.0052  0.2071  0.2267
 9267TIP3    H149292   3.256   3.707  12.056 -1.0314  0.6529 -0.5527
 9267TIP3    H249293   3.399   3.710  12.006 -0.4321  0.9718  1.1153
 9268TIP3   OH249294   6.795   2.178  13.012 -0.1491 -0.3417 -0.6087
 9268TIP3    H149295   6.733   2.202  13.081  0.9018 -1.4601  0.7965
 9268TIP3    H249296   6.867   2.137  13.059  0.9638 -0.4466 -2.3374
 9269TIP3   OH249297   2.368   0.168   1.055 -0.4011  0.1938 -0.5059
 9269TIP3    H149298   2.370   0.122   0.970  0.3198  1.7165 -1.3459
 9269TIP3    H249299   2.360   0.260   1.032  2.0930  0.8668  0.9919
 9270TIP3   OH249300   6.389   5.844  15.761 -0.1184 -0.2966  0.8083
 9270TIP3    H149301   6.354   5.856  15.849 -0.1011  2.4191  0.5261
 9270TIP3    H249302   6.347   5.764  15.729 -1.1669 -0.5865  2.7629
 9271TIP3   OH249303   4.592   3.096  16.180 -0.5479 -0.2321  0.4839
 9271TIP3    H149304   4.655   3.108  16.252  0.6297 -0.2548 -0.5187
 9271TIP3    H249305   4.541   3.177  16.180 -0.0897  0.0674  0.9045
 9272TIP3   OH249306   1.735   0.060  13.962 -0.3413  0.2856  0.0991
 9272TIP3    H149307   1.709   0.133  13.906  1.0655 -0.4676 -1.6654
 9272TIP3    H249308   1.672  -0.009  13.940 -0.0855  0.1477 -0.2150
 9273TIP3   OH249309   2.814   0.260   0.594  0.5611  0.2993 -0.0189
 9273TIP3    H149310   2.867   0.340   0.593  0.7277  0.1935 -0.8405
 9273TIP3    H249311   2.766   0.262   0.511  0.3599 -0.3181  0.0755
 9274TIP3   OH249312   4.416   6.408   3.883  0.3318 -0.1364 -0.2401
 9274TIP3    H149313   4.332   6.453   3.878  0.7655  0.6576 -0.5839
 9274TIP3    H249314   4.431   6.374   3.795  0.8166  0.5672 -0.4376
 9275TIP3   OH249315   0.980   2.112  11.600 -0.0938 -0.1803 -0.0025
 9275TIP3    H149316   0.930   2.059  11.661 -0.0217  0.3142  0.4946
 9275TIP3    H249317   0.968   2.069  11.515 -2.1177  0.4411 -0.0819
 9276TIP3   OH249318   1.730   3.345   2.857  0.5613  0.0754  0.2020
 9276TIP3    H149319   1.776   3.271   2.817 -0.7985 -1.1516  0.8154
 9276TIP3    H249320   1.671   3.376   2.788  1.6327  1.0766 -0.2903
 9277TIP3   OH249321   2.052   3.014  17.170  0.3635 -0.4340 -0.2844
 9277TIP3    H149322   2.009   2.929  17.161 -0.0491 -0.3218  0.5527
 9277TIP3    H249323   2.052   3.050  17.081 -0.5814 -0.7713 -0.4348
 9278TIP3   OH249324   3.017   4.584  16.420  0.3756  0.0829  0.5166
 9278TIP3    H149325   2.995   4.510  16.364 -0.8218 -0.0618  1.1564
 9278TIP3    H249326   3.104   4.563  16.455  0.7745 -0.2063 -0.6265
 9279TIP3   OH249327   2.082   2.125  15.114  0.1428  0.1655  0.2901
 9279TIP3    H149328   2.158   2.165  15.157 -0.1658  0.4981  0.5242
 9279TIP3    H249329   2.038   2.077  15.184 -1.3474  2.1311  0.7853
 9280TIP3   OH249330   1.769   5.246   4.675  0.0819 -0.0548  0.0778
 9280TIP3    H149331   1.716   5.176   4.712  0.8757  0.2531  1.8780
 9280TIP3    H249332   1.706   5.313   4.648 -0.6239 -1.0583 -0.8600
 9281TIP3   OH249333   2.496   6.574  12.659  0.2632  0.0967 -0.6447
 9281TIP3    H149334   2.579   6.620  12.662  1.0204 -1.2368 -0.5368
 9281TIP3    H249335   2.512   6.490  12.703 -1.5042  0.3617  0.6149
 9282TIP3   OH249336   5.304   0.659   0.863 -0.6263  0.4209 -0.5581
 9282TIP3    H149337   5.247   0.602   0.914  0.8188 -1.4609 -0.9287
 9282TIP3    H249338   5.277   0.646   0.773 -0.0291 -0.0304 -0.6807
 9283TIP3   OH249339   1.788   4.861   4.704  0.0969  0.0202  0.1524
 9283TIP3    H149340   1.728   4.926   4.743  0.2202  1.1111 -1.3773
 9283TIP3    H249341   1.735   4.815   4.640  0.2030 -0.9241  0.7337
 9284TIP3   OH249342   0.161   5.434  15.657 -0.2268 -0.4975 -0.1159
 9284TIP3    H149343   0.220   5.359  15.670  0.4023 -0.0073 -0.1234
 9284TIP3    H249344   0.210   5.509  15.688 -0.0844  0.2061 -1.9375
 9285TIP3   OH249345   6.751   5.708  16.140  0.9282  0.0171 -0.3383
 9285TIP3    H149346   6.657   5.693  16.126  0.8011 -0.7003  1.0836
 9285TIP3    H249347   6.792   5.674  16.061 -0.0483  1.2366 -1.4279
 9286TIP3   OH249348   1.503   1.706  11.868 -0.1555  0.5409 -0.3438
 9286TIP3    H149349   1.560   1.742  11.800  4.0962 -0.7308  2.1896
 9286TIP3    H249350   1.549   1.629  11.900 -2.3396  0.5415  3.3603
 9287TIP3   OH249351   5.278   4.608  11.986 -0.2412 -0.1617  0.3452
 9287TIP3    H149352   5.264   4.597  11.892 -3.5499  0.3781  0.6507
 9287TIP3    H249353   5.351   4.671  11.992 -0.0100 -0.1495 -1.8287
 9288TIP3   OH249354   4.903   5.572  13.637  0.6159  0.1606  0.1428
 9288TIP3    H149355   4.862   5.570  13.551 -0.4612  0.7856  0.6165
 9288TIP3    H249356   4.996   5.587  13.619  0.4348  0.0962 -0.9086
 9289TIP3   OH249357   1.103   4.243  12.708 -0.2485  0.3721  0.4002
 9289TIP3    H149358   1.143   4.157  12.722 -1.3367 -0.2703 -0.2453
 9289TIP3    H249359   1.177   4.302  12.695  0.5118 -0.5490  0.3999
 9290TIP3   OH249360   2.741   0.791  12.177  0.0882 -0.9784  0.0732
 9290TIP3    H149361   2.808   0.735  12.217  1.2699 -0.7820 -1.5600
 9290TIP3    H249362   2.789   0.845  12.115 -1.4541 -0.1012 -0.3912
 9291TIP3   OH249363   0.646   3.654   2.681  0.1271  0.1397  0.2204
 9291TIP3    H149364   0.562   3.697   2.698 -0.8799 -1.8173  0.4672
 9291TIP3    H249365   0.707   3.726   2.663 -1.1624  1.7234  1.8553
 9292TIP3   OH249366   5.007   0.333   2.075 -0.3773 -0.6026 -0.2605
 9292TIP3    H149367   4.967   0.314   1.991 -1.6655 -1.5761  0.5283
 9292TIP3    H249368   5.074   0.398   2.056 -0.2563 -1.2197 -2.1089
 9293TIP3   OH249369   0.463   1.554   0.047  0.0516  0.0301  0.7818
 9293TIP3    H149370   0.545   1.505   0.053  1.0974  1.5345 -0.6127
 9293TIP3    H249371   0.437   1.547  -0.045 -1.7174 -0.8650  1.2964
 9294TIP3   OH249372   4.559   3.585   3.452  0.1924 -0.2565 -0.2304
 9294TIP3    H149373   4.594   3.665   3.413  1.0475  0.1684  1.3288
 9294TIP3    H249374   4.470   3.579   3.418 -0.2416  1.9147  0.3900
 9295TIP3   OH249375   4.599   5.746   2.581 -0.2211  0.3083 -0.2752
 9295TIP3    H149376   4.659   5.727   2.654 -0.3994 -0.6078 -0.3524
 9295TIP3    H249377   4.598   5.841   2.575  1.6816  0.3345 -0.6521
 9296TIP3   OH249378   4.124   2.434  14.728 -0.3299  0.4115  0.4364
 9296TIP3    H149379   4.191   2.398  14.670 -1.2512 -1.6660  0.5626
 9296TIP3    H249380   4.165   2.435  14.814 -0.3591 -0.6074  0.4702
 9297TIP3   OH249381   4.810   5.152  15.202  0.2378  0.1515  0.3780
 9297TIP3    H149382   4.753   5.207  15.149  0.1059  0.0537  0.4188
 9297TIP3    H249383   4.896   5.160  15.161  0.2483  0.5045  0.4710
 9298TIP3   OH249384   2.917   3.732   4.362  0.5048  0.7493 -0.0996
 9298TIP3    H149385   2.860   3.655   4.358  0.1187  1.0841 -2.4937
 9298TIP3    H249386   3.005   3.696   4.363  0.3016  0.2583  0.7522
 9299TIP3   OH249387   0.908   5.388   3.733 -0.0944  0.2435  0.0699
 9299TIP3    H149388   0.982   5.378   3.793 -0.4557 -1.3890  0.2862
 9299TIP3    H249389   0.948   5.388   3.646  0.1276 -1.8190  0.1207
 9300TIP3   OH249390   4.339   4.444   5.372 -0.5053 -0.4520 -0.1472
 9300TIP3    H149391   4.403   4.373   5.383 -1.2916 -1.3376 -1.0465
 9300TIP3    H249392   4.312   4.467   5.461 -2.1885 -3.1231  0.1428
 9301TIP3   OH249393   1.229   0.065  16.161  0.1248  0.3406  0.1743
 9301TIP3    H149394   1.202   0.102  16.076 -0.7346 -0.1324  0.2219
 9301TIP3    H249395   1.181   0.117  16.225 -1.4357 -1.0727  0.2247
 9302TIP3   OH249396   0.983   4.591   4.960  0.9389 -0.5371 -0.1002
 9302TIP3    H149397   0.948   4.520   4.907  1.6519 -0.1262 -1.1534
 9302TIP3    H249398   0.937   4.583   5.043 -0.3777 -1.0760 -0.8385
 9303TIP3   OH249399   4.026   2.466  12.301 -0.7931 -0.5127 -0.0517
 9303TIP3    H149400   3.989   2.470  12.212  1.2032  0.2401 -0.9041
 9303TIP3    H249401   4.078   2.385  12.301 -1.1092 -0.7242  0.5918
 9304TIP3   OH249402   5.042   3.304   3.591 -0.5621  0.1589  0.5928
 9304TIP3    H149403   4.964   3.252   3.609 -1.4992  0.1917 -2.6986
 9304TIP3    H249404   5.009   3.388   3.560  0.8780  1.1976  1.6986
 9305TIP3   OH249405   5.904   0.787   4.897  0.3338 -0.4228  0.3960
 9305TIP3    H149406   5.948   0.821   4.975 -2.2728 -0.8491  2.1885
 9305TIP3    H249407   5.900   0.862   4.838  2.0919  0.0060  0.7535
 9306TIP3   OH249408   3.780   4.954   3.904  0.1916 -0.2482  0.4021
 9306TIP3    H149409   3.692   4.964   3.867  0.5725 -1.0818 -0.7922
 9306TIP3    H249410   3.766   4.953   3.998 -1.1507 -0.9898  0.2184
 9307TIP3   OH249411   3.058   3.735   2.520  0.0233  0.3367  0.0931
 9307TIP3    H149412   2.977   3.741   2.470  0.5702 -2.6590 -1.3482
 9307TIP3    H249413   3.120   3.791   2.472 -1.0503  2.4641  1.0843
 9308TIP3   OH249414   2.091   4.753  16.506  0.2754 -0.5769  0.6061
 9308TIP3    H149415   2.035   4.676  16.511 -0.4637 -0.0599  0.4512
 9308TIP3    H249416   2.036   4.825  16.539  0.1810  0.2779 -1.2656
 9309TIP3   OH249417   3.368   2.184   3.685 -0.6931  0.3063 -0.1676
 9309TIP3    H149418   3.338   2.195   3.775 -2.0893  1.5959 -0.7494
 9309TIP3    H249419   3.329   2.101   3.657 -1.4322  0.5982 -0.0206
 9310TIP3   OH249420   2.182   2.005   6.394  0.4304  0.2368 -0.4598
 9310TIP3    H149421   2.119   2.063   6.437  0.4034 -1.4903  2.0479
 9310TIP3    H249422   2.140   1.919   6.396  2.7447 -0.9503  1.1680
 9311TIP3   OH249423   0.154   2.179  15.645 -0.2294 -0.0645  0.2601
 9311TIP3    H149424   0.166   2.084  15.644  0.8389  0.0631 -0.3373
 9311TIP3    H249425   0.151   2.204  15.553  0.7327  0.6182  0.3991
 9312TIP3   OH249426   0.566   0.147  12.119  0.2734 -0.0709  0.0444
 9312TIP3    H149427   0.594   0.160  12.028 -2.0120  0.2094 -0.6688
 9312TIP3    H249428   0.566   0.235  12.156  1.2356 -0.1886  0.3683
 9313TIP3   OH249429   1.841   4.497   5.813  0.5851 -0.1546 -0.1646
 9313TIP3    H149430   1.832   4.406   5.842 -0.1522  0.4601  1.6641
 9313TIP3    H249431   1.883   4.490   5.727 -1.5822 -2.3612 -1.1986
 9314TIP3   OH249432   5.707   4.966  13.220 -0.5285  0.6319  0.3879
 9314TIP3    H149433   5.742   5.055  13.229  0.4851  0.4684 -1.4832
 9314TIP3    H249434   5.623   4.978  13.175 -1.0234  0.7125  1.3027
 9315TIP3   OH249435   4.011   5.847   0.711  0.1018  0.4935  0.4374
 9315TIP3    H149436   4.099   5.827   0.678 -0.5056 -0.6930 -0.5348
 9315TIP3    H249437   4.008   5.943   0.713  1.4296  0.5572  0.5515
 9316TIP3   OH249438   2.739   0.480  15.591  0.4532  0.3404 -0.1098
 9316TIP3    H149439   2.698   0.506  15.673 -1.5121 -1.6382 -0.3630
 9316TIP3    H249440   2.827   0.451  15.616 -0.1475 -0.3225  1.3372
 9317TIP3   OH249441   1.886   6.227   0.267  0.6693  0.1526 -0.4825
 9317TIP3    H149442   1.800   6.268   0.258  1.6852  2.2448 -1.0660
 9317TIP3    H249443   1.867   6.140   0.304 -1.5352  1.3514  1.4738
 9318TIP3   OH249444   3.133   1.302  14.213  0.1070 -0.4851  0.5758
 9318TIP3    H149445   3.203   1.241  14.190  2.5597  2.6004 -0.7848
 9318TIP3    H249446   3.169   1.353  14.286 -0.6268  1.2308 -0.2066
 9319TIP3   OH249447   3.955   4.302  11.714 -0.1689 -0.1459 -0.3344
 9319TIP3    H149448   3.957   4.349  11.631 -0.3747 -0.0998 -0.3134
 9319TIP3    H249449   4.045   4.273  11.727 -0.3720 -1.2306 -1.1860
 9320TIP3   OH249450   1.457   6.346  14.971  0.0078  0.3632  0.4414
 9320TIP3    H149451   1.369   6.375  14.949 -0.8231 -1.8081  0.6142
 9320TIP3    H249452   1.515   6.400  14.917 -1.6333 -0.5538 -2.4434
 9321TIP3   OH249453   2.707   1.864   6.452 -0.5174 -0.1806  0.7630
 9321TIP3    H149454   2.691   1.957   6.461 -0.3656  0.4287 -3.2718
 9321TIP3    H249455   2.637   1.833   6.394  1.3393 -1.7322 -0.8416
 9322TIP3   OH249456   1.230   5.621   0.746  0.3036  0.3461 -0.4420
 9322TIP3    H149457   1.217   5.686   0.676  2.8868 -0.1472 -1.4802
 9322TIP3    H249458   1.282   5.667   0.812 -0.3830  0.1782  0.2392
 9323TIP3   OH249459   4.129   0.957   4.586 -0.2137  0.1876  0.2110
 9323TIP3    H149460   4.178   0.990   4.511 -0.7486  1.5292  0.4341
 9323TIP3    H249461   4.142   0.862   4.582  2.0936  0.4379  0.0553
 9324TIP3   OH249462   1.065   3.016   1.296  0.0973 -0.5096 -0.4122
 9324TIP3    H149463   1.081   3.053   1.210  1.6129  2.2060  0.9122
 9324TIP3    H249464   1.133   3.054   1.352 -2.2482 -0.1791  2.4773
 9325TIP3   OH249465   1.121   2.532   0.830  0.1977  0.4060  0.2140
 9325TIP3    H149466   1.053   2.581   0.876  0.2542  0.6017  0.0900
 9325TIP3    H249467   1.195   2.592   0.826  0.8242 -0.2345  1.4696
 9326TIP3   OH249468   4.493   4.233   3.234 -0.6167 -0.2164 -0.6488
 9326TIP3    H149469   4.533   4.240   3.147 -1.3566 -1.2229 -1.0845
 9326TIP3    H249470   4.514   4.316   3.276  3.6055 -1.3069 -0.1094
 9327TIP3   OH249471   0.844   4.373   4.376  0.0026  0.3497 -0.8464
 9327TIP3    H149472   0.924   4.360   4.425  1.1863 -1.4952 -3.0258
 9327TIP3    H249473   0.773   4.357   4.439  1.3373  0.8605  0.8357
 9328TIP3   OH249474   0.618   3.205   1.519  0.0750 -0.0798 -0.5064
 9328TIP3    H149475   0.585   3.115   1.512  0.6603 -0.2080 -2.2793
 9328TIP3    H249476   0.706   3.194   1.557  0.5557 -0.3995 -1.6491
 9329TIP3   OH249477   3.924   3.346   1.721  0.5315 -0.3552 -0.3139
 9329TIP3    H149478   3.902   3.259   1.754  0.5676 -0.2406  0.0145
 9329TIP3    H249479   3.879   3.352   1.637 -0.3892 -0.2629  0.1738
 9330TIP3   OH249480   6.059   3.787  16.610  0.8549 -0.7848  0.3566
 9330TIP3    H149481   5.995   3.753  16.673  0.3779  0.0189  0.3174
 9330TIP3    H249482   6.137   3.732  16.623  0.1607 -1.7906  0.3939
 9331TIP3   OH249483   1.868   6.492  11.150  0.3682 -0.3151  0.1702
 9331TIP3    H149484   1.935   6.549  11.112 -0.3513  0.4232 -0.0089
 9331TIP3    H249485   1.802   6.484  11.082  0.2647 -1.0528  0.3446
 9332TIP3   OH249486   4.787   3.687  13.476  0.6811  0.4909  0.3447
 9332TIP3    H149487   4.692   3.695  13.461  0.1903 -0.9570  2.2426
 9332TIP3    H249488   4.823   3.668  13.389 -0.9253 -0.0120 -0.2547
 9333TIP3   OH249489   5.425   0.182   3.524 -0.3100 -1.1116  0.1217
 9333TIP3    H149490   5.441   0.088   3.519  2.5014 -0.7405  0.2026
 9333TIP3    H249491   5.502   0.222   3.483 -1.1593  1.1715  0.5768
 9334TIP3   OH249492   5.481   1.812   3.101  0.1348 -0.2227 -0.0541
 9334TIP3    H149493   5.412   1.845   3.044 -1.2720  1.1929  2.2731
 9334TIP3    H249494   5.538   1.761   3.044 -0.2285  2.4079 -3.0102
 9335TIP3   OH249495   4.183   5.479  12.027  0.5937  0.2941  0.0511
 9335TIP3    H149496   4.111   5.529  12.066  1.8176  1.5937  0.7085
 9335TIP3    H249497   4.209   5.529  11.950  1.3429  0.2953  0.2945
 9336TIP3   OH249498   5.608   1.854   3.331  0.2300  0.7564 -0.4621
 9336TIP3    H149499   5.662   1.776   3.346  1.8700  1.8518 -0.4152
 9336TIP3    H249500   5.561   1.836   3.250 -0.0730 -0.6022 -0.0227
 9337TIP3   OH249501   2.620   1.848   0.330  0.1920  0.4676 -0.5745
 9337TIP3    H149502   2.568   1.800   0.394 -0.0201  1.6114  0.1365
 9337TIP3    H249503   2.583   1.823   0.245  1.1640 -1.8882 -0.3581
 9338TIP3   OH249504   4.512   3.871   1.173  0.2382 -0.2963  0.2337
 9338TIP3    H149505   4.460   3.951   1.173 -0.3947 -0.6905  1.3739
 9338TIP3    H249506   4.466   3.812   1.114  0.0473 -0.2330  0.3189
 9339TIP3   OH249507   5.911   3.363  15.342  0.1900 -0.3527 -0.8144
 9339TIP3    H149508   5.833   3.335  15.294 -0.0556 -0.7977 -0.1611
 9339TIP3    H249509   5.976   3.381  15.273 -0.3222 -0.4653 -1.3371
 9340TIP3   OH249510   5.979   6.493  14.235  0.5486  0.6169 -0.3770
 9340TIP3    H149511   6.056   6.467  14.286  0.7976  1.4419 -0.3229
 9340TIP3    H249512   5.912   6.510  14.301 -0.3993 -2.1825 -0.4767
 9341TIP3   OH249513   3.083   3.385  13.377  0.6792  0.4048  0.5780
 9341TIP3    H149514   3.031   3.424  13.448  0.0485 -1.3206  1.1127
 9341TIP3    H249515   3.100   3.295  13.406  1.1854 -0.0641 -1.0504
 9342TIP3   OH249516   3.088   5.527   6.893  0.1033 -0.4111  0.3890
 9342TIP3    H149517   2.999   5.499   6.916 -0.6871  2.5442  1.3266
 9342TIP3    H249518   3.077   5.580   6.815  0.7340  1.3873  1.4558
 9343TIP3   OH249519   3.012   5.851  13.063 -0.1849  0.4125 -0.0159
 9343TIP3    H149520   2.954   5.899  13.003 -2.0864 -1.4497  0.2338
 9343TIP3    H249521   2.970   5.766  13.075  1.1010  0.0314  2.5084
 9344TIP3   OH249522   3.388   3.321  15.722 -0.2475 -0.4696  0.2959
 9344TIP3    H149523   3.334   3.249  15.756 -0.4840 -0.5228 -0.1748
 9344TIP3    H249524   3.326   3.376  15.674  0.3967 -1.5693 -1.9502
 9345TIP3   OH249525   4.091   2.825  10.526 -0.1127 -0.2179  0.2564
 9345TIP3    H149526   4.145   2.880  10.470 -0.3024 -0.2314  0.0602
 9345TIP3    H249527   4.001   2.855  10.510 -0.1172  0.2178  1.0275
 9346TIP3   OH249528   3.782   5.043  14.722  0.2307 -0.3187  0.3006
 9346TIP3    H149529   3.816   5.066  14.635  1.0246  0.0251  0.6920
 9346TIP3    H249530   3.830   5.099  14.782 -1.2238  0.3557  0.8710
 9347TIP3   OH249531   1.161   0.552  14.270  0.4173 -0.0539 -0.1255
 9347TIP3    H149532   1.069   0.525  14.269 -0.1620  1.8055 -0.3299
 9347TIP3    H249533   1.194   0.529  14.183  0.4283 -1.5773  0.2632
 9348TIP3   OH249534   0.315   3.386   5.074 -0.3002  0.2515 -0.4627
 9348TIP3    H149535   0.269   3.470   5.073 -0.2401  0.3262  1.0421
 9348TIP3    H249536   0.290   3.346   5.157 -0.7970 -1.5049 -1.3982
 9349TIP3   OH249537   6.711   3.844  15.192 -0.6242  0.1844  0.4683
 9349TIP3    H149538   6.670   3.891  15.119  0.5164 -0.9932 -1.0177
 9349TIP3    H249539   6.784   3.901  15.219 -0.1749 -0.0061 -0.3049
 9350TIP3   OH249540   5.935   3.586  11.721  0.3692 -0.2801 -0.1672
 9350TIP3    H149541   5.972   3.536  11.793 -0.4619  1.1428  1.2927
 9350TIP3    H249542   5.842   3.563  11.720 -0.4324  2.3563  1.6509
 9351TIP3   OH249543   3.071   6.412   2.951  0.5192  0.0605  0.0577
 9351TIP3    H149544   3.055   6.480   2.886  0.1667  1.2789  1.3705
 9351TIP3    H249545   2.984   6.387   2.981  0.7108  0.2196  0.7599
 9352TIP3   OH249546   6.049   0.433  15.636 -0.1683 -0.8381  0.1766
 9352TIP3    H149547   6.004   0.482  15.705 -0.8193 -3.2230  1.5891
 9352TIP3    H249548   5.996   0.354  15.625  1.5485 -1.8938 -0.9656
 9353TIP3   OH249549   5.836   6.104   1.664 -0.5699 -0.2013  0.1529
 9353TIP3    H149550   5.838   6.010   1.681 -0.3353 -0.2435 -0.0811
 9353TIP3    H249551   5.793   6.142   1.740 -0.3539 -0.4647  0.4110
 9354TIP3   OH249552   3.997   0.210   3.752  0.1287 -0.6801  0.2741
 9354TIP3    H149553   4.076   0.257   3.724  0.2087 -1.1476 -0.3039
 9354TIP3    H249554   3.924   0.265   3.721  0.1656  1.1349  3.0963
 9355TIP3   OH249555   5.697   1.966  15.597  0.3588 -0.1155  0.2783
 9355TIP3    H149556   5.744   2.018  15.532  1.0349 -2.3667 -1.1891
 9355TIP3    H249557   5.630   1.920  15.546 -0.5920 -0.2423  1.5960
 9356TIP3   OH249558   1.327   0.244  11.291  0.3232 -0.1502  0.2067
 9356TIP3    H149559   1.327   0.223  11.384 -0.5288 -1.4255 -0.0457
 9356TIP3    H249560   1.290   0.165  11.249  0.3094  0.5555 -1.1571
 9357TIP3   OH249561   0.718   0.753  11.711 -0.1126  0.7264 -0.0270
 9357TIP3    H149562   0.638   0.704  11.694  0.7177 -0.7141  0.0055
 9357TIP3    H249563   0.710   0.782  11.802 -0.0583 -0.5426  0.4094
 9358TIP3   OH249564   0.401   3.010   4.084  0.1212  0.2496 -0.2910
 9358TIP3    H149565   0.392   3.040   4.174  1.0445 -1.0428  0.2607
 9358TIP3    H249566   0.436   3.085   4.037 -0.7847  1.0812  0.3058
 9359TIP3   OH249567   5.730   4.209   1.730  0.3898  0.3812  0.2662
 9359TIP3    H149568   5.817   4.216   1.691  0.1262  0.5711 -0.2928
 9359TIP3    H249569   5.703   4.118   1.714  0.1829  0.5239 -0.2140
 9360TIP3   OH249570   2.708   1.530  16.182  0.0203  0.2898 -0.7405
 9360TIP3    H149571   2.794   1.536  16.141  0.2810  1.5674 -0.0525
 9360TIP3    H249572   2.727   1.500  16.272 -0.0475  2.3370 -0.0093
 9361TIP3   OH249573   2.872   5.014   0.991  0.2323 -0.6881  0.1001
 9361TIP3    H149574   2.786   5.053   0.979  0.7026  0.4756  0.3792
 9361TIP3    H249575   2.867   4.970   1.075  0.0978 -0.0819  0.4128
 9362TIP3   OH249576   1.356   4.639   2.259 -0.2149  0.5407  0.1803
 9362TIP3    H149577   1.405   4.717   2.230 -0.0783 -0.4826 -2.6930
 9362TIP3    H249578   1.417   4.593   2.317  0.2977  1.7509  0.6477
 9363TIP3   OH249579   0.050   5.932   0.043 -0.0526  0.8243  0.3189
 9363TIP3    H149580  -0.035   5.902   0.076  0.0890  1.6806  1.5293
 9363TIP3    H249581   0.111   5.914   0.114  0.9608 -0.5409 -0.8573
 9364TIP3   OH249582   0.954   1.457   2.256 -0.2660 -0.3887  0.0848
 9364TIP3    H149583   1.001   1.497   2.183  0.6768 -1.0721  0.2919
 9364TIP3    H249584   0.946   1.528   2.320  0.9370 -0.3625  0.2408
 9365TIP3   OH249585   5.666   6.534  15.964  0.2597 -0.3434 -0.1458
 9365TIP3    H149586   5.686   6.623  15.938  1.7677 -0.9282 -1.1521
 9365TIP3    H249587   5.706   6.525  16.051  0.6865 -0.2317 -0.3299
 9366TIP3   OH249588   4.695   2.124  10.504  0.5709  0.3195  0.2938
 9366TIP3    H149589   4.735   2.206  10.474 -2.2252  1.5701 -0.4239
 9366TIP3    H249590   4.653   2.148  10.587 -0.6299 -0.2349 -0.1295
 9367TIP3   OH249591   0.608   4.060   2.376  0.3126 -0.3524 -0.7012
 9367TIP3    H149592   0.625   4.046   2.469  0.3277 -0.4884 -0.7245
 9367TIP3    H249593   0.524   4.019   2.360 -0.2999  0.7795 -0.4699
 9368TIP3   OH249594   3.256   0.154  14.414 -0.1427 -0.3181 -0.1973
 9368TIP3    H149595   3.325   0.208  14.376  0.7421 -0.5040  1.0790
 9368TIP3    H249596   3.266   0.068  14.373  1.4056 -0.7894  1.0898
 9369TIP3   OH249597   3.538   2.818  15.453 -0.3392  0.2968  0.2201
 9369TIP3    H149598   3.552   2.851  15.365  0.0182  2.7487  1.1079
 9369TIP3    H249599   3.586   2.879  15.509 -0.2129 -1.4142  2.0934
 9370TIP3   OH249600   2.701   4.060   3.129  0.0109  0.1936 -0.0915
 9370TIP3    H149601   2.701   4.153   3.104 -2.2753  0.1491 -0.4803
 9370TIP3    H249602   2.628   4.022   3.080 -0.3635 -1.3689  1.5763
 9371TIP3   OH249603   0.305   4.963  15.770 -0.3202 -0.5139 -0.0872
 9371TIP3    H149604   0.307   4.918  15.685  2.2409 -1.0793  0.2002
 9371TIP3    H249605   0.309   4.892  15.835 -1.9579 -0.0700  0.5551
 9372TIP3   OH249606   4.007   6.423  11.201 -0.3845  0.4316 -0.5846
 9372TIP3    H149607   3.985   6.500  11.252  0.5052 -0.3482  1.0415
 9372TIP3    H249608   4.095   6.441  11.166  0.5686 -0.4434  1.1858
 9373TIP3   OH249609   1.137   4.032  11.988 -0.4247 -0.7659  0.2127
 9373TIP3    H149610   1.183   3.952  11.965  0.3390 -0.6562  1.2670
 9373TIP3    H249611   1.155   4.092  11.915 -1.8889 -1.8680 -1.0984
 9374TIP3   OH249612   0.322   0.628   2.467 -0.4586 -0.8484 -0.2932
 9374TIP3    H149613   0.356   0.573   2.396 -0.0703  0.5270 -1.2119
 9374TIP3    H249614   0.351   0.584   2.547 -0.2702 -2.0429 -0.9904
 9375TIP3   OH249615   2.865   3.057   3.105 -0.1769  0.0436 -1.1322
 9375TIP3    H149616   2.953   3.090   3.122 -0.0128 -1.0888  0.5068
 9375TIP3    H249617   2.879   2.969   3.070 -0.6525  0.1095 -1.4917
 9376TIP3   OH249618   2.840   4.770   1.823 -0.1283 -0.4250 -0.1183
 9376TIP3    H149619   2.747   4.747   1.820 -0.4335  0.8507 -1.1539
 9376TIP3    H249620   2.877   4.734   1.742  0.0375  0.0339 -0.2491
 9377TIP3   OH249621   3.901   3.446  13.957 -0.1629 -0.7839 -0.6152
 9377TIP3    H149622   3.986   3.485  13.976  0.0477 -0.6683 -1.7111
 9377TIP3    H249623   3.874   3.486  13.875 -0.9706 -1.3121 -0.6203
 9378TIP3   OH249624   5.045   6.646   4.892 -0.4396  0.0764 -0.5878
 9378TIP3    H149625   4.970   6.588   4.881  0.1233 -0.9956  0.8873
 9378TIP3    H249626   5.093   6.609   4.966 -0.3234  2.7325  0.7786
 9379TIP3   OH249627   2.335   1.799   0.685 -0.4433 -0.2136  0.4896
 9379TIP3    H149628   2.363   1.712   0.713 -2.6694 -1.1432  0.0074
 9379TIP3    H249629   2.336   1.795   0.590 -1.7191 -0.1449  0.4549
 9380TIP3   OH249630   4.540   4.806   1.705 -0.3282 -0.3656 -0.0107
 9380TIP3    H149631   4.493   4.723   1.720 -0.4322 -0.0871  1.3932
 9380TIP3    H249632   4.595   4.789   1.629  1.0856 -2.3906  1.3425
 9381TIP3   OH249633   1.518   2.610   2.960 -0.6577  0.7428  0.2200
 9381TIP3    H149634   1.550   2.693   2.923 -3.0303  1.9262  0.6226
 9381TIP3    H249635   1.524   2.623   3.055  4.8441 -2.0546  0.6583
 9382TIP3   OH249636   1.273   6.119  10.732 -0.1707  0.1164  0.0320
 9382TIP3    H149637   1.186   6.084  10.753 -0.9079  1.1641 -1.1500
 9382TIP3    H249638   1.279   6.201  10.780  0.1364  0.0870  0.0483
 9383TIP3   OH249639   5.475   4.578   0.524 -0.2714  0.6669  0.4969
 9383TIP3    H149640   5.570   4.582   0.534 -0.1875  1.4938 -0.4714
 9383TIP3    H249641   5.441   4.629   0.598  0.1012  1.5361  0.0861
 9384TIP3   OH249642   0.500   0.215   4.458 -0.1810  0.2393 -0.0099
 9384TIP3    H149643   0.415   0.224   4.414 -0.6773 -0.5420  0.7625
 9384TIP3    H249644   0.540   0.302   4.450 -1.2386  0.7471  0.0110
 9385TIP3   OH249645   3.108   4.005  14.945  0.6058  0.6411  0.0964
 9385TIP3    H149646   3.186   3.963  14.908  0.3394  0.3684 -0.1678
 9385TIP3    H249647   3.072   4.055  14.872 -0.2344 -0.3460 -0.1893
 9386TIP3   OH249648   5.293   2.969   4.364 -0.2756  0.1949 -0.2473
 9386TIP3    H149649   5.226   2.946   4.300  0.4240 -3.0629  0.0359
 9386TIP3    H249650   5.272   3.059   4.389 -2.4883  0.4491 -2.6135
 9387TIP3   OH249651   2.882   3.407  10.565 -0.3112  0.2464  0.2535
 9387TIP3    H149652   2.970   3.391  10.529  0.1722 -2.7429  2.3268
 9387TIP3    H249653   2.850   3.484  10.518  2.3096 -0.1679 -2.5624
 9388TIP3   OH249654   1.213   1.224   4.869 -0.4382 -0.1893 -0.1653
 9388TIP3    H149655   1.234   1.191   4.957  0.8829  2.0385  0.4648
 9388TIP3    H249656   1.132   1.180   4.845  0.8381 -3.3047  0.7694
 9389TIP3   OH249657   1.716   2.592  15.875  0.1236 -0.3139  0.0559
 9389TIP3    H149658   1.758   2.557  15.954 -0.2660  0.2709  0.5285
 9389TIP3    H249659   1.750   2.681  15.867 -2.7571  1.0996  1.8246
 9390TIP3   OH249660   4.244   2.117  12.630 -0.2815 -0.4507 -0.2283
 9390TIP3    H149661   4.229   2.022  12.629 -1.0827 -0.3697  1.2686
 9390TIP3    H249662   4.217   2.145  12.717 -0.4786  1.2357 -0.7882
 9391TIP3   OH249663   1.971   1.411   1.616 -0.2313 -0.4450 -0.4432
 9391TIP3    H149664   2.056   1.372   1.636 -0.1644  0.6074  1.5403
 9391TIP3    H249665   1.992   1.497   1.581 -0.4771 -0.6391 -1.0892
 9392TIP3   OH249666   2.130   1.152   5.726 -0.3257 -0.5457  0.3511
 9392TIP3    H149667   2.118   1.164   5.632 -1.0801  1.2701  0.6395
 9392TIP3    H249668   2.224   1.169   5.740 -0.3515 -0.1022  0.0143
 9393TIP3   OH249669   1.658   0.149   0.924  0.0486  0.3168  0.1218
 9393TIP3    H149670   1.718   0.092   0.876 -0.6208 -0.2802 -0.0143
 9393TIP3    H249671   1.704   0.167   1.007  0.3771 -0.1986  0.0587
 9394TIP3   OH249672   1.541   5.382  13.069  0.2575 -0.2385 -0.0495
 9394TIP3    H149673   1.634   5.377  13.089  0.5707  0.4204 -1.2330
 9394TIP3    H249674   1.537   5.395  12.974 -0.9931  0.8031  0.1124
 9395TIP3   OH249675   3.845   0.371  13.195 -0.0295 -0.5009  0.3981
 9395TIP3    H149676   3.860   0.298  13.255 -0.4185 -1.2503 -0.3943
 9395TIP3    H249677   3.821   0.444  13.252 -0.3897 -1.1964  1.1649
 9396TIP3   OH249678   6.416   4.148  10.699  0.6691 -0.3746  0.2834
 9396TIP3    H149679   6.484   4.156  10.766  1.2380  0.7062 -0.3930
 9396TIP3    H249680   6.454   4.188  10.621 -0.2646 -0.9294 -0.4799
 9397TIP3   OH249681   5.597   1.686  11.023  0.4669  0.0738 -0.0627
 9397TIP3    H149682   5.583   1.652  11.112 -2.5235  2.9098  0.7822
 9397TIP3    H249683   5.532   1.641  10.969  2.6894 -2.0958 -1.0657
 9398TIP3   OH249684   4.712   5.602   0.365  0.0769  0.0880  0.4683
 9398TIP3    H149685   4.795   5.557   0.349  0.6614  0.1730  2.8380
 9398TIP3    H249686   4.692   5.647   0.283  1.5982 -1.1175 -0.6276
 9399TIP3   OH249687   1.263   2.504   0.104  0.1834  0.7934 -0.1563
 9399TIP3    H149688   1.262   2.414   0.137 -0.1470  0.1725 -1.7618
 9399TIP3    H249689   1.263   2.494   0.009 -1.8058  2.5100 -0.3962
 9400TIP3   OH249690   5.936   6.754  16.202  0.2401 -0.4450  0.0260
 9400TIP3    H149691   6.027   6.726  16.195  0.4418  0.6285 -2.6832
 9400TIP3    H249692   5.886   6.686  16.158 -0.3068 -1.0108  1.4696
 9401TIP3   OH249693   6.714   1.644  16.760  0.4193 -0.1470  0.1028
 9401TIP3    H149694   6.655   1.575  16.790  0.0087  0.5764  0.9997
 9401TIP3    H249695   6.786   1.645  16.822  0.0052  0.7715  0.5939
 9402TIP3   OH249696   0.643   5.084   5.231 -0.1873 -0.2457 -0.3677
 9402TIP3    H149697   0.701   5.141   5.181  1.3751 -0.8625  0.6694
 9402TIP3    H249698   0.652   5.113   5.322 -2.3729  0.3436 -0.2770
 9403TIP3   OH249699   4.359   3.324  16.364 -0.2604 -0.5537 -0.0203
 9403TIP3    H149700   4.394   3.337  16.276  2.1328 -1.9175  0.6293
 9403TIP3    H249701   4.273   3.366  16.362  0.4677  1.0605 -2.4314
 9404TIP3   OH249702   2.984   0.584   3.436  0.4301  0.4857  0.1392
 9404TIP3    H149703   2.930   0.506   3.424 -0.0567  0.7788  0.4148
 9404TIP3    H249704   3.073   0.549   3.446  0.4131  0.0443 -1.0480
 9405TIP3   OH249705   0.190   4.034   2.028  0.0693  0.0912  0.2665
 9405TIP3    H149706   0.105   4.062   1.994  0.0731  0.1747  0.3228
 9405TIP3    H249707   0.193   3.940   2.013  0.6413  0.3265 -1.2104
 9406TIP3   OH249708   0.084   3.935  14.589  0.0423 -0.3588 -0.3838
 9406TIP3    H149709   0.090   3.858  14.533  0.6998  0.0682 -0.9163
 9406TIP3    H249710   0.169   3.978  14.582 -0.0808  0.0561  0.4413
 9407TIP3   OH249711   1.398   0.694  10.715  0.0478  0.0358  0.4777
 9407TIP3    H149712   1.414   0.758  10.784 -0.3004 -0.1078  0.6890
 9407TIP3    H249713   1.454   0.723  10.643  1.1101 -0.3258  1.1258
 9408TIP3   OH249714   3.146   4.272  14.196 -0.5799 -0.0731  0.5631
 9408TIP3    H149715   3.079   4.224  14.148  1.7471 -1.1042 -1.9094
 9408TIP3    H249716   3.219   4.210  14.204  0.8251  1.5873  1.3888
 9409TIP3   OH249717   4.802   3.104  11.553 -0.1341  0.3699 -0.6953
 9409TIP3    H149718   4.745   3.033  11.583  0.8214  0.5545  1.7317
 9409TIP3    H249719   4.887   3.062  11.537 -0.1571  0.6007 -1.5090
 9410TIP3   OH249720   0.698   2.291  13.915  0.3363 -0.4232  0.1403
 9410TIP3    H149721   0.697   2.326  13.826 -0.1049 -0.1722  0.2427
 9410TIP3    H249722   0.624   2.231  13.919 -1.1935  1.3892  1.0480
 9411TIP3   OH249723   2.373   2.300  15.627 -0.2640  0.1774 -0.2150
 9411TIP3    H149724   2.408   2.232  15.569  0.1856 -0.2102  0.4865
 9411TIP3    H249725   2.374   2.379  15.574 -1.5734 -0.4956 -1.3256
 9412TIP3   OH249726   2.855   5.191  11.547 -0.1098  0.2382 -0.6120
 9412TIP3    H149727   2.777   5.196  11.492 -0.9272 -0.9406  0.3688
 9412TIP3    H249728   2.834   5.123  11.611  1.4731  0.3738  0.0916
 9413TIP3   OH249729   2.958   4.288   2.938  0.0766 -0.0201 -0.7933
 9413TIP3    H149730   3.048   4.315   2.924  0.4901  0.4365  2.1035
 9413TIP3    H249731   2.964   4.195   2.960  0.3335  0.6637  2.4944
 9414TIP3   OH249732   1.119   5.377  13.062  0.6004 -0.0139  0.1399
 9414TIP3    H149733   1.036   5.341  13.093  0.4148  1.0121  0.8799
 9414TIP3    H249734   1.121   5.355  12.969 -0.1809 -0.6415  0.2584
 9415TIP3   OH249735   2.041   0.265  15.282 -0.2767  0.1803 -0.3429
 9415TIP3    H149736   1.986   0.198  15.322 -0.8713  0.9312  0.1197
 9415TIP3    H249737   2.130   0.230  15.290 -0.5198 -0.3081  0.4057
 9416TIP3   OH249738   1.262   1.655  13.460 -0.2927  0.1396 -0.1299
 9416TIP3    H149739   1.170   1.657  13.484 -0.1261 -2.7138  1.1339
 9416TIP3    H249740   1.309   1.650  13.543  1.0398  1.3864 -0.7552
 9417TIP3   OH249741   6.812   0.847  11.685  0.0283 -0.1932  0.6679
 9417TIP3    H149742   6.718   0.829  11.679  0.0480  0.0106 -0.7334
 9417TIP3    H249743   6.853   0.767  11.652  0.2584  0.4702 -0.7481
 9418TIP3   OH249744   3.591   2.953  11.168 -0.4878  0.1583 -0.3047
 9418TIP3    H149745   3.508   2.982  11.130 -0.8578 -2.2101 -1.4994
 9418TIP3    H249746   3.581   2.858  11.180  1.8249 -0.1101  0.1194
 9419TIP3   OH249747   1.966   5.760  16.796 -0.5421  0.4570  0.0599
 9419TIP3    H149748   1.992   5.688  16.738 -0.6270  0.6405 -0.2047
 9419TIP3    H249749   1.955   5.718  16.882  0.8829  0.4257  0.2352
 9420TIP3   OH249750   5.416   5.064  15.868 -0.6713  0.4093  0.5561
 9420TIP3    H149751   5.356   5.138  15.880  2.4811  3.6235 -1.5428
 9420TIP3    H249752   5.463   5.058  15.952 -0.6448  1.1128  0.6003
 9421TIP3   OH249753   2.176   4.469   3.498 -0.0628 -0.4874  0.0749
 9421TIP3    H149754   2.258   4.480   3.547  0.0467  1.1187 -0.3935
 9421TIP3    H249755   2.108   4.463   3.565  0.2646 -0.0152  0.4602
 9422TIP3   OH249756   1.486   5.587   1.281 -0.1438  0.1275  0.1276
 9422TIP3    H149757   1.574   5.565   1.251 -0.4827 -0.6961 -0.3162
 9422TIP3    H249758   1.484   5.561   1.373 -0.6177 -2.0557 -0.4548
 9423TIP3   OH249759   4.041   5.038   2.326  0.0244  0.6738  0.4389
 9423TIP3    H149760   4.078   5.030   2.414 -0.6214 -0.6565  0.6083
 9423TIP3    H249761   3.983   5.114   2.332 -0.8808 -0.0603  1.5005
 9424TIP3   OH249762   0.471   4.001  15.619 -0.3085  0.3179 -0.5637
 9424TIP3    H149763   0.379   4.027  15.617 -0.6778 -0.9220 -2.7896
 9424TIP3    H249764   0.511   4.044  15.544  1.1217  1.2797  0.6678
 9425TIP3   OH249765   1.684   4.974  12.552 -0.2792 -0.6989 -1.0390
 9425TIP3    H149766   1.646   5.024  12.624  1.5069 -0.4374 -0.2141
 9425TIP3    H249767   1.611   4.924  12.516 -1.6552  0.7606 -0.4238
 9426TIP3   OH249768   2.705   1.086   3.343  0.0320 -0.0445 -0.3973
 9426TIP3    H149769   2.646   1.025   3.298 -1.1579 -0.3666  1.4680
 9426TIP3    H249770   2.719   1.157   3.281 -0.9572 -0.7960 -1.5233
 9427TIP3   OH249771   1.704   0.326   4.033  0.6938 -0.8446  0.8594
 9427TIP3    H149772   1.699   0.414   4.072  0.8345 -0.2971 -0.3145
 9427TIP3    H249773   1.669   0.337   3.945 -1.6454 -2.5021  1.4769
 9428TIP3   OH249774   2.879   0.339   5.304  0.3478  0.3261 -0.0016
 9428TIP3    H149775   2.943   0.302   5.365 -1.7051 -0.3370  1.8942
 9428TIP3    H249776   2.837   0.263   5.264 -0.5494  0.6738  0.2485
 9429TIP3   OH249777   0.355   0.510  16.544  0.3403 -0.1052 -0.0170
 9429TIP3    H149778   0.286   0.476  16.488  0.7697 -0.9225 -0.0684
 9429TIP3    H249779   0.394   0.433  16.585  0.7472  0.3943  0.5723
 9430TIP3   OH249780   2.752   1.123  13.601  0.4763  0.2492 -0.1453
 9430TIP3    H149781   2.805   1.194  13.565  1.8688 -0.3414  0.6936
 9430TIP3    H249782   2.776   1.119  13.693  0.3196 -1.2269 -0.1504
 9431TIP3   OH249783   4.024   5.201  11.650 -0.2734 -0.1844 -0.2303
 9431TIP3    H149784   4.070   5.120  11.631  0.6509 -0.0107  1.1332
 9431TIP3    H249785   3.961   5.211  11.578 -0.6391 -2.2622 -0.2366
 9432TIP3   OH249786   0.489   2.814   5.807 -0.7013  0.2634 -0.1920
 9432TIP3    H149787   0.426   2.839   5.874  0.6453  2.3554  0.3874
 9432TIP3    H249788   0.521   2.897   5.771  0.1913 -0.7580 -1.9418
 9433TIP3   OH249789   1.578   6.696  16.137  0.2692 -0.1046  0.4365
 9433TIP3    H149790   1.669   6.698  16.167  0.8500 -2.6174 -0.9221
 9433TIP3    H249791   1.538   6.773  16.178  3.0721  1.3068  0.7906
 9434TIP3   OH249792   3.167   1.551  11.910  0.1161 -0.2173  0.1241
 9434TIP3    H149793   3.230   1.478  11.907 -0.7743 -1.0026  0.0481
 9434TIP3    H249794   3.206   1.613  11.971  0.2102 -1.4210  1.3435
 9435TIP3   OH249795   6.023   4.008  11.358  0.0940 -0.0714 -0.4542
 9435TIP3    H149796   5.989   3.920  11.370  0.1979  0.0976  1.3707
 9435TIP3    H249797   6.054   4.010  11.267 -0.4914 -1.6923 -0.7148
 9436TIP3   OH249798   6.243   5.060  16.516 -0.9130 -0.0791  0.3100
 9436TIP3    H149799   6.269   5.058  16.608  1.5848 -0.4075 -0.3444
 9436TIP3    H249800   6.198   4.976  16.503 -1.4693  0.0553  1.2549
 9437TIP3   OH249801   4.944   1.965   2.459  0.6847  0.0946 -0.0674
 9437TIP3    H149802   5.012   1.984   2.395  0.4001  0.8030 -0.1694
 9437TIP3    H249803   4.991   1.931   2.535  1.5501  3.4661  1.0826
 9438TIP3   OH249804   0.295   6.072  14.180  0.4680 -0.3941  0.7244
 9438TIP3    H149805   0.330   6.137  14.241 -0.9081  3.3455 -2.0583
 9438TIP3    H249806   0.211   6.047  14.216 -0.6949  2.3693  0.2031
 9439TIP3   OH249807   6.822   5.257  15.709  0.1684  0.4067 -0.1599
 9439TIP3    H149808   6.875   5.192  15.755  1.3858  1.6531  0.2595
 9439TIP3    H249809   6.883   5.329  15.690 -0.5708  0.4740 -2.6756
 9440TIP3   OH249810   6.702   0.513  16.645 -0.3139  0.2248 -0.3542
 9440TIP3    H149811   6.770   0.524  16.711 -0.5051 -2.6814  0.4617
 9440TIP3    H249812   6.642   0.449  16.682 -1.1168 -0.5908 -2.8278
 9441TIP3   OH249813   4.455   1.084  15.792 -0.1138 -0.1868  0.1111
 9441TIP3    H149814   4.446   1.133  15.710  2.5559  2.4811  1.1882
 9441TIP3    H249815   4.367   1.084  15.829 -0.8776  0.8972 -1.5328
 9442TIP3   OH249816   2.965   1.892  15.552 -0.3770 -0.1615 -0.5227
 9442TIP3    H149817   3.034   1.907  15.488  0.4944  1.4044  0.7126
 9442TIP3    H249818   2.993   1.812  15.598  1.0934  0.8680  0.4781
 9443TIP3   OH249819   6.561   1.884   3.129 -0.4042  0.9095 -0.0911
 9443TIP3    H149820   6.498   1.839   3.073 -0.4894  0.5910  0.2516
 9443TIP3    H249821   6.533   1.862   3.218 -1.0059  2.3936  0.1113
 9444TIP3   OH249822   3.092   3.190  13.912  0.0412  0.0807  0.5313
 9444TIP3    H149823   3.085   3.278  13.948 -0.7320 -0.3545  1.4959
 9444TIP3    H249824   3.012   3.179  13.861  0.2396  0.0138  0.2351
 9445TIP3   OH249825   6.220   3.380   3.736  0.6645 -0.3033  0.1437
 9445TIP3    H149826   6.285   3.362   3.804  1.4728 -1.9695 -1.0092
 9445TIP3    H249827   6.153   3.312   3.748  0.1594  0.1638  0.0420
 9446TIP3   OH249828   5.249   5.817   4.406  0.2407  0.4966 -0.4283
 9446TIP3    H149829   5.290   5.877   4.469  2.0497 -1.1092  0.0128
 9446TIP3    H249830   5.311   5.745   4.398 -2.5711 -2.2438  0.4423
 9447TIP3   OH249831   0.795   5.533   1.752  0.0222  0.3171 -0.5240
 9447TIP3    H149832   0.809   5.444   1.784 -0.7265  0.3823 -0.0096
 9447TIP3    H249833   0.784   5.523   1.657 -0.8538 -0.2304 -0.3741
 9448TIP3   OH249834   2.679   1.036   4.318  0.4889 -0.0953 -0.1220
 9448TIP3    H149835   2.609   0.986   4.275  0.8753  0.1453 -1.0439
 9448TIP3    H249836   2.750   0.973   4.328  0.8575  0.1722 -0.9896
 9449TIP3   OH249837   3.956   5.002  16.953  0.3333 -0.1258  0.6360
 9449TIP3    H149838   3.985   5.093  16.951 -0.4924  0.1429 -1.2917
 9449TIP3    H249839   3.898   4.997  17.028 -0.7996  1.3534 -0.0980
 9450TIP3   OH249840   4.698   4.820   2.728 -0.2520  0.4744 -0.1267
 9450TIP3    H149841   4.728   4.911   2.719 -0.1091  0.1968 -3.9754
 9450TIP3    H249842   4.608   4.827   2.760  0.1825  1.8600  0.8762
 9451TIP3   OH249843   3.088   3.275  16.754 -0.4407  0.0225 -0.1601
 9451TIP3    H149844   3.009   3.233  16.789 -0.2385 -0.0356  0.2287
 9451TIP3    H249845   3.095   3.241  16.665 -1.0147  0.2470 -0.3009
 9452TIP3   OH249846   1.583   1.786  13.796 -0.3453 -0.1807 -0.2570
 9452TIP3    H149847   1.541   1.700  13.799  0.0281 -0.3496  0.5513
 9452TIP3    H249848   1.675   1.768  13.814 -0.5288  0.5403  1.6223
 9453TIP3   OH249849   0.643   2.459  10.977  0.1612  0.5719 -0.4316
 9453TIP3    H149850   0.706   2.447  10.906  1.1431  4.3619 -0.4272
 9453TIP3    H249851   0.618   2.551  10.972 -1.6613  0.3934  2.6135
 9454TIP3   OH249852   4.087   5.645  16.524 -0.3501 -0.4475  0.3434
 9454TIP3    H149853   4.162   5.690  16.485 -1.0311 -0.2626 -0.8068
 9454TIP3    H249854   4.080   5.563  16.475 -0.3649 -0.8640  1.0411
 9455TIP3   OH249855   3.061   5.071  11.404  0.3214 -0.0789 -0.4339
 9455TIP3    H149856   3.095   5.022  11.479 -1.1407 -0.6527 -0.1175
 9455TIP3    H249857   2.991   5.125  11.441  0.7475  0.9604 -1.0916
 9456TIP3   OH249858   3.928   0.099  12.879  0.1359 -0.0558  0.7341
 9456TIP3    H149859   3.867   0.152  12.827  1.5992  0.9515 -0.0365
 9456TIP3    H249860   3.920   0.011  12.842  0.9524  0.5795 -1.1347
 9457TIP3   OH249861   3.185   6.386   2.401 -0.5305 -0.2082  0.1883
 9457TIP3    H149862   3.210   6.466   2.448  0.0084  0.0612 -0.5461
 9457TIP3    H249863   3.154   6.327   2.470  0.9461 -0.0886  0.9974
 9458TIP3   OH249864   3.827   6.131  14.321  0.0858  0.1547 -0.0268
 9458TIP3    H149865   3.874   6.072  14.262  0.3832  0.4893 -0.1317
 9458TIP3    H249866   3.895   6.171  14.374  0.2587  2.4988 -1.8213
 9459TIP3   OH249867   3.684   3.419  14.117 -0.2511  0.2382  0.0891
 9459TIP3    H149868   3.746   3.424  14.045  1.2694 -0.7047  1.2697
 9459TIP3    H249869   3.719   3.351  14.174 -2.6595 -0.7066  0.5611
 9460TIP3   OH249870   2.032   3.545   0.112 -0.4662 -0.5986  0.3074
 9460TIP3    H149871   2.096   3.478   0.086  1.3315  1.0267  0.3505
 9460TIP3    H249872   1.965   3.542   0.044  1.2585 -0.2661 -1.5029
 9461TIP3   OH249873   4.405   2.832  17.088  0.0385 -0.1823 -0.2570
 9461TIP3    H149874   4.447   2.916  17.070 -0.9861  0.2168 -0.8443
 9461TIP3    H249875   4.348   2.848  17.163 -0.6603 -0.1629 -0.7758
 9462TIP3   OH249876   3.134   0.279   2.439 -0.2847  0.0531  0.8010
 9462TIP3    H149877   3.144   0.368   2.472  1.1439 -0.1715  1.0211
 9462TIP3    H249878   3.167   0.283   2.349 -0.0154 -0.3034  0.8837
 9463TIP3   OH249879   6.326   5.038   0.789  0.3418  0.2087  0.6738
 9463TIP3    H149880   6.318   5.041   0.693  0.3563  0.1199  0.6703
 9463TIP3    H249881   6.336   4.945   0.810 -1.1819  0.0795  0.8968
 9464TIP3   OH249882   1.915   2.586   3.689 -0.1269  0.2918 -0.0457
 9464TIP3    H149883   1.933   2.524   3.618  1.5876 -0.1407  0.7179
 9464TIP3    H249884   1.978   2.656   3.677  0.5989 -0.0753  1.3621
 9465TIP3   OH249885   2.746   1.884  11.852  0.0866 -0.2738  0.2248
 9465TIP3    H149886   2.816   1.935  11.812 -0.7344  1.3194  0.7668
 9465TIP3    H249887   2.677   1.882  11.786  0.6114 -1.8985 -0.3363
 9466TIP3   OH249888   6.315   4.387  15.478  0.1681  0.1118  0.4553
 9466TIP3    H149889   6.317   4.479  15.504  0.5054  0.4845 -0.8092
 9466TIP3    H249890   6.312   4.339  15.561 -2.7703  1.2853  1.1644
 9467TIP3   OH249891   4.960   3.832   5.328 -0.5171  0.0717  0.3305
 9467TIP3    H149892   5.009   3.764   5.282 -2.2520 -1.2296  0.2789
 9467TIP3    H249893   4.929   3.789   5.408 -1.6708  0.7809  0.2951
 9468TIP3   OH249894   3.970   1.331   2.308  0.6237 -1.1208  0.4103
 9468TIP3    H149895   3.993   1.350   2.217  0.9574 -0.4301  0.6345
 9468TIP3    H249896   3.875   1.319   2.305  0.2536  1.2124  0.3181
 9469TIP3   OH249897   0.852   5.803   5.236  0.0874 -0.6848 -0.1164
 9469TIP3    H149898   0.818   5.884   5.197  1.0850 -0.6428 -0.9534
 9469TIP3    H249899   0.799   5.790   5.314  0.2792  1.0864  0.3525
 9470TIP3   OH249900   4.231   0.096   2.460 -0.3329  0.6013  0.0416
 9470TIP3    H149901   4.155   0.078   2.404 -0.1771  0.5202 -0.1447
 9470TIP3    H249902   4.193   0.115   2.546 -0.7144  2.5387 -0.4874
 9471TIP3   OH249903   3.927   4.486  12.823 -0.5284 -0.8372  0.0094
 9471TIP3    H149904   3.997   4.518  12.766 -0.7031 -0.3685  0.0566
 9471TIP3    H249905   3.973   4.435  12.890 -0.0107  0.9506  1.1118
 9472TIP3   OH249906   6.086   5.561  12.915  0.3410  0.1131  0.6963
 9472TIP3    H149907   6.096   5.624  12.986 -0.3750  0.2096  0.7179
 9472TIP3    H249908   6.168   5.568  12.865  0.6142  0.4501  1.1799
 9473TIP3   OH249909   5.881   3.687  16.779  0.3061  0.2563  0.4309
 9473TIP3    H149910   5.940   3.616  16.756  0.7065  0.5839  0.4330
 9473TIP3    H249911   5.827   3.651  16.849  1.0681  0.2158  1.0217
 9474TIP3   OH249912   5.633   0.953   5.634 -0.2351 -0.5199 -0.2172
 9474TIP3    H149913   5.658   0.878   5.687  0.9944  0.1911  0.2435
 9474TIP3    H249914   5.575   1.004   5.691  1.3686  0.4272  0.6262
 9475TIP3   OH249915   0.242   1.093   0.994  0.0203  0.1683  0.3128
 9475TIP3    H149916   0.332   1.119   1.010  0.0760  1.0494 -1.2404
 9475TIP3    H249917   0.248   1.011   0.945  0.0325  0.7071 -0.6189
 9476TIP3   OH249918   0.033   6.638  12.153  0.0903 -0.7808  0.1391
 9476TIP3    H149919   0.004   6.698  12.222 -1.2231  0.0550 -1.0879
 9476TIP3    H249920   0.006   6.551  12.185 -1.5519 -0.2826  0.1954
 9477TIP3   OH249921   1.586   4.605   3.790 -0.3240 -0.2743 -0.1985
 9477TIP3    H149922   1.605   4.660   3.714  1.2893  0.0019  0.3580
 9477TIP3    H249923   1.566   4.668   3.860 -2.4191 -0.5330 -0.4844
 9478TIP3   OH249924   3.189   6.190  10.697  1.2132  0.1645  0.2140
 9478TIP3    H149925   3.159   6.277  10.723 -0.0101 -0.8983  2.8021
 9478TIP3    H249926   3.209   6.198  10.604  0.9205  3.1159  0.2968
 9479TIP3   OH249927   2.192   3.606  15.362  0.1081 -0.2110  0.1922
 9479TIP3    H149928   2.273   3.645  15.395 -0.6678  0.2548  1.6672
 9479TIP3    H249929   2.210   3.512  15.360  1.0141 -0.0351 -0.4943
 9480TIP3   OH249930   1.525   6.515  15.920  0.2390 -0.3347 -0.1143
 9480TIP3    H149931   1.552   6.571  15.993 -0.9285 -2.4500  2.0824
 9480TIP3    H249932   1.605   6.470  15.894  0.8838  1.1951 -0.9319
 9481TIP3   OH249933   6.132   5.731  12.160  0.0381 -0.0282  0.4045
 9481TIP3    H149934   6.206   5.783  12.130  1.0812 -2.3750 -1.5010
 9481TIP3    H249935   6.166   5.682  12.235 -0.1652  0.2048  0.6517
 9482TIP3   OH249936   6.746   1.691   3.362  0.0859  0.3552 -0.1380
 9482TIP3    H149937   6.821   1.673   3.418  0.1019 -0.8250 -0.5135
 9482TIP3    H249938   6.770   1.771   3.315 -1.2254  3.4437  3.7992
 9483TIP3   OH249939   1.813   0.199  14.843 -0.3557 -0.2018  0.3462
 9483TIP3    H149940   1.883   0.235  14.898  0.5874 -0.7668 -0.4491
 9483TIP3    H249941   1.809   0.259  14.769  1.3873 -1.7703 -1.1070
 9484TIP3   OH249942   4.698   0.118   0.890 -0.1708  0.1334 -0.5233
 9484TIP3    H149943   4.633   0.159   0.946  0.1867  1.9073 -1.3114
 9484TIP3    H249944   4.766   0.185   0.880  1.2084 -1.2273 -0.6680
 9485TIP3   OH249945   1.970   2.158   6.494  0.0831 -0.8850 -0.7740
 9485TIP3    H149946   1.885   2.202   6.495  0.9264  0.8556 -0.1548
 9485TIP3    H249947   2.024   2.210   6.555  1.1256 -2.9141  0.1240
 9486TIP3   OH249948   1.930   6.619   1.285 -0.2823 -0.6511  0.2478
 9486TIP3    H149949   1.990   6.564   1.335 -0.0754  0.5064  1.3359
 9486TIP3    H249950   1.971   6.705   1.285 -2.5871  0.5741  2.3368
 9487TIP3   OH249951   4.639   1.547   2.093 -0.0601 -0.0521 -0.2333
 9487TIP3    H149952   4.703   1.541   2.163 -0.7165  0.2988  0.4136
 9487TIP3    H249953   4.648   1.636   2.059 -2.0905  1.0206  1.7628
 9488TIP3   OH249954   5.579   3.550   0.078  0.4466  0.3229 -0.0656
 9488TIP3    H149955   5.650   3.552   0.014  1.6083  0.1493  1.1756
 9488TIP3    H249956   5.520   3.619   0.050  0.4339 -0.3677 -1.8533
 9489TIP3   OH249957   2.433   5.869  14.696 -0.0812 -0.0316  0.0970
 9489TIP3    H149958   2.391   5.940  14.745  0.3732 -0.4371  1.0850
 9489TIP3    H249959   2.526   5.879  14.714 -0.0717 -1.3139  0.8362
 9490TIP3   OH249960   3.851   3.241  15.627  0.5354 -0.0737  0.0090
 9490TIP3    H149961   3.930   3.200  15.663  0.9915  0.5282 -0.2922
 9490TIP3    H249962   3.785   3.231  15.695  1.2353  0.5743  0.7908
 9491TIP3   OH249963   2.191   2.543   3.529  0.0930 -0.1022 -0.6764
 9491TIP3    H149964   2.180   2.636   3.509  1.4957  0.2993  0.3355
 9491TIP3    H249965   2.246   2.541   3.607  2.6136 -1.8264 -2.3504
 9492TIP3   OH249966   3.537   0.665  13.454 -0.1486 -0.0177 -0.4586
 9492TIP3    H149967   3.545   0.689  13.546  0.0333  1.0678 -0.7401
 9492TIP3    H249968   3.447   0.633  13.445 -0.7695  1.5776 -0.2589
 9493TIP3   OH249969   0.639   4.174  16.783  0.1538 -1.0385  0.1820
 9493TIP3    H149970   0.619   4.264  16.808  0.2772 -0.5826 -1.3088
 9493TIP3    H249971   0.678   4.181  16.696  2.4201 -2.3111  1.0126
 9494TIP3   OH249972   0.925   1.131  16.842  0.1889 -0.4985  0.0168
 9494TIP3    H149973   0.906   1.215  16.800  1.7184 -0.2444 -0.2317
 9494TIP3    H249974   1.019   1.135  16.862 -0.1056 -1.3638  1.7961
 9495TIP3   OH249975   4.415   6.772   3.817  0.1141  0.6734 -0.1012
 9495TIP3    H149976   4.461   6.844   3.859 -1.0760  1.3920  0.0012
 9495TIP3    H249977   4.350   6.813   3.761  2.2276 -0.2162 -3.4853
 9496TIP3   OH249978   6.303   2.127   4.432  0.4237 -0.2979 -0.5827
 9496TIP3    H149979   6.349   2.171   4.360  0.8683  2.2392  1.1165
 9496TIP3    H249980   6.368   2.068   4.469  0.3627 -1.2111 -1.8754
 9497TIP3   OH249981   4.341   6.742   4.253 -0.2709  0.6295 -0.5265
 9497TIP3    H149982   4.416   6.784   4.295 -0.7183  0.1363  0.8022
 9497TIP3    H249983   4.271   6.806   4.260  0.0847  1.2578 -2.1325
 9498TIP3   OH249984   0.658   3.735   1.909 -0.3221  0.7335  0.2693
 9498TIP3    H149985   0.602   3.781   1.846  1.8378  1.4426 -1.2883
 9498TIP3    H249986   0.623   3.646   1.912 -1.7603  1.2535 -0.3094
 9499TIP3   OH249987   0.397   5.822   4.862  0.3366  0.5260  0.3284
 9499TIP3    H149988   0.492   5.814   4.864  0.4600  1.8385  0.5881
 9499TIP3    H249989   0.374   5.862   4.946 -0.2867  1.6211 -0.3461
 9500TIP3   OH249990   0.573   5.102   4.686  0.2685  0.9795  0.6799
 9500TIP3    H149991   0.574   5.008   4.702 -0.9453  0.4812 -1.7684
 9500TIP3    H249992   0.600   5.141   4.770  1.0429 -1.5159  1.6774
 9501TIP3   OH249993   5.975   0.943   1.989  0.2791 -0.0060 -0.1116
 9501TIP3    H149994   5.967   0.865   1.935  1.2739 -1.9839  2.4000
 9501TIP3    H249995   5.914   0.928   2.062  0.4243  1.6243  0.3967
 9502TIP3   OH249996   1.353   6.268  13.773  0.0187 -0.4956 -0.0228
 9502TIP3    H149997   1.416   6.207  13.733  0.4306 -0.1863  0.1464
 9502TIP3    H249998   1.272   6.217  13.780  0.0035 -0.6307 -1.0227
 9503TIP3   OH249999   1.629   0.788   5.391 -0.0018  0.1278 -0.2064
 9503TIP3    H150000   1.719   0.807   5.418  0.4498 -1.3536 -0.5759
 9503TIP3    H250001   1.627   0.693   5.380 -2.0530 -0.0476  1.2790
 9504TIP3   OH250002   6.069   1.865   5.224  0.0505 -0.2594 -0.4748
 9504TIP3    H150003   6.077   1.960   5.238  0.4953  0.3418 -3.9183
 9504TIP3    H250004   6.158   1.832   5.240 -0.3727 -0.4001  1.9884
 9505TIP3   OH250005   1.288   1.958  15.412 -0.4082  0.0585  0.6518
 9505TIP3    H150006   1.382   1.958  15.390 -0.1244 -0.0978  1.7833
 9505TIP3    H250007   1.249   2.018  15.349  0.5785  0.7052  0.6248
 9506TIP3   OH250008   1.683   5.190  16.349  0.2823  0.3630  0.3698
 9506TIP3    H150009   1.702   5.139  16.428 -0.2520 -0.7270 -0.1870
 9506TIP3    H250010   1.765   5.191  16.300  0.5979  0.9846  0.8831
 9507TIP3   OH250011   4.342   1.337  12.081 -0.1178  0.0855  0.0258
 9507TIP3    H150012   4.412   1.331  12.146 -0.7849 -2.2759  0.6333
 9507TIP3    H250013   4.272   1.282  12.116 -1.0339 -0.1929 -2.0867
 9508TIP3   OH250014   2.587   6.342   2.392 -0.4127 -0.5441  0.0271
 9508TIP3    H150015   2.664   6.322   2.339 -0.7042 -0.5647 -0.3960
 9508TIP3    H250016   2.537   6.404   2.339 -0.5214 -0.2682  0.4458
 9509TIP3   OH250017   1.322   2.745  15.041 -0.1315  0.7091 -0.1751
 9509TIP3    H150018   1.238   2.743  15.086 -0.0442  0.0298 -0.0312
 9509TIP3    H250019   1.340   2.653  15.020  0.1555  0.9371 -0.9853
 9510TIP3   OH250020   4.364   1.854   1.827 -0.4532  0.1752 -0.6173
 9510TIP3    H150021   4.274   1.834   1.853 -0.4847 -0.3440 -1.1060
 9510TIP3    H250022   4.358   1.942   1.789 -0.5637  0.5602  0.2706
 9511TIP3   OH250023   3.894   3.798   5.411 -0.0475 -0.4482 -0.7774
 9511TIP3    H150024   3.863   3.770   5.324 -0.2724  0.1313 -0.8890
 9511TIP3    H250025   3.989   3.788   5.406 -0.0848 -0.7617 -0.9632
 9512TIP3   OH250026   3.600   0.156   3.212 -0.0897  0.5406  0.7143
 9512TIP3    H150027   3.616   0.251   3.217  1.3074  0.4422 -0.9687
 9512TIP3    H250028   3.543   0.145   3.136 -0.7045  0.0657  1.2376
 9513TIP3   OH250029   2.101   0.390  15.976 -0.7884  0.5087  0.5310
 9513TIP3    H150030   2.110   0.403  16.071 -0.2432 -2.1487  0.9289
 9513TIP3    H250031   2.152   0.461  15.937  1.4322  0.0307  2.3241
 9514TIP3   OH250032   2.065   4.686   0.911  0.0700 -0.0833  0.0599
 9514TIP3    H150033   2.093   4.743   0.840  2.5397  2.1797  2.6152
 9514TIP3    H250034   1.973   4.710   0.926 -0.3731 -0.3224 -2.0004
 9515TIP3   OH250035   4.726   4.227   1.891 -0.4133 -0.4651  0.1176
 9515TIP3    H150036   4.774   4.236   1.973 -0.4617  0.5834  0.0505
 9515TIP3    H250037   4.668   4.304   1.889  0.2311  0.0245 -1.3109
 9516TIP3   OH250038   0.384   2.242  12.886 -0.4944  0.0604  0.0787
 9516TIP3    H150039   0.364   2.167  12.942  1.1452 -1.3261 -1.1008
 9516TIP3    H250040   0.478   2.257  12.897 -0.6519  1.4933 -0.2595
 9517TIP3   OH250041   3.598   3.775  16.135 -0.4141 -0.0786  0.6115
 9517TIP3    H150042   3.530   3.717  16.101 -0.0223 -0.0697 -0.2246
 9517TIP3    H250043   3.678   3.748  16.089  0.0028  0.3616  1.0709
 9518TIP3   OH250044   2.772   0.763   5.382  0.1048 -0.2340  0.2148
 9518TIP3    H150045   2.773   0.679   5.428  1.4799 -0.2042  0.2956
 9518TIP3    H250046   2.835   0.752   5.310 -1.8949 -0.2439 -1.6476
 9519TIP3   OH250047   4.450   4.693   2.911 -0.1451 -0.0190 -0.1213
 9519TIP3    H150048   4.470   4.742   2.991  0.2564  0.8061 -0.7221
 9519TIP3    H250049   4.436   4.603   2.942 -0.4409  0.3679  0.9308
 9520TIP3   OH250050   0.529   3.519   3.451  0.3947 -0.6192 -0.4598
 9520TIP3    H150051   0.473   3.443   3.469 -0.5485 -0.1046 -1.1154
 9520TIP3    H250052   0.609   3.483   3.415 -0.2942 -1.2883 -1.3710
 9521TIP3   OH250053   3.331   3.422  16.295 -0.6817  0.3719 -0.2892
 9521TIP3    H150054   3.289   3.349  16.340  0.4209 -0.8453 -1.1623
 9521TIP3    H250055   3.390   3.460  16.360 -2.0157  1.1812  0.4922
 9522TIP3   OH250056   5.426   0.435  13.137 -0.1290  0.7076 -0.0217
 9522TIP3    H150057   5.464   0.522  13.131  1.2380  0.2661  1.3723
 9522TIP3    H250058   5.354   0.443  13.200 -0.7476  1.0426 -0.7615
 9523TIP3   OH250059   3.665   4.943   5.895  0.1087  0.3374 -0.5202
 9523TIP3    H150060   3.706   5.020   5.854 -1.7955  1.3976 -0.5267
 9523TIP3    H250061   3.630   4.892   5.822 -0.4345  0.5429 -0.4084
 9524TIP3   OH250062   2.253   0.819  13.804 -0.0335  0.2864 -0.2441
 9524TIP3    H150063   2.307   0.892  13.835  1.1816 -0.4226 -0.6504
 9524TIP3    H250064   2.193   0.860  13.741  0.0482  1.0716  0.1647
 9525TIP3   OH250065   1.398   3.317   0.360  0.6756 -0.1712 -0.0425
 9525TIP3    H150066   1.455   3.303   0.284  0.8763 -2.0143  0.3864
 9525TIP3    H250067   1.321   3.264   0.341 -0.2330  1.0766  0.0863
 9526TIP3   OH250068   3.178   4.060  16.280  0.5192 -0.1622  0.3767
 9526TIP3    H150069   3.248   3.995  16.293  0.1135 -0.8501 -0.7311
 9526TIP3    H250070   3.200   4.101  16.196  0.6759  1.0357  0.9840
 9527TIP3   OH250071   5.663   4.918   0.942 -0.3569  0.0084  0.2884
 9527TIP3    H150072   5.617   4.900   0.860  0.0001  1.1707 -0.1817
 9527TIP3    H250073   5.705   4.834   0.964 -1.8267 -0.7896  0.1963
 9528TIP3   OH250074   2.252   4.131   4.215 -0.0814  0.2945 -0.0593
 9528TIP3    H150075   2.162   4.127   4.247 -0.5160 -0.4493 -1.2961
 9528TIP3    H250076   2.268   4.045   4.175  1.1236  0.4721 -0.0167
 9529TIP3   OH250077   6.165   2.795   4.036  0.1459  0.5812  0.1182
 9529TIP3    H150078   6.100   2.752   4.092 -0.1222  0.6315 -0.1510
 9529TIP3    H250079   6.249   2.763   4.068  0.0008  0.6655  0.5967
 9530TIP3   OH250080   3.157   6.202   0.401 -0.0129  0.1424 -0.0329
 9530TIP3    H150081   3.137   6.295   0.390 -1.4692 -0.2491 -1.0983
 9530TIP3    H250082   3.097   6.158   0.341  0.3998 -1.5125  0.7136
 9531TIP3   OH250083   5.468   2.516  12.892 -0.6240 -0.6757 -0.3451
 9531TIP3    H150084   5.466   2.423  12.872  0.3769 -0.8588  0.3405
 9531TIP3    H250085   5.380   2.535  12.925 -1.4210 -0.9586 -2.1851
 9532TIP3   OH250086   5.700   1.765  16.327  0.2575 -0.2722 -0.0170
 9532TIP3    H150087   5.763   1.775  16.256 -0.0753  0.4463 -0.2199
 9532TIP3    H250088   5.720   1.836  16.387  1.3300 -1.5752  1.2532
 9533TIP3   OH250089   2.265   0.328  15.636  0.3940  0.0155 -0.0801
 9533TIP3    H150090   2.179   0.333  15.677  0.0641  1.4718 -0.8781
 9533TIP3    H250091   2.326   0.318  15.709 -0.3543  0.3531  0.6002
 9534TIP3   OH250092   3.646   3.381  10.359 -0.1799  0.9037 -0.0531
 9534TIP3    H150093   3.665   3.475  10.369  0.8394  0.7266 -0.2568
 9534TIP3    H250094   3.665   3.343  10.445 -1.7262  1.0400  0.3914
 9535TIP3   OH250095   3.219   4.606   4.784 -0.1792 -0.3656 -0.2287
 9535TIP3    H150096   3.125   4.624   4.779 -0.4942 -0.8034  2.5340
 9535TIP3    H250097   3.255   4.681   4.831  0.7327 -0.5780 -0.5699
 9536TIP3   OH250098   2.924   2.757  12.019 -0.2023  0.2721 -0.0407
 9536TIP3    H150099   2.962   2.747  11.931 -1.0303 -0.4423 -0.3342
 9536TIP3    H250100   2.985   2.710  12.076 -0.9219 -1.4142 -0.5947
 9537TIP3   OH250101   4.903   4.233   1.615 -0.2599  0.1902 -0.0690
 9537TIP3    H150102   4.938   4.301   1.557 -0.4323  1.0061  0.7658
 9537TIP3    H250103   4.829   4.274   1.659 -0.1223 -0.4094  0.7514
 9538TIP3   OH250104   6.013   1.764   3.057  0.3291 -0.2038 -0.4185
 9538TIP3    H150105   5.926   1.804   3.055 -0.8359 -2.5972 -1.0311
 9538TIP3    H250106   6.041   1.763   2.966  1.1617  0.7703 -0.1984
 9539TIP3   OH250107   6.131   5.949   1.015  0.0502 -0.1860 -0.0993
 9539TIP3    H150108   6.038   5.966   1.000  0.3450  0.9034 -0.8304
 9539TIP3    H250109   6.157   5.889   0.946  0.0363  0.0492 -0.3110
 9540TIP3   OH250110   0.009   6.264  15.205  0.0954 -0.7985  0.0610
 9540TIP3    H150111  -0.082   6.252  15.234  0.3516  0.5347  1.5790
 9540TIP3    H250112   0.061   6.211  15.266  0.3862 -1.0037 -0.3610
 9541TIP3   OH250113   5.400   1.652   0.447  0.2525 -0.4532  0.2045
 9541TIP3    H150114   5.455   1.704   0.506 -0.8528  0.8467  0.1517
 9541TIP3    H250115   5.312   1.658   0.484 -0.4665  0.3517 -1.5130
 9542TIP3   OH250116   0.360   3.780   2.714  0.2809 -0.3412 -0.2262
 9542TIP3    H150117   0.300   3.798   2.786  0.5196  0.9025 -0.3310
 9542TIP3    H250118   0.311   3.806   2.635  0.3874 -0.7762 -0.4404
 9543TIP3   OH250119   2.451   2.172   5.156  0.2529 -0.2911 -0.6697
 9543TIP3    H150120   2.468   2.111   5.228 -0.0169 -1.5143 -1.5977
 9543TIP3    H250121   2.369   2.215   5.179  0.0710 -0.8142 -0.3232
 9544TIP3   OH250122   0.779   2.304  14.297 -0.1375  0.4701 -0.4592
 9544TIP3    H150123   0.848   2.306  14.231 -1.5479 -1.7608 -2.1316
 9544TIP3    H250124   0.778   2.214  14.329 -1.3585  0.8042  0.5493
 9545TIP3   OH250125   3.795   3.548  13.733  0.1185  0.0881 -0.0117
 9545TIP3    H150126   3.853   3.541  13.657 -0.1943  2.7830 -0.5841
 9545TIP3    H250127   3.707   3.551  13.695 -0.0334  1.5570  0.3887
 9546TIP3   OH250128   1.914   3.610  11.528  0.2556  0.4022 -0.1589
 9546TIP3    H150129   1.873   3.596  11.443 -0.8461  0.0457  0.4150
 9546TIP3    H250130   1.919   3.523  11.568 -0.1687  0.6942  0.5537
 9547TIP3   OH250131   5.427   4.545  16.497  1.1346  0.7380  0.5866
 9547TIP3    H150132   5.371   4.511  16.566  0.1710 -0.7308 -0.8344
 9547TIP3    H250133   5.500   4.484  16.494  1.0908  0.7014  0.2197
 9548TIP3   OH250134   0.722   5.020  13.908  0.0252  0.3241 -0.0366
 9548TIP3    H150135   0.721   5.115  13.924  0.8925  0.5864 -1.3824
 9548TIP3    H250136   0.814   4.995  13.920 -0.4006 -0.6213  1.6124
 9549TIP3   OH250137   3.540   5.881  16.892 -0.4294 -0.1172 -0.0926
 9549TIP3    H150138   3.483   5.807  16.868 -0.5707  0.6567 -2.4225
 9549TIP3    H250139   3.480   5.949  16.921 -0.4108 -0.4148  0.6588
 9550TIP3   OH250140   2.746   2.179  12.847  0.2243 -0.2463 -0.1709
 9550TIP3    H150141   2.667   2.133  12.876  0.6288  0.4321  2.2584
 9550TIP3    H250142   2.818   2.125  12.878  0.7000  1.6299  2.3224
 9551TIP3   OH250143   2.201   6.369   3.767 -0.2997  0.1807  0.7627
 9551TIP3    H150144   2.164   6.281   3.779 -0.1551  0.1192  0.7661
 9551TIP3    H250145   2.275   6.372   3.827  0.0426  0.0992  0.3522
 9552TIP3   OH250146   6.619   0.211  10.935 -0.1715  0.1632 -0.6815
 9552TIP3    H150147   6.664   0.135  10.898 -2.9802 -1.6645 -0.6581
 9552TIP3    H250148   6.536   0.215  10.887 -0.6532  2.4747  0.2167
 9553TIP3   OH250149   4.847   1.455  11.545  0.2870  0.0165  0.2808
 9553TIP3    H150150   4.908   1.490  11.480  1.6819 -1.4002  0.7360
 9553TIP3    H250151   4.824   1.530  11.599  1.9709  0.5380  0.3378
 9554TIP3   OH250152   2.906   5.238   5.466 -0.5777  0.3431  0.1607
 9554TIP3    H150153   2.923   5.160   5.518 -0.5471  1.1260  1.3497
 9554TIP3    H250154   2.992   5.264   5.433 -0.4523  0.3909  0.5193
 9555TIP3   OH250155   6.432   4.134   6.132 -0.2233 -0.0223 -0.0079
 9555TIP3    H150156   6.387   4.050   6.126 -2.1430  0.8659  1.1315
 9555TIP3    H250157   6.449   4.145   6.226 -1.9863  1.8248  0.1422
 9556TIP3   OH250158   2.745   4.657   5.087  0.3859 -0.1672  0.5974
 9556TIP3    H150159   2.813   4.619   5.143 -0.7950  0.0568  2.2502
 9556TIP3    H250160   2.754   4.751   5.098  0.2273 -0.1124  0.2809
 9557TIP3   OH250161   5.616   3.515   2.028 -0.0756  0.0750 -0.2919
 9557TIP3    H150162   5.626   3.507   1.933 -1.2647  0.5652 -0.4685
 9557TIP3    H250163   5.695   3.560   2.056  1.0761 -1.5102 -0.8107
 9558TIP3   OH250164   5.020   1.970  13.249  0.4431 -0.3833 -0.1774
 9558TIP3    H150165   5.064   1.983  13.333  0.4888 -2.5056  0.1817
 9558TIP3    H250166   5.075   1.907  13.203 -0.5533 -0.6537 -1.0410
 9559TIP3   OH250167   2.845   5.362   4.378 -0.0245  0.5962  0.0064
 9559TIP3    H150168   2.786   5.401   4.443  0.5708  1.5977 -0.0312
 9559TIP3    H250169   2.927   5.411   4.387 -0.4703  2.0482 -2.7205
 9560TIP3   OH250170   2.272   0.960   4.710  0.3835  0.3682  0.1002
 9560TIP3    H150171   2.188   0.974   4.668  0.0369  0.0663  0.6705
 9560TIP3    H250172   2.257   0.887   4.770  1.2205 -0.1148 -0.2548
 9561TIP3   OH250173   1.427   1.872   3.765 -0.2084  0.0577  0.4397
 9561TIP3    H150174   1.371   1.835   3.833 -0.7342  1.9704  1.1392
 9561TIP3    H250175   1.511   1.885   3.808 -0.1073 -0.0988  0.2857
 9562TIP3   OH250176   4.961   1.806   6.244 -0.1047  0.5325 -0.1193
 9562TIP3    H150177   4.879   1.774   6.206 -0.4175  1.7684 -0.5744
 9562TIP3    H250178   4.949   1.901   6.249  0.9557  0.6452  0.6628
 9563TIP3   OH250179   3.676   4.660  12.450 -0.4882 -0.1220 -0.5012
 9563TIP3    H150180   3.733   4.686  12.378 -0.0347  2.1105  0.5740
 9563TIP3    H250181   3.709   4.708  12.526 -1.9928 -1.0777  0.8332
 9564TIP3   OH250182   0.027   4.387   2.968 -0.1307  0.0993  0.5124
 9564TIP3    H150183  -0.028   4.312   2.949 -0.3661  0.5030 -0.4684
 9564TIP3    H250184  -0.031   4.463   2.957  0.1064  0.4299  1.4588
 9565TIP3   OH250185   2.318   5.931  12.829  0.0864  0.2191 -0.2270
 9565TIP3    H150186   2.317   5.835  12.823  0.8622  0.2523 -1.1693
 9565TIP3    H250187   2.229   5.954  12.856 -0.0338 -0.7765  0.2929
 9566TIP3   OH250188   1.563   3.673   5.077 -0.0241  0.2693 -0.3529
 9566TIP3    H150189   1.538   3.670   5.169 -0.4500  0.2531 -0.4651
 9566TIP3    H250190   1.653   3.639   5.075  0.0261  0.3738  0.0678
 9567TIP3   OH250191   3.044   1.700   4.193 -0.3141 -0.3590  0.0476
 9567TIP3    H150192   2.972   1.761   4.178 -1.3174 -0.6583  2.8883
 9567TIP3    H250193   3.118   1.756   4.219  0.2090 -0.1208 -1.8458
 9568TIP3   OH250194   3.950   3.208  14.204  0.0921  0.5524  0.5963
 9568TIP3    H150195   4.004   3.275  14.161 -1.1650  1.1232 -0.1510
 9568TIP3    H250196   3.910   3.159  14.132 -0.4280  0.1673  1.1342
 9569TIP3   OH250197   4.716   1.872  12.294  0.1321 -0.0694  0.2332
 9569TIP3    H150198   4.645   1.812  12.316 -0.6318  1.6662  3.0388
 9569TIP3    H250199   4.795   1.817  12.293 -0.7935 -1.4444  0.5993
 9570TIP3   OH250200   6.617   0.209   5.948  0.2311  0.2673 -0.1147
 9570TIP3    H150201   6.708   0.179   5.950  0.1674 -0.1658 -2.1991
 9570TIP3    H250202   6.623   0.302   5.970  1.1557  0.2002 -0.0165
 9571TIP3   OH250203   3.051   4.525  10.401  0.5925 -0.6121  0.1574
 9571TIP3    H150204   2.998   4.446  10.407  1.5111 -1.2832 -0.3807
 9571TIP3    H250205   3.141   4.495  10.418  0.7361  0.6126  1.8183
 9572TIP3   OH250206   2.568   4.660  17.071 -0.0954 -0.1962 -0.0539
 9572TIP3    H150207   2.513   4.657  17.149  0.3893 -0.2141  0.2857
 9572TIP3    H250208   2.523   4.722  17.013 -1.5275 -1.6776 -0.5870
 9573TIP3   OH250209   6.030   5.794   5.654  0.0178 -0.1166 -0.2654
 9573TIP3    H150210   6.103   5.733   5.647 -0.4407 -0.8272  0.8183
 9573TIP3    H250211   6.042   5.854   5.581  1.7218 -0.1600 -0.0652
 9574TIP3   OH250212   2.082   1.453  13.476 -0.6657 -0.0741  0.1620
 9574TIP3    H150213   2.137   1.481  13.549  0.5154 -3.1654  0.6289
 9574TIP3    H250214   2.128   1.482  13.398 -0.0815  0.2067  0.6018
 9575TIP3   OH250215   1.455   0.791  15.341 -0.4737  0.0381 -0.1106
 9575TIP3    H150216   1.446   0.778  15.436  1.1509 -0.8565 -0.0355
 9575TIP3    H250217   1.450   0.703  15.304  1.2334  0.0995 -0.5891
 9576TIP3   OH250218   5.869   2.240   4.595  0.4008 -0.2709  0.4583
 9576TIP3    H150219   5.945   2.204   4.642  1.7226  0.8062 -0.7428
 9576TIP3    H250220   5.864   2.188   4.515  2.1023  1.8073 -1.1212
 9577TIP3   OH250221   1.022   4.606   0.234  0.2590  0.3117 -0.6146
 9577TIP3    H150222   1.087   4.536   0.228  0.2154  0.2862 -0.8109
 9577TIP3    H250223   1.023   4.646   0.147  0.5364  0.7788 -0.4010
 9578TIP3   OH250224   1.634   6.597  13.428  0.4336 -0.3503 -0.7033
 9578TIP3    H150225   1.638   6.692  13.444 -3.2046  0.1108 -1.6446
 9578TIP3    H250226   1.605   6.560  13.512 -1.8100 -0.0923 -1.3182
 9579TIP3   OH250227   1.871   2.889  15.996 -0.2176  0.2931 -0.8251
 9579TIP3    H150228   1.927   2.963  15.973  0.1916 -0.6068 -3.0099
 9579TIP3    H250229   1.921   2.841  16.062  0.5995  0.7006 -1.1305
 9580TIP3   OH250230   0.857   5.488   1.469 -0.6058 -0.7096 -0.3374
 9580TIP3    H150231   0.876   5.573   1.431 -0.3883 -0.5215  0.1854
 9580TIP3    H250232   0.798   5.446   1.406 -3.5796  1.1900  0.9736
 9581TIP3   OH250233   4.526   2.283  11.335 -0.1810 -0.1317 -0.1408
 9581TIP3    H150234   4.573   2.208  11.370 -0.3368 -0.1741 -0.0190
 9581TIP3    H250235   4.589   2.327  11.278  0.1618  0.0948  0.4123
 9582TIP3   OH250236   5.239   1.443   4.935  0.7641  0.0677  0.4307
 9582TIP3    H150237   5.148   1.465   4.956  0.4629 -0.1783 -0.5680
 9582TIP3    H250238   5.250   1.354   4.968  0.3232 -0.2845 -0.3688
 9583TIP3   OH250239   1.347   5.149  14.335 -0.2680  0.0709 -0.5386
 9583TIP3    H150240   1.286   5.214  14.370 -0.8461 -1.7740  2.1089
 9583TIP3    H250241   1.429   5.164  14.382 -0.2255 -0.7182 -0.3458
 9584TIP3   OH250242   4.636   5.987  10.967  0.3889  0.0833 -0.9155
 9584TIP3    H150243   4.623   5.917  11.031  2.4811 -1.2995 -1.8736
 9584TIP3    H250244   4.612   5.948  10.883 -1.8378  1.7178 -1.1204
 9585TIP3   OH250245   5.479   4.700   5.001 -0.2922 -0.2189  0.7695
 9585TIP3    H150246   5.400   4.711   5.054 -1.1423  1.0955 -0.6999
 9585TIP3    H250247   5.450   4.713   4.911  1.6770  0.7510  0.2225
 9586TIP3   OH250248   5.630   1.247  13.264  0.0400 -0.5855  0.3068
 9586TIP3    H150249   5.613   1.218  13.175  0.9587 -0.2669  0.0116
 9586TIP3    H250250   5.543   1.257  13.304 -0.3982 -0.2252 -0.7137
 9587TIP3   OH250251   0.687   0.748  12.305 -0.2072  0.2561 -0.1347
 9587TIP3    H150252   0.633   0.822  12.277  0.0701 -0.0511 -1.5417
 9587TIP3    H250253   0.637   0.706  12.375 -0.8211  1.1783 -0.0007
 9588TIP3   OH250254   5.654   4.737  15.826 -0.2749  0.4977 -0.2083
 9588TIP3    H150255   5.686   4.823  15.797  1.9039 -0.7506 -1.7510
 9588TIP3    H250256   5.730   4.695  15.865 -0.9232 -1.3206 -0.8272
 9589TIP3   OH250257   4.485   3.820  12.870  0.6156 -0.7234  0.0741
 9589TIP3    H150258   4.390   3.818  12.875  0.5805 -1.0582 -0.5830
 9589TIP3    H250259   4.505   3.903  12.827  0.5657 -1.0793 -0.6563
 9590TIP3   OH250260   6.130   5.982  11.977  0.5533 -0.0796  0.6190
 9590TIP3    H150261   6.114   6.044  12.048  0.8745  0.9585 -0.1928
 9590TIP3    H250262   6.216   5.945  11.996  0.3128 -0.3520  1.1678
 9591TIP3   OH250263   0.638   4.750   4.977  0.1003  0.1088  0.6710
 9591TIP3    H150264   0.674   4.697   5.049 -0.3356  0.3895  1.1068
 9591TIP3    H250265   0.552   4.777   5.009  0.0957  0.6241  0.2268
 9592TIP3   OH250266   3.057   3.113  13.424  0.0057 -0.4502  0.3893
 9592TIP3    H150267   2.964   3.098  13.445 -0.2248 -0.4362 -0.5639
 9592TIP3    H250268   3.092   3.025  13.409 -0.1881 -0.3791 -0.5485
 9593TIP3   OH250269   6.640   0.463  12.508  0.2614 -0.1527  0.6478
 9593TIP3    H150270   6.547   0.441  12.507  0.8654 -3.0466  0.7825
 9593TIP3    H250271   6.646   0.538  12.568 -2.2645  2.0403 -1.6067
 9594TIP3   OH250272   1.162   2.325   6.031  0.5044 -0.5097 -0.0539
 9594TIP3    H150273   1.119   2.409   6.015  0.1084 -0.7869 -0.4491
 9594TIP3    H250274   1.166   2.319   6.127 -0.3651 -0.4849 -0.0012
 9595TIP3   OH250275   0.457   6.657  16.138 -0.6036 -0.1567 -0.0085
 9595TIP3    H150276   0.377   6.699  16.106 -0.7260 -0.6139 -0.3105
 9595TIP3    H250277   0.528   6.709  16.100 -0.7493  0.3106  0.3401
 9596TIP3   OH250278   1.827   1.197  14.874 -0.1473 -0.6052 -0.0354
 9596TIP3    H150279   1.844   1.130  14.940 -0.1178 -0.5241  0.0403
 9596TIP3    H250280   1.908   1.202  14.824 -0.3886 -1.1254 -0.4917
 9597TIP3   OH250281   3.629   6.519   5.048 -0.2091  0.1033 -0.4233
 9597TIP3    H150282   3.573   6.496   4.974 -1.7699  2.4221 -0.0460
 9597TIP3    H250283   3.606   6.456   5.116 -0.8266 -0.2682 -0.9705
 9598TIP3   OH250284   0.801   0.602   5.385 -0.5891  0.2161  0.2561
 9598TIP3    H150285   0.815   0.519   5.338 -0.6115  0.1424  0.3796
 9598TIP3    H250286   0.831   0.584   5.474 -1.5855  0.0138  0.5648
 9599TIP3   OH250287   2.844   6.084   4.164  0.0997 -0.1972 -0.2864
 9599TIP3    H150288   2.788   6.093   4.241 -0.0589 -1.2612 -0.2581
 9599TIP3    H250289   2.785   6.098   4.090  0.0563 -0.0876 -0.2309
 9600TIP3   OH250290   5.356   2.403   1.019 -0.8144  0.0403  0.0194
 9600TIP3    H150291   5.299   2.336   1.057  1.2834 -0.1418  3.2446
 9600TIP3    H250292   5.384   2.455   1.094  2.1829  0.9269 -1.5639
 9601TIP3   OH250293   0.446   5.521  14.445  0.5741  0.7228 -0.1303
 9601TIP3    H150294   0.491   5.439  14.465 -0.8666  0.0698  0.5290
 9601TIP3    H250295   0.357   5.509  14.478  0.0684  2.2099 -0.8574
 9602TIP3   OH250296   3.720   2.403   3.195  0.0205 -0.0302  0.0787
 9602TIP3    H150297   3.711   2.338   3.125  3.6540  0.1298 -0.7135
 9602TIP3    H250298   3.736   2.351   3.274 -1.7183 -0.1438  0.3901
 9603TIP3   OH250299   0.594   1.223  15.173 -0.0397 -0.5833 -0.5582
 9603TIP3    H150300   0.553   1.204  15.258 -0.0746 -0.9557 -0.6542
 9603TIP3    H250301   0.676   1.267  15.195  1.5544 -3.4859 -0.1462
 9604TIP3   OH250302   0.597   3.080  12.012  0.2068 -0.7467 -0.3894
 9604TIP3    H150303   0.689   3.096  12.035  0.1564 -0.5140 -0.3472
 9604TIP3    H250304   0.566   3.165  11.979 -0.3526 -0.4685  0.8124
 9605TIP3   OH250305   0.157   5.169  16.435  0.7362 -0.1361 -0.5324
 9605TIP3    H150306   0.075   5.175  16.385 -0.1263 -1.7831  0.5934
 9605TIP3    H250307   0.220   5.220  16.384 -0.6650  0.1100 -2.0994
 9606TIP3   OH250308   2.696   5.926  11.732 -0.1921  0.1083 -0.1525
 9606TIP3    H150309   2.668   6.000  11.785 -2.9183 -1.3003  0.5818
 9606TIP3    H250310   2.628   5.917  11.665  1.1931 -0.4736 -1.5568
 9607TIP3   OH250311   2.526   1.371  12.093 -0.3738 -0.2405  0.5178
 9607TIP3    H150312   2.601   1.401  12.041 -1.4280  1.4370 -0.1133
 9607TIP3    H250313   2.449   1.393  12.039 -1.4302  0.1926  2.1389
 9608TIP3   OH250314   1.220   1.650  15.004  0.2063 -0.5229 -0.7052
 9608TIP3    H150315   1.314   1.663  14.995  0.0113  0.4192 -1.4928
 9608TIP3    H250316   1.202   1.664  15.097  0.6384  0.7078 -0.7958
 9609TIP3   OH250317   2.984   3.141  13.029 -0.0728  0.4189  0.5629
 9609TIP3    H150318   3.071   3.180  13.016  0.2950 -0.8010 -1.0342
 9609TIP3    H250319   2.996   3.079  13.100  0.4644  0.0228  0.1384
 9610TIP3   OH250320   4.705   3.395  16.771 -0.4995 -0.1525 -0.4086
 9610TIP3    H150321   4.649   3.384  16.694 -2.3699  0.3248  0.8190
 9610TIP3    H250322   4.704   3.489  16.789  0.6755 -0.1390 -0.3171
 9611TIP3   OH250323   3.615   0.302   1.874 -0.8799  0.3448  0.5530
 9611TIP3    H150324   3.610   0.250   1.954 -1.3206  1.1635  1.0709
 9611TIP3    H250325   3.596   0.240   1.804  0.3204 -0.5558  0.9994
 9612TIP3   OH250326   0.623   5.567   2.171 -0.2140  0.5405  0.3137
 9612TIP3    H150327   0.678   5.592   2.096 -2.4967 -0.7904 -1.9600
 9612TIP3    H250328   0.538   5.605   2.151 -0.3039  2.4630  3.6899
 9613TIP3   OH250329   4.980   3.517   5.859 -0.4945 -0.0176 -0.0869
 9613TIP3    H150330   4.907   3.471   5.901  0.0113 -1.1850 -0.4687
 9613TIP3    H250331   4.998   3.591   5.917 -0.7047 -0.8232  1.0352
 9614TIP3   OH250332   2.859   0.838   3.472 -0.6597  0.0756  0.1470
 9614TIP3    H150333   2.782   0.821   3.418  0.7815  1.7698 -2.6695
 9614TIP3    H250334   2.919   0.767   3.450 -0.0013  0.8684 -0.7139
 9615TIP3   OH250335   4.315   5.565  12.713 -0.2688  0.6904  0.2603
 9615TIP3    H150336   4.296   5.640  12.770 -0.1773  1.1502 -0.3051
 9615TIP3    H250337   4.410   5.566  12.703  0.0148 -0.9057  2.1285
 9616TIP3   OH250338   5.340   5.656   4.870 -0.0048 -0.2172 -0.1159
 9616TIP3    H150339   5.279   5.729   4.885 -0.9730 -1.0370  0.0910
 9616TIP3    H250340   5.336   5.605   4.951 -0.5439 -1.3336 -0.8243
 9617TIP3   OH250341   6.746   3.198  16.228  1.0396 -0.1767 -0.2217
 9617TIP3    H150342   6.711   3.148  16.154 -0.4261 -1.0756  1.0133
 9617TIP3    H250343   6.800   3.136  16.276  0.4100 -0.1670  0.5145
 9618TIP3   OH250344   3.602   2.219   0.227  0.2959 -0.0192 -0.1332
 9618TIP3    H150345   3.526   2.237   0.282 -0.1737 -1.3639 -0.2926
 9618TIP3    H250346   3.600   2.286   0.159  0.1369  0.8709  0.7253
 9619TIP3   OH250347   0.533   1.241   4.221  0.4754  0.6061 -0.3081
 9619TIP3    H150348   0.579   1.314   4.263  2.6745 -1.1911  0.6346
 9619TIP3    H250349   0.525   1.267   4.130 -0.2961  2.6945  0.2897
 9620TIP3   OH250350   5.254   6.667   1.854 -0.4364  0.2667 -1.0154
 9620TIP3    H150351   5.192   6.676   1.926  2.0946  1.1108  1.2381
 9620TIP3    H250352   5.224   6.590   1.806 -1.3645 -1.3779  1.9336
 9621TIP3   OH250353   3.542   5.654  17.078 -0.9986 -0.8587 -0.3012
 9621TIP3    H150354   3.475   5.708  17.036 -0.4303 -0.0052 -0.1336
 9621TIP3    H250355   3.621   5.670  17.027  0.0591  1.2957  1.8302
 9622TIP3   OH250356   0.237   0.860  16.553  0.0109  0.1026 -0.1657
 9622TIP3    H150357   0.186   0.849  16.473 -1.0356  0.8417  0.3879
 9622TIP3    H250358   0.313   0.802  16.541  0.5678  1.1606 -2.2512
 9623TIP3   OH250359   5.057   2.061  11.532 -0.0794 -0.1920 -0.0953
 9623TIP3    H150360   5.074   2.138  11.477  0.5511  0.7108  1.3054
 9623TIP3    H250361   4.969   2.075  11.566  0.3996  0.4022  0.9159
 9624TIP3   OH250362   4.490   3.341   0.053  0.4391  0.6133  0.0977
 9624TIP3    H150363   4.468   3.398  -0.020  1.6103  1.1897  0.1726
 9624TIP3    H250364   4.459   3.388   0.130 -2.0341 -0.6079 -0.0687
 9625TIP3   OH250365   1.848   3.286  15.378  0.1864 -0.5803 -0.6107
 9625TIP3    H150366   1.892   3.277  15.294 -0.6171 -1.0424 -0.9982
 9625TIP3    H250367   1.857   3.199  15.418  0.1298 -0.5099 -0.4466
 9626TIP3   OH250368   5.158   1.213   1.541 -0.2870 -0.2291 -0.7691
 9626TIP3    H150369   5.127   1.124   1.521 -0.6002 -0.7372  1.5902
 9626TIP3    H250370   5.152   1.260   1.458 -1.1186 -2.1208 -1.8608
 9627TIP3   OH250371   4.509   0.995  12.896  0.1205  0.0706 -0.0342
 9627TIP3    H150372   4.455   0.951  12.961 -0.2419 -0.9599 -1.0042
 9627TIP3    H250373   4.501   0.941  12.817  0.8469  1.0791 -0.8264
 9628TIP3   OH250374   4.977   1.706   0.692  0.5223 -0.6639 -0.5475
 9628TIP3    H150375   5.037   1.708   0.618 -0.2332  0.9192 -1.1638
 9628TIP3    H250376   4.955   1.798   0.708 -0.2318 -1.0564  0.9055
 9629TIP3   OH250377   3.194   5.002   5.475 -0.0793 -0.1999 -0.4088
 9629TIP3    H150378   3.176   4.958   5.392  0.8930 -0.8253 -0.3102
 9629TIP3    H250379   3.108   5.018   5.514 -0.4918 -1.1252 -0.9167
 9630TIP3   OH250380   5.100   3.457  14.432 -0.4032 -0.7290 -0.2661
 9630TIP3    H150381   5.058   3.447  14.347  1.4960  0.5659 -1.4426
 9630TIP3    H250382   5.038   3.507  14.485 -1.3397 -0.9930 -1.0897
 9631TIP3   OH250383   5.501   5.766  11.781 -0.5163  0.1409  0.0646
 9631TIP3    H150384   5.436   5.824  11.821  0.1538  1.4996 -0.7593
 9631TIP3    H250385   5.581   5.783  11.830 -0.2622  0.0812 -0.3308
 9632TIP3   OH250386   1.038   6.832  14.475  0.1866 -0.2453  0.2730
 9632TIP3    H150387   0.971   6.898  14.458 -0.3469 -0.8775 -0.1206
 9632TIP3    H250388   1.108   6.852  14.412 -0.0776 -0.1894 -0.0084
 9633TIP3   OH250389   2.630   4.203   0.952  0.1951  0.2004 -0.2173
 9633TIP3    H150390   2.553   4.236   0.999 -0.3052 -1.7320  0.4482
 9633TIP3    H250391   2.692   4.180   1.021  0.1084 -1.1104 -0.5348
 9634TIP3   OH250392   6.093   1.158  15.348  0.3681 -0.1927 -0.0081
 9634TIP3    H150393   6.055   1.245  15.351 -1.7698 -0.6917 -4.3511
 9634TIP3    H250394   6.039   1.106  15.408 -1.9745  0.4280 -1.4526
 9635TIP3   OH250395   0.478   5.413  11.437 -0.0683  0.0503 -0.4954
 9635TIP3    H150396   0.558   5.408  11.490  0.6663 -0.9144 -1.6458
 9635TIP3    H250397   0.421   5.472  11.486  1.7198  1.5774 -0.1392
 9636TIP3   OH250398   2.795   1.546   1.082 -0.0380  0.0195 -0.5855
 9636TIP3    H150399   2.880   1.565   1.121  0.1505  0.5176 -1.2158
 9636TIP3    H250400   2.781   1.617   1.019 -1.1225  0.1952 -0.1753
 9637TIP3   OH250401   3.665   3.197   1.467 -0.1833 -0.4151 -0.0016
 9637TIP3    H150402   3.681   3.105   1.447 -0.5735 -0.3627 -0.5764
 9637TIP3    H250403   3.747   3.241   1.446  0.4404 -0.8026  1.4964
 9638TIP3   OH250404   1.710   3.527   4.336 -0.7510  0.0814 -0.0825
 9638TIP3    H150405   1.752   3.597   4.387 -1.0386 -0.1031  0.4120
 9638TIP3    H250406   1.709   3.452   4.395 -0.9347 -0.1863 -0.4236
 9639TIP3   OH250407   4.787   1.370   6.014 -0.2756 -0.6026 -0.6878
 9639TIP3    H150408   4.720   1.427   6.051  0.7626  0.8916 -1.0076
 9639TIP3    H250409   4.844   1.347   6.088 -0.9249 -1.6148 -0.4772
 9640TIP3   OH250410   3.506   4.675  14.616  0.2249  0.5769  0.4024
 9640TIP3    H150411   3.583   4.665  14.561  0.3260  2.0404  0.2352
 9640TIP3    H250412   3.527   4.749  14.674 -0.5880  0.2364  1.1654
 9641TIP3   OH250413   6.703   3.282  12.883  0.4889  0.2750  0.0179
 9641TIP3    H150414   6.758   3.205  12.897  1.3575  1.1400  1.5716
 9641TIP3    H250415   6.624   3.265  12.935  1.3586  1.0871  1.6579
 9642TIP3   OH250416   6.648   5.137   2.684 -0.9567 -0.5442  0.4364
 9642TIP3    H150417   6.649   5.180   2.770  0.6618 -0.3076  0.3281
 9642TIP3    H250418   6.696   5.055   2.698  1.1181  0.4027 -0.6412
 9643TIP3   OH250419   2.683   1.761  17.181 -0.1932 -0.3004  0.3762
 9643TIP3    H150420   2.727   1.787  17.100 -1.1058  0.5711  0.1523
 9643TIP3    H250421   2.739   1.795  17.251  0.1943 -0.3917  0.1124
 9644TIP3   OH250422   4.624   5.896   4.302 -0.2097 -0.9760  0.5663
 9644TIP3    H150423   4.605   5.943   4.384 -2.6490 -1.4896  0.3645
 9644TIP3    H250424   4.647   5.808   4.330  0.6017 -0.7186  0.7493
 9645TIP3   OH250425   1.742   3.577   4.826  0.3741  0.0016  0.3674
 9645TIP3    H150426   1.774   3.565   4.915  1.8969  0.6160 -0.0663
 9645TIP3    H250427   1.782   3.659   4.797 -0.5723  0.1165 -0.6745
 9646TIP3   OH250428   0.911   0.480  16.847 -0.1649 -0.3246 -0.3479
 9646TIP3    H150429   0.865   0.520  16.920  1.8969 -1.8883  1.9854
 9646TIP3    H250430   0.934   0.553  16.789 -1.9106  0.9482  0.4820
 9647TIP3   OH250431   1.392   2.703   5.988  0.3853  0.4963  0.4163
 9647TIP3    H150432   1.350   2.641   6.048 -0.8522  0.7781 -0.1313
 9647TIP3    H250433   1.480   2.714   6.023 -0.9199  2.3946  3.5557
 9648TIP3   OH250434   4.075   3.967  16.007  0.1678 -0.0075  0.2740
 9648TIP3    H150435   4.154   3.983  16.058  0.1152 -1.1213  0.7214
 9648TIP3    H250436   4.106   3.947  15.919  0.3807 -0.4286  0.4456
 9649TIP3   OH250437   0.636   0.044   1.079  0.2614 -0.0378 -0.1192
 9649TIP3    H150438   0.692   0.050   1.157 -0.4022  2.4006  0.2682
 9649TIP3    H250439   0.690   0.001   1.013  1.3677 -0.8007  1.2380
 9650TIP3   OH250440   0.857   3.445   5.518  0.4030  0.5628  0.6650
 9650TIP3    H150441   0.886   3.507   5.584  1.5501  0.1390  0.5820
 9650TIP3    H250442   0.908   3.468   5.440 -0.9399  1.0711 -0.0988
 9651TIP3   OH250443   3.928   2.271   1.116  0.1043  0.4347  0.3465
 9651TIP3    H150444   3.943   2.211   1.190  1.0121 -1.1877 -1.0826
 9651TIP3    H250445   3.862   2.226   1.062  0.2403  1.0893 -0.3708
 9652TIP3   OH250446   4.873   2.423  15.554 -0.0194 -0.0232  0.2729
 9652TIP3    H150447   4.834   2.390  15.474 -1.6240  2.0187  0.1355
 9652TIP3    H250448   4.968   2.417  15.539 -0.2879  0.1797 -1.7204
 9653TIP3   OH250449   1.595   3.525   2.063  0.1884 -0.1338  0.4113
 9653TIP3    H150450   1.680   3.568   2.047  0.7323 -0.9627  0.9840
 9653TIP3    H250451   1.530   3.593   2.047  0.9406  0.4082 -0.4592
 9654TIP3   OH250452   4.657   1.007   3.636  0.1746 -0.3020  0.4769
 9654TIP3    H150453   4.567   1.006   3.603  0.1192  0.4030  0.5914
 9654TIP3    H250454   4.648   1.031   3.728  0.4572 -0.5312  0.5648
 9655TIP3   OH250455   1.225   6.619   1.761 -0.1459  0.0876 -0.2873
 9655TIP3    H150456   1.273   6.543   1.794 -0.5905 -0.4339 -0.8073
 9655TIP3    H250457   1.290   6.667   1.709 -0.2224 -0.7349 -1.1783
 9656TIP3   OH250458   1.703   1.272  15.779  0.1092  0.0385  0.4060
 9656TIP3    H150459   1.699   1.176  15.771 -0.3453  0.0671  0.2605
 9656TIP3    H250460   1.793   1.294  15.755 -0.1289 -0.2455 -0.8577
 9657TIP3   OH250461   2.114   6.054  13.171  0.6488  0.2406  0.0165
 9657TIP3    H150462   2.105   6.149  13.156  0.0140  0.0718 -0.7890
 9657TIP3    H250463   2.065   6.015  13.099  0.2379 -0.6961  0.7854
 9658TIP3   OH250464   0.173   1.961  15.510 -0.0123  0.6683 -0.0043
 9658TIP3    H150465   0.082   1.955  15.480  0.2190  0.3541 -0.6814
 9658TIP3    H250466   0.224   1.962  15.429  0.8243 -3.0824  0.2621
 9659TIP3   OH250467   5.815   1.763   5.527  0.1784  0.3195  0.0163
 9659TIP3    H150468   5.760   1.689   5.502  0.3218  0.0272  0.5356
 9659TIP3    H250469   5.758   1.817   5.582  1.2219 -1.6376  3.3797
 9660TIP3   OH250470   1.575   6.086   4.211 -0.3862  0.3135  0.0602
 9660TIP3    H150471   1.502   6.105   4.152  0.5149 -0.7627 -1.4529
 9660TIP3    H250472   1.625   6.167   4.215 -0.9022  0.6360  0.0008
 9661TIP3   OH250473   0.588   2.358   2.887  0.2198 -0.0216 -0.1907
 9661TIP3    H150474   0.531   2.326   2.958 -1.1923 -1.6701 -1.9674
 9661TIP3    H250475   0.676   2.332   2.913  0.0600  1.2721  1.9232
 9662TIP3   OH250476   4.816   3.059  16.358 -0.1123 -0.1506 -0.0576
 9662TIP3    H150477   4.787   2.986  16.413 -1.0218 -0.9072 -1.4827
 9662TIP3    H250478   4.883   3.021  16.301 -0.6946  0.0688 -0.9132
 9663TIP3   OH250479   6.741   2.657   6.346 -0.0602 -0.7000  0.1089
 9663TIP3    H150480   6.834   2.658   6.324  0.1202 -0.7163  0.8472
 9663TIP3    H250481   6.705   2.734   6.302  0.2968 -0.7087 -0.2009
 9664TIP3   OH250482   6.840   1.460  10.383 -0.1382  0.0700 -0.1249
 9664TIP3    H150483   6.924   1.507  10.378 -0.4299  0.6645  0.4071
 9664TIP3    H250484   6.816   1.465  10.476 -0.3959 -0.7548 -0.1401
 9665TIP3   OH250485   5.727   6.078  16.842 -0.1259  0.4741 -0.2882
 9665TIP3    H150486   5.771   6.110  16.920  0.9506 -1.1797 -0.1549
 9665TIP3    H250487   5.779   6.002  16.815 -2.1979 -0.8199 -0.8485
 9666TIP3   OH250488   6.324   3.994   2.576  0.4626 -0.9148  0.0970
 9666TIP3    H150489   6.235   3.971   2.550  0.6672 -1.8554  0.1820
 9666TIP3    H250490   6.337   4.083   2.543 -0.6526 -0.6026  0.4625
 9667TIP3   OH250491   3.480   6.176  15.403  0.0555 -0.4697 -0.1773
 9667TIP3    H150492   3.544   6.236  15.363  0.4166 -0.7456 -0.0229
 9667TIP3    H250493   3.509   6.169  15.494 -0.1818 -0.6196 -0.1127
 9668TIP3   OH250494   2.421   4.138  13.293  0.1214  0.1760 -0.0967
 9668TIP3    H150495   2.412   4.210  13.231 -0.4017  0.9319  0.8222
 9668TIP3    H250496   2.436   4.181  13.377  1.7315 -0.8413  0.1743
 9669TIP3   OH250497   3.722   0.821   5.481 -0.0206  0.3795 -0.1224
 9669TIP3    H150498   3.753   0.810   5.391  0.3066 -0.4642  0.0947
 9669TIP3    H250499   3.763   0.902   5.510  1.3400 -0.2984 -0.1096
 9670TIP3   OH250500   6.379   2.528   3.086  0.1509  0.1817  0.4721
 9670TIP3    H150501   6.438   2.599   3.112  0.0012  1.0759 -1.4199
 9670TIP3    H250502   6.429   2.448   3.101  1.5693  0.8742 -0.3401
 9671TIP3   OH250503   1.442   6.797  15.749  0.1271  0.0385  0.1411
 9671TIP3    H150504   1.371   6.852  15.782 -0.0835  0.7159 -1.3388
 9671TIP3    H250505   1.520   6.830  15.793  0.1553  2.2223 -1.3595
 9672TIP3   OH250506   5.972   3.309  12.381  0.3830  0.5131 -0.0620
 9672TIP3    H150507   5.925   3.393  12.373 -0.6378 -0.0975 -0.6508
 9672TIP3    H250508   6.024   3.319  12.460 -2.3135  0.4941  1.8540
 9673TIP3   OH250509   3.846   6.069  15.080 -0.0900  0.4009 -0.0169
 9673TIP3    H150510   3.890   6.006  15.023  0.2672  0.9734 -0.3926
 9673TIP3    H250511   3.802   6.129  15.020  0.7275  1.3236  0.2667
 9674TIP3   OH250512   1.060   4.342  15.315  0.1278 -0.4033  0.3952
 9674TIP3    H150513   1.087   4.362  15.404 -0.6857 -0.9175  0.7663
 9674TIP3    H250514   0.991   4.277  15.325 -0.4067 -0.0056 -0.5797
 9675TIP3   OH250515   1.941   0.315  12.660  0.0987 -0.4159  0.4881
 9675TIP3    H150516   2.027   0.306  12.700 -0.1363  0.7309  1.3206
 9675TIP3    H250517   1.913   0.225  12.642  1.7667 -0.7690 -0.5025
 9676TIP3   OH250518   6.061   5.189   2.543  0.1076  0.1410 -0.0417
 9676TIP3    H150519   6.093   5.101   2.526 -0.4419 -0.9873  3.8462
 9676TIP3    H250520   5.971   5.178   2.572 -0.8682  2.3386 -1.8572
 9677TIP3   OH250521   4.092   6.768  14.574  0.3958  0.2411 -0.0233
 9677TIP3    H150522   4.139   6.741  14.653  1.0387  1.3320 -0.0142
 9677TIP3    H250523   4.082   6.863  14.584 -0.5544  0.2197 -0.7087
 9678TIP3   OH250524   4.876   6.419   2.734  0.7263  0.6581  0.4458
 9678TIP3    H150525   4.927   6.407   2.654 -0.6454 -0.2066 -0.3330
 9678TIP3    H250526   4.806   6.479   2.710 -0.9912 -1.2759  0.3347
 9679TIP3   OH250527   2.675   2.490  12.300  0.5302  0.2229 -0.0518
 9679TIP3    H150528   2.653   2.546  12.374  1.7070  0.9360 -0.2078
 9679TIP3    H250529   2.614   2.416  12.306  0.0949  0.6595  1.1610
 9680TIP3   OH250530   4.353   4.340   0.135 -0.2670  0.1837 -0.4713
 9680TIP3    H150531   4.312   4.339   0.222  0.5447  2.2156 -0.0275
 9680TIP3    H250532   4.344   4.430   0.106  0.7448 -0.1576 -1.9023
 9681TIP3   OH250533   5.263   4.871  16.146 -0.5034  0.4312 -0.2152
 9681TIP3    H150534   5.282   4.906  16.059 -0.1902 -0.4912 -0.5229
 9681TIP3    H250535   5.170   4.847  16.143 -0.7511  1.3022  0.0324
 9682TIP3   OH250536   2.737   3.894   0.456  0.1303  0.0402 -0.3586
 9682TIP3    H150537   2.724   3.817   0.400 -2.8452 -0.9873  1.5149
 9682TIP3    H250538   2.831   3.914   0.449  0.5892 -2.4075 -2.5718
 9683TIP3   OH250539   5.408   2.293  13.365  0.0108  0.7450  0.0328
 9683TIP3    H150540   5.378   2.210  13.329 -0.5853  0.1632  1.7889
 9683TIP3    H250541   5.410   2.352  13.290 -3.5058  0.2524 -0.6143
 9684TIP3   OH250542   2.519   2.516   3.331  0.4543  0.4785 -0.2958
 9684TIP3    H150543   2.599   2.483   3.374  0.0398 -0.6718 -0.3860
 9684TIP3    H250544   2.545   2.601   3.296  0.8747  1.4081  2.0710
 9685TIP3   OH250545   2.702   5.542   5.913 -0.9039 -0.2254  0.4338
 9685TIP3    H150546   2.672   5.549   6.004  0.9772  0.0950  1.0600
 9685TIP3    H250547   2.789   5.581   5.913 -0.2696 -1.5335 -1.2210
 9686TIP3   OH250548   6.161   1.626   6.160 -0.4098 -0.1197 -0.6054
 9686TIP3    H150549   6.117   1.560   6.213  0.6374  0.2513  0.7773
 9686TIP3    H250550   6.091   1.683   6.128 -1.0601 -0.2937  0.4746
 9687TIP3   OH250551   4.005   1.054   6.325  0.2895  0.6667  0.6051
 9687TIP3    H150552   4.066   1.124   6.302 -0.3434  1.0735  0.1226
 9687TIP3    H250553   4.007   0.995   6.249 -1.2560  1.6316 -0.2543
 9688TIP3   OH250554   6.026   4.353   3.750 -0.2484  0.0352  0.4809
 9688TIP3    H150555   5.993   4.405   3.824 -0.4141  0.4636  0.1134
 9688TIP3    H250556   5.994   4.265   3.766 -2.1531  0.5629 -0.2013
 9689TIP3   OH250557   0.980   1.340  12.733 -1.1299  0.7079  0.1980
 9689TIP3    H150558   0.952   1.313  12.645 -0.0789  0.1410  0.0139
 9689TIP3    H250559   0.959   1.265  12.789  0.3452  0.0845 -0.0243
 9690TIP3   OH250560   1.667   6.671   1.834 -0.6992 -0.0179 -0.2769
 9690TIP3    H150561   1.638   6.597   1.781 -2.1587 -0.1063  0.5961
 9690TIP3    H250562   1.614   6.666   1.913 -0.0946  1.3685  0.2429
 9691TIP3   OH250563   0.722   5.894   4.059 -0.5165 -0.1899 -0.5789
 9691TIP3    H150564   0.791   5.827   4.059  1.9140  2.1186 -0.8887
 9691TIP3    H250565   0.750   5.956   3.992 -2.2955  1.4662  0.1300
 9692TIP3   OH250566   1.985   1.126  15.771 -0.3503  0.3091  0.6817
 9692TIP3    H150567   2.065   1.081  15.742  0.6694  2.0334  0.6347
 9692TIP3    H250568   1.915   1.063  15.756  0.9241 -1.0509  0.1548
 9693TIP3   OH250569   3.216   3.119  15.638  0.0540 -0.0401  0.2977
 9693TIP3    H150570   3.186   3.209  15.649 -0.5805 -0.4179  1.8847
 9693TIP3    H250571   3.207   3.102  15.544 -0.0793  1.4529  0.0182
 9694TIP3   OH250572   3.839   1.847  11.396 -0.1852  0.1631  0.3118
 9694TIP3    H150573   3.929   1.865  11.421  0.2589 -1.1091 -0.3119
 9694TIP3    H250574   3.805   1.932  11.367 -0.1925  1.3269  3.3957
 9695TIP3   OH250575   2.418   6.212  11.659  0.2970  0.1477  0.2675
 9695TIP3    H150576   2.390   6.279  11.596 -1.3288 -0.2727  0.4940
 9695TIP3    H250577   2.513   6.220  11.662  0.3145  0.9511 -1.3710
 9696TIP3   OH250578   1.748   2.117   1.785  0.0005 -0.5726  0.2747
 9696TIP3    H150579   1.834   2.077   1.779  0.6234  0.5098  1.5407
 9696TIP3    H250580   1.763   2.210   1.767 -0.9848 -0.4378  0.0652
 9697TIP3   OH250581   3.566   5.714  13.490  0.2872  0.5194 -0.3013
 9697TIP3    H150582   3.546   5.644  13.552  1.3716  0.7459  0.3392
 9697TIP3    H250583   3.580   5.669  13.407 -4.0029  0.4321 -1.1968
 9698TIP3   OH250584   3.180   1.087  17.089 -0.6349  0.5146 -0.0988
 9698TIP3    H150585   3.229   1.101  17.008 -0.9183  1.1779 -0.1645
 9698TIP3    H250586   3.229   1.134  17.155 -0.2973 -0.1893  0.1620
 9699TIP3   OH250587   1.189   0.088  13.076 -0.3696  0.6386 -0.1160
 9699TIP3    H150588   1.264   0.064  13.131 -0.2226 -0.4093 -0.7596
 9699TIP3    H250589   1.135   0.142  13.133  0.1422  0.1840  0.8318
 9700TIP3   OH250590   2.239   5.876   4.779  0.4331  0.0805  0.2248
 9700TIP3    H150591   2.241   5.910   4.689 -1.3601  0.6513  0.3504
 9700TIP3    H250592   2.245   5.954   4.834  1.0429 -0.2262  0.5996
 9701TIP3   OH250593   2.954   4.490   0.176 -0.2073 -0.1688 -0.0293
 9701TIP3    H150594   2.905   4.492   0.094  1.1849  0.2082 -0.9069
 9701TIP3    H250595   3.007   4.570   0.173 -0.0252 -0.2316  1.1668
 9702TIP3   OH250596   5.046   6.408  16.620  0.2886  0.1650 -0.0377
 9702TIP3    H150597   5.080   6.498  16.621  2.7987 -0.6841 -0.0855
 9702TIP3    H250598   5.078   6.370  16.702 -0.8748 -0.6504  0.0563
 9703TIP3   OH250599   0.143   4.938   3.809  0.0378  0.1074  0.5320
 9703TIP3    H150600   0.230   4.970   3.786 -0.9682  2.8157  0.0958
 9703TIP3    H250601   0.133   4.857   3.759  1.6914  0.6177 -0.7094
 9704TIP3   OH250602   0.920   5.529  11.414 -0.3675  0.9883 -0.0336
 9704TIP3    H150603   0.852   5.543  11.480 -0.4510  0.7843 -0.0777
 9704TIP3    H250604   0.875   5.487  11.341  0.2264 -1.1927  0.7980
 9705TIP3   OH250605   1.856   3.246  16.123 -0.0914 -0.0215  0.0730
 9705TIP3    H150606   1.855   3.179  16.192 -1.6052  0.6163  0.7351
 9705TIP3    H250607   1.894   3.202  16.047  1.1473 -0.9007  1.1547
 9706TIP3   OH250608   1.609   6.610  12.479  0.3022 -0.1400 -0.0011
 9706TIP3    H150609   1.595   6.518  12.456  0.2637 -0.4110  1.0624
 9706TIP3    H250610   1.701   6.626  12.457  0.1356 -0.2427 -0.7940
 9707TIP3   OH250611   3.834   5.150   3.155 -0.0929 -0.1767  0.5499
 9707TIP3    H150612   3.894   5.101   3.098 -0.9707 -0.0108 -0.5563
 9707TIP3    H250613   3.768   5.086   3.182 -2.2050  0.6331 -2.2460
 9708TIP3   OH250614   4.596   6.153   4.477  0.2344  0.2691  0.6368
 9708TIP3    H150615   4.675   6.175   4.428 -0.1855 -2.0126 -1.2734
 9708TIP3    H250616   4.601   6.205   4.557  3.5610  0.3265  0.5005
 9709TIP3   OH250617   4.369   2.293  15.510 -0.5549 -0.0092 -0.1019
 9709TIP3    H150618   4.442   2.268  15.566 -0.6690 -2.0226 -0.7572
 9709TIP3    H250619   4.314   2.349  15.565  0.0624 -0.7492  1.3240
 9710TIP3   OH250620   4.578   2.139   2.438  0.3824 -0.1961  0.2172
 9710TIP3    H150621   4.595   2.210   2.376 -1.2760 -1.5375 -1.9074
 9710TIP3    H250622   4.637   2.069   2.410 -0.8568 -1.0543 -0.3258
 9711TIP3   OH250623   5.969   0.810   1.575 -0.3055  0.2031  0.0612
 9711TIP3    H150624   5.884   0.851   1.589 -1.5508 -2.3151  0.4274
 9711TIP3    H250625   6.011   0.864   1.508 -3.2722  0.1627 -2.0402
 9712TIP3   OH250626   3.464   2.396   4.790 -0.2784 -0.5536  0.0268
 9712TIP3    H150627   3.399   2.327   4.805 -1.6032 -0.0202 -2.6015
 9712TIP3    H250628   3.420   2.477   4.817  0.2627 -0.4534  0.6148
 9713TIP3   OH250629   4.524   6.007   1.187 -0.5815 -0.4362  0.2398
 9713TIP3    H150630   4.498   6.091   1.150 -1.5885 -0.0421  1.7096
 9713TIP3    H250631   4.557   6.029   1.274  0.0334 -1.4794  0.2818
 9714TIP3   OH250632   5.998   3.116  15.066 -0.0075  0.3972  0.1523
 9714TIP3    H150633   5.983   3.108  15.161  1.3673 -1.1221  0.2901
 9714TIP3    H250634   5.992   3.026  15.033  2.1770  0.5102 -0.7378
 9715TIP3   OH250635   4.547   2.916   5.228 -0.0116  0.2455  0.0514
 9715TIP3    H150636   4.594   2.999   5.216 -0.7362  0.8748  1.3498
 9715TIP3    H250637   4.457   2.942   5.247  0.0856 -0.7561  2.1385
 9716TIP3   OH250638   4.579   3.857   3.890 -0.0350 -0.5615  0.2840
 9716TIP3    H150639   4.674   3.861   3.900  0.0946 -1.7709 -0.2680
 9716TIP3    H250640   4.563   3.773   3.848 -1.1185  0.8121 -2.2566
 9717TIP3   OH250641   1.111   3.004   1.773 -0.2157 -0.3871  0.0527
 9717TIP3    H150642   1.150   2.975   1.855  0.2441  0.0139 -0.0205
 9717TIP3    H250643   1.032   2.951   1.764  0.8970 -2.0548 -0.3626
 9718TIP3   OH250644   2.656   4.140  10.529 -0.3919  0.7476  0.1539
 9718TIP3    H150645   2.581   4.097  10.569 -0.1080 -0.4055 -0.5191
 9718TIP3    H250646   2.626   4.167  10.442 -0.0151  0.1987 -0.1549
 9719TIP3   OH250647   0.065   1.459   0.697  0.0458  0.1320 -0.1274
 9719TIP3    H150648   0.020   1.458   0.613  0.0582  2.0609 -0.1919
 9719TIP3    H250649   0.131   1.390   0.690 -2.0293 -1.9575 -0.4737
 9720TIP3   OH250650   0.344   5.804  12.027 -0.2268  0.0011  0.6977
 9720TIP3    H150651   0.278   5.805  12.096 -1.2309 -0.0278 -0.2429
 9720TIP3    H250652   0.427   5.799  12.074 -0.8357  0.9533  1.9409
 9721TIP3   OH250653   4.879   3.652   0.103  0.2857 -0.1290 -0.5740
 9721TIP3    H150654   4.942   3.592   0.144 -0.3227 -1.7109 -1.8248
 9721TIP3    H250655   4.877   3.625   0.012  0.5375  2.3541 -1.3740
 9722TIP3   OH250656   0.338   6.346   1.112 -0.3956  0.4623 -0.5737
 9722TIP3    H150657   0.389   6.415   1.155  1.0414 -0.2628 -1.0616
 9722TIP3    H250658   0.359   6.266   1.161 -0.8605  0.1057 -0.9498
 9723TIP3   OH250659   6.486   4.557  14.777  0.2986 -0.2231  0.1936
 9723TIP3    H150660   6.543   4.628  14.803  0.3837 -0.6407  1.1677
 9723TIP3    H250661   6.457   4.581  14.688  0.6473  0.8064  0.3470
 9724TIP3   OH250662   0.835   6.448   6.609 -0.5346 -0.1100 -0.2160
 9724TIP3    H150663   0.902   6.401   6.660 -1.9788 -2.3972 -0.2626
 9724TIP3    H250664   0.881   6.476   6.530  1.0274  0.9018  0.9842
 9725TIP3   OH250665   0.013   6.661  13.161 -0.4182 -0.3326  0.0159
 9725TIP3    H150666   0.077   6.642  13.230  1.2252 -0.4301 -1.4658
 9725TIP3    H250667  -0.027   6.576  13.140  0.6037 -0.6803 -0.5782
 9726TIP3   OH250668   5.534   6.096   0.196  0.4952 -0.4768 -0.3513
 9726TIP3    H150669   5.489   6.165   0.147  2.2074  1.2744  0.4072
 9726TIP3    H250670   5.521   6.119   0.288  1.5941 -0.8180 -0.0931
 9727TIP3   OH250671   5.437   0.316  12.186  0.1999  0.0467  0.2603
 9727TIP3    H150672   5.520   0.314  12.232 -0.8892 -2.5799  2.3369
 9727TIP3    H250673   5.383   0.250  12.229 -2.5596  0.7389 -1.8116
 9728TIP3   OH250674   3.767   4.105  11.802 -0.0596  0.3188 -0.2944
 9728TIP3    H150675   3.806   4.186  11.769  1.4491 -1.0123 -1.9350
 9728TIP3    H250676   3.841   4.058  11.842 -1.3420  0.7115  2.8108
 9729TIP3   OH250677   3.410   5.344   0.018  0.4155 -0.3251 -0.0945
 9729TIP3    H150678   3.356   5.417  -0.012  1.1211  1.2933  2.2901
 9729TIP3    H250679   3.491   5.351  -0.033  0.3533  0.3846 -0.1018
 9730TIP3   OH250680   1.422   3.683   1.182 -0.0931  0.3678  0.2668
 9730TIP3    H150681   1.462   3.767   1.159 -0.1046 -0.0614 -1.4484
 9730TIP3    H250682   1.482   3.617   1.148  0.6538 -0.4150  2.8429
 9731TIP3   OH250683   0.251   0.489   5.937 -0.2679 -0.2529 -0.2053
 9731TIP3    H150684   0.173   0.487   5.993  0.5904  1.5770  1.1638
 9731TIP3    H250685   0.315   0.540   5.987  1.9509 -1.9582 -1.1164
 9732TIP3   OH250686   3.489   0.467   6.347 -0.4090 -0.2591 -0.0825
 9732TIP3    H150687   3.561   0.529   6.335 -1.1876  0.6791 -0.0635
 9732TIP3    H250688   3.415   0.508   6.302 -0.7462 -1.5695 -0.7580
 9733TIP3   OH250689   5.885   2.617  13.945 -0.0200 -0.4382  0.3347
 9733TIP3    H150690   5.910   2.527  13.928  0.3474 -0.1511 -0.7282
 9733TIP3    H250691   5.929   2.668  13.876 -0.1878  0.5527  0.9359
 9734TIP3   OH250692   4.046   6.801   3.959  0.2280 -1.0699 -0.5271
 9734TIP3    H150693   4.136   6.777   3.940  1.1315  0.6201  1.3361
 9734TIP3    H250694   4.021   6.858   3.886  0.2973 -2.2649 -1.5248
 9735TIP3   OH250695   5.191   2.758  15.644 -0.4257  0.0379 -0.4234
 9735TIP3    H150696   5.148   2.804  15.715 -0.9376  1.4978 -1.6198
 9735TIP3    H250697   5.130   2.763  15.571  0.0218 -1.5472 -0.9587
 9736TIP3   OH250698   0.146   3.193  15.269 -0.2348 -0.5514  0.3405
 9736TIP3    H150699   0.086   3.128  15.307  0.1932 -1.5856 -0.6980
 9736TIP3    H250700   0.217   3.200  15.333 -0.8119 -0.2837  0.9675
 9737TIP3   OH250701   6.823   6.031   6.350 -0.3590  0.2603  0.7744
 9737TIP3    H150702   6.776   6.093   6.294  1.8769  0.6790 -0.7601
 9737TIP3    H250703   6.904   6.076   6.373  0.4146 -1.3355  1.3044
 9738TIP3   OH250704   0.423   3.923   4.788 -0.3509  0.2476 -0.5641
 9738TIP3    H150705   0.400   3.837   4.754 -1.0307  1.0069 -2.1486
 9738TIP3    H250706   0.342   3.974   4.783 -0.3243  0.5968  1.7153
 9739TIP3   OH250707   5.108   3.511   4.116  0.8191 -0.7171 -0.8221
 9739TIP3    H150708   5.161   3.590   4.108 -0.6440  0.3243 -0.6649
 9739TIP3    H250709   5.150   3.461   4.186  2.8188 -0.9936 -2.1277
 9740TIP3   OH250710   4.917   2.417   1.714  0.1949 -0.5016  0.0256
 9740TIP3    H150711   4.865   2.494   1.691  1.5769  1.0291  1.7683
 9740TIP3    H250712   4.980   2.408   1.642  0.1433  0.1356 -0.1050
 9741TIP3   OH250713   1.435   4.281   2.493  0.3739 -0.4051 -0.1288
 9741TIP3    H150714   1.351   4.273   2.538  0.6581 -1.9152  0.2047
 9741TIP3    H250715   1.449   4.195   2.453  1.4647  0.0190 -0.7018
 9742TIP3   OH250716   0.234   4.341  12.080 -0.5015 -0.2348  0.2413
 9742TIP3    H150717   0.267   4.378  11.998 -1.8461 -1.3949 -0.8762
 9742TIP3    H250718   0.171   4.406  12.112 -1.9437 -0.9275 -1.0673
 9743TIP3   OH250719   1.744   5.704  11.281  0.1292 -0.1286  0.0300
 9743TIP3    H150720   1.779   5.770  11.222  1.0034 -0.2740  0.3676
 9743TIP3    H250721   1.733   5.626  11.227  1.1227 -0.3207  0.0926
 9744TIP3   OH250722   1.249   5.688   3.764  0.1914 -0.5207 -0.2583
 9744TIP3    H150723   1.253   5.708   3.857 -2.1114 -1.7561  0.1713
 9744TIP3    H250724   1.162   5.715   3.737  1.3923  1.4307 -2.5263
 9745TIP3   OH250725   3.547   4.753   5.337 -0.2803  0.0201  0.4908
 9745TIP3    H150726   3.477   4.792   5.389 -0.7912  0.0879 -0.2376
 9745TIP3    H250727   3.505   4.727   5.255  0.3118 -0.9594  0.4808
 9746TIP3   OH250728   5.618   2.415  12.335 -0.3706 -0.1873 -0.0766
 9746TIP3    H150729   5.549   2.357  12.369 -2.0424  0.0013 -2.8506
 9746TIP3    H250730   5.620   2.488  12.396 -1.6063 -0.9070  0.8810
 9747TIP3   OH250731   0.516   6.205  13.548 -0.2012 -0.3233  0.2018
 9747TIP3    H150732   0.430   6.162  13.557  0.6416 -1.9334  1.0948
 9747TIP3    H250733   0.545   6.218  13.637  1.4950 -2.0284 -0.0327
 9748TIP3   OH250734   4.037   3.910  11.435 -0.4756 -0.1433  0.2595
 9748TIP3    H150735   4.100   3.880  11.369  0.8813  1.6221  0.6715
 9748TIP3    H250736   4.060   4.002  11.449 -1.2964 -0.2307  2.5547
 9749TIP3   OH250737   5.643   3.305  15.243 -0.2165 -0.2092 -0.3947
 9749TIP3    H150738   5.597   3.383  15.210 -1.0544  0.9442  3.0230
 9749TIP3    H250739   5.575   3.238  15.250  0.0597 -0.6038 -1.3903
 9750TIP3   OH250740   3.931   1.274   3.865 -0.6508  0.4946  0.3252
 9750TIP3    H150741   3.927   1.323   3.947  0.1249  1.4867 -0.1920
 9750TIP3    H250742   3.928   1.342   3.797 -0.4067 -0.2466 -0.4435
 9751TIP3   OH250743   3.604   0.564   0.479 -0.0834  0.6937  0.1786
 9751TIP3    H150744   3.519   0.520   0.484  0.7575 -1.1120 -0.4637
 9751TIP3    H250745   3.622   0.591   0.569 -1.2011  0.8658  0.3669
 9752TIP3   OH250746   3.230   6.779   1.092 -0.2210  0.1694  0.0665
 9752TIP3    H150747   3.307   6.739   1.133  0.2196  1.4448  0.5167
 9752TIP3    H250748   3.159   6.762   1.154 -0.3463 -1.1328 -0.4140
 9753TIP3   OH250749   5.332   5.001   0.045  0.0422 -0.2448 -0.0800
 9753TIP3    H150750   5.297   5.063  -0.019  2.8905  0.8701 -0.7281
 9753TIP3    H250751   5.305   5.036   0.130 -2.2635 -0.7582 -0.5232
 9754TIP3   OH250752   5.198   5.008   1.154  0.0157 -0.2628 -0.3629
 9754TIP3    H150753   5.162   4.919   1.151 -1.3824  0.1677  1.7791
 9754TIP3    H250754   5.269   5.004   1.218 -0.8810  0.3889  0.7133
 9755TIP3   OH250755   5.713   1.344   6.467  0.2066 -0.1764  0.5924
 9755TIP3    H150756   5.790   1.315   6.418 -0.2183 -1.0862  0.4461
 9755TIP3    H250757   5.724   1.439   6.474  1.4391 -0.3065  0.7492
 9756TIP3   OH250758   5.897   5.163   3.501  0.2112 -0.4488 -0.4955
 9756TIP3    H150759   5.803   5.152   3.492 -0.2492  1.7537  0.7781
 9756TIP3    H250760   5.907   5.249   3.542  2.7808 -0.6492 -0.5323
 9757TIP3   OH250761   6.217   1.371  14.694 -0.0620 -0.7359  0.2947
 9757TIP3    H150762   6.287   1.387  14.630  0.3354 -1.1568  0.6208
 9757TIP3    H250763   6.188   1.459  14.719 -2.1672 -0.4610 -2.5102
 9758TIP3   OH250764   3.434   6.224   0.391 -0.3503 -0.0580  0.2764
 9758TIP3    H150765   3.456   6.131   0.402  0.4768  0.1004  0.0855
 9758TIP3    H250766   3.339   6.226   0.386 -0.3376 -1.0603 -1.0229
 9759TIP3   OH250767   2.430   3.481  11.630 -0.1162  0.1035 -0.0483
 9759TIP3    H150768   2.477   3.547  11.681  0.9327 -0.0977 -0.7233
 9759TIP3    H250769   2.362   3.529  11.584  1.1935  0.9110 -1.2343
 9760TIP3   OH250770   3.479   1.916  14.778 -0.1257 -0.5446  0.5175
 9760TIP3    H150771   3.539   1.887  14.710  0.6120 -0.2276  1.0272
 9760TIP3    H250772   3.436   1.993  14.740  0.8952  0.1454  0.7107
 9761TIP3   OH250773   5.330   0.389  16.970 -0.1836  0.6420  0.1529
 9761TIP3    H150774   5.333   0.361  16.879  0.6409  0.8917  0.0976
 9761TIP3    H250775   5.298   0.312  17.018 -0.4615  0.4602 -0.3159
 9762TIP3   OH250776   4.076   0.426   4.450  0.2267  0.1315 -0.1021
 9762TIP3    H150777   4.082   0.336   4.483  2.1617  0.2619  0.0329
 9762TIP3    H250778   3.983   0.448   4.457  0.1614 -0.5654  3.4004
 9763TIP3   OH250779   4.726   1.800  17.120 -0.3254 -0.3418 -0.1825
 9763TIP3    H150780   4.749   1.721  17.169  2.4039  0.6703  0.3608
 9763TIP3    H250781   4.674   1.851  17.182  0.1611 -0.5872  0.4524
 9764TIP3   OH250782   6.424   6.504   0.788  0.1178 -0.0532  0.2456
 9764TIP3    H150783   6.491   6.537   0.727  1.0828 -0.6026  0.9817
 9764TIP3    H250784   6.461   6.423   0.821 -0.7477 -0.1479  0.9842
 9765TIP3   OH250785   0.753   4.899   6.421  0.3440 -0.0580 -0.2858
 9765TIP3    H150786   0.661   4.875   6.439 -0.0966 -0.0034 -2.2582
 9765TIP3    H250787   0.803   4.846   6.483 -1.0199  0.1203  1.0376
 9766TIP3   OH250788   5.602   1.627   5.149 -0.0852 -0.4563 -0.6367
 9766TIP3    H150789   5.580   1.559   5.085 -1.8427  0.7748 -1.4446
 9766TIP3    H250790   5.680   1.669   5.113 -0.8302 -0.0274 -1.8662
 9767TIP3   OH250791   1.300   3.657  14.201 -0.3893 -0.5524 -0.0284
 9767TIP3    H150792   1.225   3.606  14.232 -1.0199  0.0796 -0.4802
 9767TIP3    H250793   1.263   3.720  14.139  0.4409  0.1578  0.1737
 9768TIP3   OH250794   4.986   1.773  10.864 -0.7259 -0.8568  0.2835
 9768TIP3    H150795   5.067   1.729  10.838 -0.9024 -0.7745 -0.4488
 9768TIP3    H250796   4.930   1.703  10.899 -0.2516 -0.8726  1.0260
 9769TIP3   OH250797   5.493   6.573   0.538 -0.1073 -0.3855 -0.1677
 9769TIP3    H150798   5.417   6.612   0.496  1.2352  1.8507 -0.6330
 9769TIP3    H250799   5.492   6.608   0.627 -0.3479 -1.4365  0.2627
 9770TIP3   OH250800   3.979   1.443  15.347  0.2524  0.3087 -0.1798
 9770TIP3    H150801   4.016   1.355  15.354  0.6515  0.5172  0.4720
 9770TIP3    H250802   3.907   1.444  15.411  0.0940  0.3825 -0.3573
 9771TIP3   OH250803   2.723   3.999   5.609  0.2719  0.7403 -0.7439
 9771TIP3    H150804   2.713   3.988   5.514 -0.7317 -2.3329 -0.3787
 9771TIP3    H250805   2.634   4.016   5.640  0.3075 -0.0720 -0.1782
 9772TIP3   OH250806   2.475   2.071   0.637  0.0337  0.0237  0.4225
 9772TIP3    H150807   2.555   2.091   0.685  0.9082 -0.6037 -0.7476
 9772TIP3    H250808   2.465   1.976   0.643 -1.2993  0.1980  1.5753
 9773TIP3   OH250809   6.310   6.832   1.041 -0.1023 -0.2528 -0.5878
 9773TIP3    H150810   6.278   6.799   0.958  0.4094 -1.0818 -0.4628
 9773TIP3    H250811   6.404   6.846   1.028  0.1478 -1.2098  0.0986
 9774TIP3   OH250812   0.627   0.804  14.466  0.0771 -0.0016  0.1361
 9774TIP3    H150813   0.535   0.813  14.490  0.1464  0.9473  0.0664
 9774TIP3    H250814   0.631   0.720  14.420 -0.1928 -1.5110  2.6756
 9775TIP3   OH250815   4.298   3.504  12.570 -0.1509 -0.4194  0.8075
 9775TIP3    H150816   4.373   3.531  12.623 -0.4491  1.3795  0.3800
 9775TIP3    H250817   4.294   3.568  12.499 -2.7148  0.2460  1.4207
 9776TIP3   OH250818   5.439   0.378  12.865  0.0638  0.4061 -0.1282
 9776TIP3    H150819   5.425   0.469  12.840 -1.3756  0.1609 -0.3412
 9776TIP3    H250820   5.417   0.375  12.958 -1.3904  0.0290 -0.4481
 9777TIP3   OH250821   1.518   6.260  14.114  0.1791  0.3736 -0.0172
 9777TIP3    H150822   1.510   6.165  14.120  0.1893  0.2745 -1.2846
 9777TIP3    H250823   1.440   6.287  14.065 -0.3204  1.1353  1.1526
 9778TIP3   OH250824   0.681   3.445  16.759  0.2425  0.0405  0.3279
 9778TIP3    H150825   0.722   3.416  16.678  0.7313 -1.0109  0.9225
 9778TIP3    H250826   0.674   3.540  16.750  1.3327  0.0647 -0.4723
 9779TIP3   OH250827   3.266   3.360   4.208  0.1655 -0.2983 -0.3090
 9779TIP3    H150828   3.180   3.321   4.192  0.6806 -1.2530 -0.8093
 9779TIP3    H250829   3.280   3.349   4.302  0.0446 -0.8067 -0.3458
 9780TIP3   OH250830   1.279   3.328   0.599 -0.3669 -0.1147  1.0334
 9780TIP3    H150831   1.309   3.244   0.632  0.5477 -0.1366  0.1774
 9780TIP3    H250832   1.319   3.336   0.512 -3.9782 -0.8346 -0.9190
 9781TIP3   OH250833   0.358   4.798   4.678  0.5786 -0.3887  0.5459
 9781TIP3    H150834   0.275   4.786   4.632  0.5116  1.2844  0.1856
 9781TIP3    H250835   0.334   4.802   4.770  0.0509  1.4213  0.3705
 9782TIP3   OH250836   2.080   5.334  11.715  0.4052  0.3645  0.3603
 9782TIP3    H150837   2.143   5.377  11.658  1.1990  0.9220  1.6023
 9782TIP3    H250838   2.018   5.292  11.656  0.8655  1.3882 -0.8921
 9783TIP3   OH250839   5.425   1.795  16.602 -0.3789 -0.1774 -0.0378
 9783TIP3    H150840   5.446   1.703  16.584  2.1298  0.1172  0.8776
 9783TIP3    H250841   5.394   1.830  16.519 -0.1355 -1.5469 -0.7312
 9784TIP3   OH250842   3.707   5.142   4.723 -0.1887 -0.6449  0.2403
 9784TIP3    H150843   3.740   5.099   4.644 -1.6027 -0.8933 -0.2547
 9784TIP3    H250844   3.784   5.154   4.779  0.4233 -2.9307 -0.0216
 9785TIP3   OH250845   4.917   4.277   5.163 -0.0596  0.4157  0.4188
 9785TIP3    H150846   4.961   4.360   5.143 -0.5837  0.8957  1.1749
 9785TIP3    H250847   4.825   4.302   5.176 -0.1529 -0.2170  1.0316
 9786TIP3   OH250848   5.323   1.054   0.552 -0.0935 -0.3031 -0.2944
 9786TIP3    H150849   5.257   0.996   0.590 -0.0443 -0.1469  0.0258
 9786TIP3    H250850   5.380   1.077   0.625  0.4303 -0.5918 -0.6032
 9787TIP3   OH250851   3.939   2.628   4.477 -0.0392  0.1267 -1.2407
 9787TIP3    H150852   3.941   2.532   4.469  1.3024 -0.0110  0.2863
 9787TIP3    H250853   3.954   2.644   4.570  2.3658  1.8744 -1.8454
 9788TIP3   OH250854   4.920   4.351  13.318 -0.2776  0.5805 -0.2245
 9788TIP3    H150855   4.913   4.390  13.405 -2.5610  1.7201 -0.8161
 9788TIP3    H250856   4.831   4.320  13.299 -0.1691  1.5253 -2.6245
 9789TIP3   OH250857   5.307   1.802  10.452  0.3022 -1.2471 -0.2100
 9789TIP3    H150858   5.344   1.728  10.500 -0.1668 -1.8052 -0.6886
 9789TIP3    H250859   5.215   1.778  10.437 -0.2372  0.0393  0.8172
 9790TIP3   OH250860   2.856   1.015   0.702 -0.6395  0.0610 -0.4931
 9790TIP3    H150861   2.769   0.980   0.681 -0.4198 -1.5861  1.0943
 9790TIP3    H250862   2.844   1.110   0.701 -2.8082 -0.1208  0.8697
 9791TIP3   OH250863   5.115   2.033  12.153 -0.6678  0.6475  0.1959
 9791TIP3    H150864   5.124   2.120  12.114 -2.0243  0.6773 -0.1135
 9791TIP3    H250865   5.184   1.981  12.113 -1.5785  0.8542 -1.7635
 9792TIP3   OH250866   3.728   3.932   4.400  0.1571  0.4115 -0.1757
 9792TIP3    H150867   3.714   3.983   4.320  3.2856 -1.3853 -2.1150
 9792TIP3    H250868   3.692   3.846   4.379  1.2704 -0.1659  0.1968
 9793TIP3   OH250869   3.485   2.943  16.143 -0.4974  0.0851  0.2475
 9793TIP3    H150870   3.433   2.869  16.173 -0.2222 -0.3084 -0.2165
 9793TIP3    H250871   3.542   2.964  16.217 -2.0714  1.2559  1.1758
 9794TIP3   OH250872   4.413   4.436   2.969  0.1410 -0.5806  0.3658
 9794TIP3    H150873   4.318   4.447   2.963  0.1182 -1.4036 -1.1465
 9794TIP3    H250874   4.430   4.349   2.934  1.3333 -1.0861  2.0192
 9795TIP3   OH250875   1.636   3.252   3.788  0.1542 -0.2468  0.1884
 9795TIP3    H150876   1.665   3.185   3.727  1.4403 -0.0348  0.5462
 9795TIP3    H250877   1.642   3.334   3.739  1.3762 -0.0524  0.6406
 9796TIP3   OH250878   2.027   5.335  15.689  0.0745  0.3237 -0.2625
 9796TIP3    H150879   2.006   5.316  15.598  1.7417  1.4095 -0.9172
 9796TIP3    H250880   1.955   5.297  15.739 -2.3070  2.0550 -2.1650
 9797TIP3   OH250881   6.408   2.445  12.794  0.0822  0.1026  0.5360
 9797TIP3    H150882   6.493   2.408  12.771 -0.7824 -1.7050  0.0705
 9797TIP3    H250883   6.367   2.465  12.709  0.1086  1.1647  0.7605
 9798TIP3   OH250884   2.633   6.674   4.411 -0.0868 -0.3241  0.3165
 9798TIP3    H150885   2.604   6.733   4.341 -1.6144 -1.0731  0.2686
 9798TIP3    H250886   2.728   6.675   4.405 -0.0007  2.5272  0.6601
 9799TIP3   OH250887   3.276   5.888  10.845  0.1536  0.3881  0.3312
 9799TIP3    H150888   3.344   5.824  10.866 -0.2998  0.4385  2.1273
 9799TIP3    H250889   3.318   5.973  10.858 -0.4227  0.4249  2.2704
 9800TIP3   OH250890   2.244   0.969   2.958 -0.0828 -0.3015 -0.0655
 9800TIP3    H150891   2.284   0.993   3.042 -0.5525  0.2598  0.0132
 9800TIP3    H250892   2.299   0.900   2.923 -0.1771 -0.9181  0.9649
 9801TIP3   OH250893   1.194   5.740   2.592 -0.6606  0.9404  0.4866
 9801TIP3    H150894   1.272   5.685   2.584 -0.1839  1.5558  0.9278
 9801TIP3    H250895   1.214   5.818   2.541 -0.5402  1.5945  1.5104
 9802TIP3   OH250896   4.311   6.381  12.274  0.3732  0.8338 -0.1320
 9802TIP3    H150897   4.385   6.419  12.227  0.8505  1.0096  0.7260
 9802TIP3    H250898   4.321   6.413  12.364  0.3642 -0.7103  0.4442
 9803TIP3   OH250899   6.245   5.507  11.795 -0.0340  0.0160 -0.4866
 9803TIP3    H150900   6.191   5.586  11.791 -0.5917 -0.2736  0.9635
 9803TIP3    H250901   6.204   5.447  11.733 -0.9971  0.0373  0.1119
 9804TIP3   OH250902   5.287   2.155   1.188 -0.1399 -0.2732 -0.2365
 9804TIP3    H150903   5.323   2.105   1.262  1.0981  1.6393  0.5083
 9804TIP3    H250904   5.293   2.094   1.114 -1.5137 -2.2887  1.1797
 9805TIP3   OH250905   4.829   5.224   1.416 -0.6857 -0.5591  0.0768
 9805TIP3    H150906   4.778   5.279   1.356 -0.4126 -0.0241  0.3216
 9805TIP3    H250907   4.767   5.198   1.484 -0.0393  2.7167  2.1687
 9806TIP3   OH250908   1.219   4.152  11.738 -0.8893 -0.1427  0.9115
 9806TIP3    H150909   1.294   4.210  11.747 -1.0017  0.0280  0.7560
 9806TIP3    H250910   1.158   4.200  11.682 -0.9955 -0.3993  0.8042
 9807TIP3   OH250911   2.989   1.291   3.130  0.4810 -0.1993  0.2912
 9807TIP3    H150912   2.945   1.370   3.160 -0.8201 -0.3680 -1.0295
 9807TIP3    H250913   3.074   1.293   3.173 -0.7134  0.2386  2.8150
 9808TIP3   OH250914   0.525   6.415   5.766  0.2764 -0.1865  0.2240
 9808TIP3    H150915   0.549   6.370   5.847  2.2699  1.5836  0.6934
 9808TIP3    H250916   0.563   6.503   5.774  1.2885 -0.1964 -2.9654
 9809TIP3   OH250917   6.065   6.042  15.340 -0.3792  0.2850 -0.3278
 9809TIP3    H150918   5.971   6.023  15.348 -0.0471 -1.3705 -0.0033
 9809TIP3    H250919   6.068   6.126  15.294 -2.0376  1.2055  1.0722
 9810TIP3   OH250920   3.360   5.214  16.825 -0.2505  0.0140 -0.2950
 9810TIP3    H150921   3.450   5.233  16.796  0.8426  0.6820  3.0507
 9810TIP3    H250922   3.369   5.137  16.881 -1.5778  0.5995  0.7807
 9811TIP3   OH250923   6.007   6.730  11.946 -0.3263  0.2116 -0.3096
 9811TIP3    H150924   6.004   6.667  11.874  0.1750  1.3883 -1.4073
 9811TIP3    H250925   5.989   6.814  11.904 -1.4336  0.7639  1.1891
 9812TIP3   OH250926   5.180   4.134  16.785 -0.5603 -0.0385  0.1414
 9812TIP3    H150927   5.145   4.147  16.874 -2.1306 -0.3781 -0.3860
 9812TIP3    H250928   5.268   4.169  16.789 -0.1638 -1.0503  2.1487
 9813TIP3   OH250929   0.192   1.937  14.204  0.0009 -0.5256 -0.1005
 9813TIP3    H150930   0.286   1.927  14.193 -0.1313 -2.0212 -0.0658
 9813TIP3    H250931   0.164   1.855  14.246 -1.3446 -0.2026 -0.3308
 9814TIP3   OH250932   3.526   6.304   5.801  0.3398 -0.3279 -0.0370
 9814TIP3    H150933   3.479   6.319   5.719  1.1437  1.0980 -0.2868
 9814TIP3    H250934   3.463   6.327   5.869 -0.2965 -1.4080 -0.2331
 9815TIP3   OH250935   0.192   0.374  11.334  0.3230  0.5083  0.4106
 9815TIP3    H150936   0.210   0.414  11.249  0.7363  0.7634  0.6152
 9815TIP3    H250937   0.235   0.432  11.397  0.1122  0.2616  0.7838
 9816TIP3   OH250938   2.190   5.193   5.179 -0.4341  0.2393  0.6756
 9816TIP3    H150939   2.266   5.155   5.223  0.2176  0.6432 -0.0751
 9816TIP3    H250940   2.174   5.136   5.104  1.4090  2.1111 -1.2592
 9817TIP3   OH250941   1.897   3.529  16.174  0.0100  0.2254  0.4515
 9817TIP3    H150942   1.872   3.437  16.178  0.1625  0.2232  1.6602
 9817TIP3    H250943   1.826   3.571  16.126  0.7664 -0.7673 -1.6875
 9818TIP3   OH250944   0.854   1.200  17.145 -0.0704 -0.4954  0.4491
 9818TIP3    H150945   0.889   1.288  17.135  1.3415 -1.0993 -0.1850
 9818TIP3    H250946   0.875   1.156  17.062 -1.9505 -1.0555  0.2010
 9819TIP3   OH250947   3.891   3.326   1.422  0.3654 -0.9023 -0.3864
 9819TIP3    H150948   3.867   3.395   1.359  0.1058 -0.2950  0.3710
 9819TIP3    H250949   3.986   3.318   1.413  0.6527  0.8077  0.7691
 9820TIP3   OH250950   0.183   6.833   2.254  0.2352  0.5048 -0.2040
 9820TIP3    H150951   0.138   6.761   2.299 -0.1492  1.7837  1.5861
 9820TIP3    H250952   0.113   6.892   2.227  0.5701  0.3899 -1.3778
 9821TIP3   OH250953   4.000   1.306   1.047 -1.2451  0.4884 -0.1197
 9821TIP3    H150954   4.067   1.352   1.098 -1.2444  0.0358  0.2926
 9821TIP3    H250955   4.024   1.323   0.956 -0.5800  0.3445  0.0227
 9822TIP3   OH250956   4.044   2.071  13.662  0.1203  0.0926 -0.3506
 9822TIP3    H150957   3.967   2.016  13.652  0.6208 -0.7099  0.1092
 9822TIP3    H250958   4.109   2.033  13.602 -0.3142  1.7157 -1.9621
 9823TIP3   OH250959   2.610   1.573   2.542 -0.4332  0.3154 -0.1010
 9823TIP3    H150960   2.615   1.495   2.598  0.6714  1.2357  1.1469
 9823TIP3    H250961   2.563   1.543   2.464  0.1362 -1.6467  0.2510
 9824TIP3   OH250962   4.609   4.576  14.589 -0.3693 -0.0572  0.0162
 9824TIP3    H150963   4.539   4.626  14.549  0.6151  0.4135 -1.1865
 9824TIP3    H250964   4.637   4.515  14.520 -0.2432 -0.9182  0.8034
 9825TIP3   OH250965   2.433   0.313   4.627  0.1310  0.0640 -0.3503
 9825TIP3    H150966   2.452   0.234   4.676 -0.5718 -0.6255 -1.1660
 9825TIP3    H250967   2.472   0.384   4.679  1.1933 -0.8530  0.1287
 9826TIP3   OH250968   0.508   2.657   4.092  0.3229 -0.0685 -0.0068
 9826TIP3    H150969   0.526   2.744   4.127  0.6615  0.3046 -1.0733
 9826TIP3    H250970   0.509   2.599   4.169 -1.0406  1.0221  0.8822
 9827TIP3   OH250971   1.527   3.939  12.730 -0.2093 -0.2660 -0.5694
 9827TIP3    H150972   1.552   4.027  12.701  1.9822 -0.6160  0.0446
 9827TIP3    H250973   1.519   3.888  12.649  0.3979  0.0599 -0.8411
 9828TIP3   OH250974   4.855   4.705  16.646  0.3537 -0.1943 -0.0700
 9828TIP3    H150975   4.860   4.791  16.687  1.6279 -0.9162  1.4122
 9828TIP3    H250976   4.793   4.656  16.700  1.0133 -0.7441  0.2092
 9829TIP3   OH250977   1.390   4.370  12.455  0.4330  0.3062 -0.5459
 9829TIP3    H150978   1.351   4.283  12.453  0.0477  0.4467  0.3919
 9829TIP3    H250979   1.339   4.421  12.393 -0.9834  0.5171  0.7344
 9830TIP3   OH250980   1.250   2.032   4.600  0.5086 -0.9029 -0.6187
 9830TIP3    H150981   1.310   2.029   4.675 -2.3004 -1.2505  1.7984
 9830TIP3    H250982   1.192   2.106   4.618  1.9122  1.3953 -4.4366
 9831TIP3   OH250983   4.761   6.733   2.894  0.1033  0.0383  0.0736
 9831TIP3    H150984   4.760   6.827   2.912  0.6052  0.3341 -1.3244
 9831TIP3    H250985   4.768   6.727   2.799  1.1335 -1.4090  0.2062
 9832TIP3   OH250986   1.429   3.194   4.656  0.1331  0.0687 -0.0356
 9832TIP3    H150987   1.460   3.240   4.734 -3.4840  0.2110  1.5000
 9832TIP3    H250988   1.468   3.242   4.583 -0.3255  3.1441  1.5842
 9833TIP3   OH250989   4.313   6.408  14.466 -0.0624 -0.0066  0.1354
 9833TIP3    H150990   4.366   6.436  14.391 -0.1930  0.1553  0.1011
 9833TIP3    H250991   4.240   6.470  14.467 -0.5422 -0.5545 -0.1461
 9834TIP3   OH250992   0.350   3.671  10.821 -0.0371 -0.0526 -0.2253
 9834TIP3    H150993   0.303   3.593  10.851 -0.1174  0.1422  0.1599
 9834TIP3    H250994   0.442   3.644  10.820 -0.2246 -0.8318 -2.1767
 9835TIP3   OH250995   0.608   4.505  14.347 -0.0775 -0.6928  0.6625
 9835TIP3    H150996   0.650   4.544  14.424 -0.5859  0.5396  0.3447
 9835TIP3    H250997   0.523   4.549  14.341 -0.1800 -1.0109 -0.4054
 9836TIP3   OH250998   4.689   2.358  14.442  0.5823 -0.2386  0.5354
 9836TIP3    H150999   4.657   2.404  14.365  0.6829 -1.3814 -0.2088
 9836TIP3    H251000   4.760   2.412  14.475 -0.7945  1.3207  1.0604
 9837TIP3   OH251001   3.924   4.248  13.073  0.6163  0.5076  0.0129
 9837TIP3    H151002   3.953   4.216  13.158  0.7609  3.8854  1.4072
 9837TIP3    H251003   4.002   4.288  13.035  0.1932  0.3566 -1.0438
 9838TIP3   OH251004   4.584   5.400   5.546 -0.2324 -0.0412  0.0785
 9838TIP3    H151005   4.539   5.480   5.518 -0.2394 -0.8454 -2.5303
 9838TIP3    H251006   4.514   5.337   5.563 -0.1957  0.1488  0.9626
 9839TIP3   OH251007   4.305   3.718   1.417 -0.2574 -0.0105  0.2430
 9839TIP3    H151008   4.306   3.812   1.399 -0.2117  0.5002  2.5917
 9839TIP3    H251009   4.398   3.693   1.416  0.0627  0.7284  2.7322
 9840TIP3   OH251010   6.577   6.142  14.758 -0.2110 -0.1135 -0.3884
 9840TIP3    H151011   6.586   6.047  14.751 -0.2711 -0.0575 -1.4414
 9840TIP3    H251012   6.550   6.170  14.670  0.7153  0.9826 -0.3461
 9841TIP3   OH251013   5.709   0.335  14.536  0.1766 -0.4781  0.1194
 9841TIP3    H151014   5.647   0.265  14.554 -1.2023  0.7209  0.2451
 9841TIP3    H251015   5.726   0.375  14.621  0.1977 -0.0530 -0.0803
 9842TIP3   OH251016   6.633   0.270  15.592 -0.2313 -0.2538 -0.2127
 9842TIP3    H151017   6.642   0.214  15.515 -0.5914  1.1663 -1.3478
 9842TIP3    H251018   6.630   0.359  15.556  1.0434  0.5543  1.5636
 9843TIP3   OH251019   2.429   4.823  12.969  0.2231  0.1465 -0.2086
 9843TIP3    H151020   2.422   4.915  12.946 -1.4182  0.2253  0.4508
 9843TIP3    H251021   2.440   4.777  12.885  2.2996  0.9940 -0.4538
 9844TIP3   OH251022   5.617   1.653  11.702  0.1893  0.6049  0.0905
 9844TIP3    H151023   5.585   1.596  11.772  2.1308 -0.0720  0.4783
 9844TIP3    H251024   5.672   1.717  11.746  1.3285  0.2607 -0.7718
 9845TIP3   OH251025   2.401   4.735  13.965 -0.3155 -0.0426  0.2331
 9845TIP3    H151026   2.312   4.742  14.000 -0.8773  0.8925 -1.3139
 9845TIP3    H251027   2.390   4.719  13.872  1.1584 -0.7777  0.1458
 9846TIP3   OH251028   2.840   1.722   2.612 -0.3275 -0.2739 -0.0911
 9846TIP3    H151029   2.814   1.737   2.703  1.9348 -1.3392  0.7961
 9846TIP3    H251030   2.774   1.662   2.579 -0.0093 -1.6285  1.5651
 9847TIP3   OH251031   0.425   6.775  12.179 -0.2600 -0.2187  0.1459
 9847TIP3    H151032   0.409   6.757  12.086  1.5429 -1.2759 -0.0053
 9847TIP3    H251033   0.493   6.842  12.179 -0.6919  0.2213  0.7106
 9848TIP3   OH251034   3.621   1.951   0.052  0.2715 -0.0577 -0.3433
 9848TIP3    H151035   3.619   2.033   0.003  0.2191  0.5665  0.6791
 9848TIP3    H251036   3.529   1.930   0.068  0.2806 -0.3935 -0.7301
 9849TIP3   OH251037   3.844   5.606   6.452  0.3039  0.3509 -0.4220
 9849TIP3    H151038   3.812   5.656   6.528 -1.7164  1.0916 -1.6847
 9849TIP3    H251039   3.769   5.553   6.425  1.3544 -0.7806 -1.2191
 9850TIP3   OH251040   6.768   6.580  11.166 -0.2427  0.1982 -0.4234
 9850TIP3    H151041   6.675   6.557  11.174 -0.6315  2.1663  1.3752
 9850TIP3    H251042   6.782   6.589  11.071 -2.5910  2.3202 -0.6835
 9851TIP3   OH251043   4.247   1.828  13.507  0.5153  0.3365  0.3565
 9851TIP3    H151044   4.313   1.847  13.441  1.1045 -1.0653  0.5257
 9851TIP3    H251045   4.291   1.842  13.591  0.7493 -1.0520  0.4741
 9852TIP3   OH251046   2.268   5.640  15.934 -0.8322 -0.1410  0.2805
 9852TIP3    H151047   2.356   5.628  15.967  1.0198  1.9532 -3.2856
 9852TIP3    H251048   2.229   5.705  15.994  0.3510 -0.3856  1.3636
 9853TIP3   OH251049   1.634   4.199   5.096 -0.1725  0.5060 -0.2209
 9853TIP3    H151050   1.718   4.242   5.081 -0.0102  0.0682 -0.5845
 9853TIP3    H251051   1.656   4.122   5.149 -0.1167 -0.4875 -1.6482
 9854TIP3   OH251052   2.577   3.657   5.535  0.1399 -0.5384  0.0748
 9854TIP3    H151053   2.572   3.743   5.493 -1.2778 -1.2833 -1.3743
 9854TIP3    H251054   2.606   3.676   5.624 -0.2001  1.4579 -0.1935
 9855TIP3   OH251055   2.798   5.406   1.021  0.0750  0.3540 -0.1359
 9855TIP3    H151056   2.796   5.338   1.088  3.2635 -0.4151 -0.6479
 9855TIP3    H251057   2.806   5.358   0.938  0.3459  1.3308 -0.6946
 9856TIP3   OH251058   6.365   4.551  14.214  0.1834  0.2466  0.4579
 9856TIP3    H151059   6.451   4.539  14.255  1.8211  1.1218 -2.4389
 9856TIP3    H251060   6.361   4.645  14.197 -0.2275 -0.1182 -1.6286
 9857TIP3   OH251061   4.249   2.883   5.116  0.9593  0.2970  0.1017
 9857TIP3    H151062   4.321   2.862   5.056 -0.5374  1.6318 -2.3240
 9857TIP3    H251063   4.170   2.875   5.063 -0.2852  4.2710  0.9833
 9858TIP3   OH251064   1.425   6.612   0.226 -0.5675  0.1280 -0.0584
 9858TIP3    H151065   1.352   6.631   0.284  0.3743  1.2529  0.8030
 9858TIP3    H251066   1.419   6.679   0.158  0.6428  1.3361  0.9776
 9859TIP3   OH251067   5.904   3.705  15.352 -0.0544 -0.0335  0.3416
 9859TIP3    H151068   5.938   3.739  15.269 -0.5738 -1.6478 -0.5687
 9859TIP3    H251069   5.848   3.632  15.327 -2.4465  1.1162  1.9221
 9860TIP3   OH251070   1.422   5.129   2.724 -0.3658  0.1571  0.0697
 9860TIP3    H151071   1.454   5.112   2.636 -0.1013 -0.4588  0.2752
 9860TIP3    H251072   1.392   5.219   2.722  1.7981  0.9374 -0.0277
 9861TIP3   OH251073   2.984   1.077   4.340 -0.2072  0.2812  0.4650
 9861TIP3    H151074   2.932   1.039   4.411 -0.8166 -0.4278 -0.3281
 9861TIP3    H251075   2.925   1.076   4.265  0.4909  0.8257 -0.0975
 9862TIP3   OH251076   0.130   5.539   0.704 -0.4245  0.4071 -0.2676
 9862TIP3    H151077   0.061   5.477   0.729  0.0678  0.2990  0.9232
 9862TIP3    H251078   0.095   5.625   0.728 -0.2253  0.3696  0.1658
 9863TIP3   OH251079   1.453   1.300   0.599  0.2814  0.1266 -0.1451
 9863TIP3    H151080   1.420   1.214   0.575 -0.0338  0.1415  0.2170
 9863TIP3    H251081   1.488   1.336   0.518 -0.4997  0.0650 -0.5225
 9864TIP3   OH251082   2.301   2.790  14.719  0.0338 -0.3165  0.2462
 9864TIP3    H151083   2.385   2.829  14.693 -0.1108 -0.4474 -0.4114
 9864TIP3    H251084   2.287   2.718  14.658 -0.3838 -0.5253  0.5833
 9865TIP3   OH251085   2.329   6.301  15.806  0.3067  0.6127  0.0156
 9865TIP3    H151086   2.268   6.313  15.733 -2.1194  0.6694  1.9059
 9865TIP3    H251087   2.322   6.208  15.827  2.6742  0.1039 -1.1142
 9866TIP3   OH251088   3.748   2.972  13.364  0.4724 -0.6768  0.0951
 9866TIP3    H151089   3.721   3.056  13.402  0.7994 -0.1266 -0.8416
 9866TIP3    H251090   3.675   2.947  13.307  1.3291  0.1487 -1.4129
 9867TIP3   OH251091   4.024   5.095  13.661 -0.4020  0.0820 -0.2794
 9867TIP3    H151092   4.062   5.084  13.748  1.0515 -0.6777 -0.9739
 9867TIP3    H251093   4.059   5.179  13.630  1.9259 -1.2271 -1.4457
 9868TIP3   OH251094   2.772   4.087  14.816  0.0608  0.0575 -0.1298
 9868TIP3    H151095   2.756   4.022  14.748 -0.5857  0.8244 -0.7370
 9868TIP3    H251096   2.855   4.127  14.792 -0.1459  0.2975 -0.4578
 9869TIP3   OH251097   1.784   1.629   1.050  0.5193 -0.4267  0.5930
 9869TIP3    H151098   1.836   1.600   1.124  1.8975 -0.3866 -0.3368
 9869TIP3    H251099   1.811   1.573   0.978  2.5534  2.3771 -1.0172
 9870TIP3   OH251100   4.045   4.584   4.509 -0.2013 -0.7766  0.3572
 9870TIP3    H151101   4.009   4.504   4.470 -0.1846 -0.6179  0.0099
 9870TIP3    H251102   4.054   4.644   4.435  0.2841 -0.6339  0.5323
 9871TIP3   OH251103   6.367   2.016  13.794 -0.3933  0.7649 -0.1038
 9871TIP3    H151104   6.388   2.075  13.866  2.5879 -0.4075  0.1553
 9871TIP3    H251105   6.430   2.038  13.726  0.3540 -1.5536 -0.2605
 9872TIP3   OH251106   4.509   0.805  14.002  0.2730 -0.0071 -0.0210
 9872TIP3    H151107   4.547   0.809  13.914  0.0486  0.4643 -0.0998
 9872TIP3    H251108   4.422   0.769  13.988 -0.2768  1.3280 -0.1737
 9873TIP3   OH251109   6.016   5.036  13.678  0.0356 -0.3202  0.6357
 9873TIP3    H151110   6.061   5.112  13.642  0.4719 -1.1228 -0.5563
 9873TIP3    H251111   6.067   5.013  13.756  1.7276 -1.1831 -0.6545
 9874TIP3   OH251112   2.355   1.105   5.877 -0.5556 -0.4820 -0.5473
 9874TIP3    H151113   2.441   1.086   5.914  0.1654  0.1974 -1.8072
 9874TIP3    H251114   2.295   1.049   5.926  0.5035 -0.5039  0.7922
 9875TIP3   OH251115   4.985   1.919  14.104 -0.0338  0.0967 -0.0579
 9875TIP3    H151116   5.080   1.913  14.115  0.0996  0.0922 -1.0987
 9875TIP3    H251117   4.952   1.935  14.192  0.7587 -1.9921  0.7035
 9876TIP3   OH251118   6.691   3.873  12.333 -0.0923 -0.2831  0.8476
 9876TIP3    H151119   6.763   3.926  12.298 -0.5064  0.3337  0.9079
 9876TIP3    H251120   6.716   3.858  12.424 -0.9376  1.6014  1.4449
 9877TIP3   OH251121   1.776   1.939  15.588  0.7013  0.3541  0.2208
 9877TIP3    H151122   1.812   2.020  15.625 -0.2010  0.0815  1.7633
 9877TIP3    H251123   1.684   1.959  15.573  0.4134 -0.4410  0.8468
 9878TIP3   OH251124   2.789   2.484   4.659 -0.1367 -0.2008  0.0327
 9878TIP3    H151125   2.751   2.408   4.703 -1.0187 -0.7012 -1.5083
 9878TIP3    H251126   2.774   2.556   4.719  0.9686 -1.2528  1.6670
 9879TIP3   OH251127   2.375   5.730   1.967  0.3295 -0.6265  0.1421
 9879TIP3    H151128   2.407   5.658   2.022 -0.6456  0.5533  2.4146
 9879TIP3    H251129   2.394   5.809   2.018 -2.5706  0.3859 -0.1615
 9880TIP3   OH251130   2.147   6.788  16.758 -0.3179  0.0299 -0.2872
 9880TIP3    H151131   2.208   6.724  16.722  0.7936 -0.1356  1.7718
 9880TIP3    H251132   2.064   6.740  16.767  0.6341 -1.3361  1.7279
 9881TIP3   OH251133   6.394   4.322  16.815 -0.3527  0.1218  0.0486
 9881TIP3    H151134   6.328   4.362  16.872 -1.6722 -0.1955 -1.2035
 9881TIP3    H251135   6.440   4.396  16.776 -2.1266  0.4698 -1.4985
 9882TIP3   OH251136   2.024   1.390  10.969  0.1154 -0.0227  0.0767
 9882TIP3    H151137   1.939   1.415  10.933  0.3384  0.3901 -0.1696
 9882TIP3    H251138   2.056   1.469  11.011 -0.9387 -0.9476  2.8177
 9883TIP3   OH251139   4.452   3.820   4.681 -0.0612  0.2996  0.0656
 9883TIP3    H151140   4.539   3.840   4.647  0.6557  0.0164  1.6423
 9883TIP3    H251141   4.422   3.902   4.721 -0.6562  0.4735 -0.7072
 9884TIP3   OH251142   4.623   2.104  16.140 -0.0463  0.6216 -0.2891
 9884TIP3    H151143   4.666   2.126  16.223 -0.9714 -0.4737  0.5074
 9884TIP3    H251144   4.660   2.165  16.077  1.7863  0.5151  0.6167
 9885TIP3   OH251145   4.049   1.967  14.854  0.4428  0.1793 -0.1327
 9885TIP3    H151146   4.091   2.033  14.799  0.3223 -1.4550 -2.3230
 9885TIP3    H251147   3.972   2.011  14.890 -0.1250  1.0219 -2.2377
 9886TIP3   OH251148   5.186   1.255  13.253 -0.0459  0.2255  0.4575
 9886TIP3    H151149   5.207   1.343  13.221  1.7934 -0.7956 -1.4438
 9886TIP3    H251150   5.091   1.253  13.259 -0.2198  1.8559 -1.0453
 9887TIP3   OH251151   0.953   2.573  16.004 -0.1213  0.8221  0.7205
 9887TIP3    H151152   0.961   2.497  15.947 -2.7813 -0.3716  1.7746
 9887TIP3    H251153   0.937   2.646  15.945  0.6486  0.2774 -0.2017
 9888TIP3   OH251154   5.061   5.066   0.723 -0.3599 -0.5933  0.2615
 9888TIP3    H151155   5.006   5.075   0.645 -0.5348 -0.2308  0.4279
 9888TIP3    H251156   5.001   5.070   0.797  0.1045  2.9898  0.6349
 9889TIP3   OH251157   5.786   2.276  14.359 -0.3900  0.2954 -0.3155
 9889TIP3    H151158   5.770   2.251  14.268 -2.2027 -0.8459  0.2747
 9889TIP3    H251159   5.736   2.357  14.371 -1.7402 -0.5651  0.1376
 9890TIP3   OH251160   6.817   2.225  14.647  0.3892  0.2900 -0.4580
 9890TIP3    H151161   6.906   2.260  14.640 -0.4313  2.3607 -1.4728
 9890TIP3    H251162   6.761   2.297  14.619 -1.5324 -1.4763 -1.4164
 9891TIP3   OH251163   0.519   3.156  12.717  0.6467 -0.1339 -0.2899
 9891TIP3    H151164   0.519   3.210  12.638  0.1312 -0.9553 -0.8664
 9891TIP3    H251165   0.575   3.204  12.778 -1.3442  2.0434 -0.0590
 9892TIP3   OH251166   6.137   4.556  16.315 -0.5930  0.0671  0.4254
 9892TIP3    H151167   6.062   4.514  16.272 -1.0290  1.4872 -0.2822
 9892TIP3    H251168   6.213   4.510  16.281 -1.1397 -2.1769  2.0179
 9893TIP3   OH251169   1.337   4.321  14.572 -0.2936  0.0346 -0.9813
 9893TIP3    H151170   1.398   4.325  14.647 -1.4999 -0.1070  0.0343
 9893TIP3    H251171   1.375   4.255  14.514  0.3012 -0.3587 -0.1652
 9894TIP3   OH251172   4.732   1.986  13.266  0.4395 -0.4629  0.7675
 9894TIP3    H151173   4.743   1.909  13.322  0.6031  0.3852  1.9316
 9894TIP3    H251174   4.817   1.997  13.224  0.3360 -1.0624  0.3852
 9895TIP3   OH251175   4.133   4.008  14.671  0.0814  0.7426  0.0470
 9895TIP3    H151176   4.110   3.916  14.660 -1.3733  1.0871 -0.0764
 9895TIP3    H251177   4.151   4.018  14.764  0.1427  0.3554  0.0752
 9896TIP3   OH251178   0.625   1.685  11.877  0.0480 -0.1936  0.2821
 9896TIP3    H151179   0.601   1.667  11.786 -0.0644 -1.8786  0.6080
 9896TIP3    H251180   0.547   1.662  11.928  0.6665 -0.9466  0.9319
 9897TIP3   OH251181   0.778   3.495   1.742 -0.2764 -0.5734  0.1125
 9897TIP3    H151182   0.710   3.459   1.800 -0.1439  1.8736  1.9566
 9897TIP3    H251183   0.860   3.475   1.787  0.3261 -3.2313 -1.9511
 9898TIP3   OH251184   3.464   3.037  12.814  0.1892 -0.1301 -0.3303
 9898TIP3    H151185   3.557   3.059  12.811  0.3388 -0.7010 -0.1129
 9898TIP3    H251186   3.430   3.061  12.728  0.5081  0.2040 -0.3651
 9899TIP3   OH251187   0.400   0.216   3.807 -0.3054 -0.6089  0.1636
 9899TIP3    H151188   0.340   0.271   3.758  0.8911  0.4226 -0.1946
 9899TIP3    H251189   0.414   0.139   3.752 -0.7920 -0.5522 -0.0337
 9900TIP3   OH251190   5.332   4.869  13.973 -0.6682 -0.0265 -0.0238
 9900TIP3    H151191   5.415   4.863  14.021 -0.6832 -1.5657 -0.1273
 9900TIP3    H251192   5.337   4.952  13.926 -0.2531  1.0765  1.8864
 9901TIP3   OH251193   6.788   4.394   5.117 -0.0983 -0.8811 -0.0010
 9901TIP3    H151194   6.821   4.311   5.083  0.5006 -0.4776 -0.4340
 9901TIP3    H251195   6.711   4.370   5.168  1.2947 -1.9618  1.7225
 9902TIP3   OH251196   0.878   6.754   2.537  0.2972  0.6217  0.2351
 9902TIP3    H151197   0.801   6.701   2.558  0.9112 -0.5926 -0.4751
 9902TIP3    H251198   0.927   6.760   2.619 -0.9256  2.1015  0.9026
 9903TIP3   OH251199   5.602   6.227  13.376 -0.1152  0.4468  0.8297
 9903TIP3    H151200   5.566   6.277  13.304 -1.1943  1.6306  2.1268
 9903TIP3    H251201   5.659   6.161  13.335  0.2026  1.8023 -0.9871
 9904TIP3   OH251202   1.021   5.048   2.873  0.0816  0.4204 -0.0736
 9904TIP3    H151203   1.000   5.001   2.954 -2.3696  1.1833 -0.1952
 9904TIP3    H251204   1.078   4.989   2.825  0.7125 -0.5023  1.7290
 9905TIP3   OH251205   4.210   4.544   3.228 -0.4252  0.2415 -0.1923
 9905TIP3    H151206   4.215   4.639   3.241 -0.8420  0.4716 -1.5662
 9905TIP3    H251207   4.162   4.533   3.146 -0.2370 -1.1572 -0.1446
 9906TIP3   OH251208   5.746   4.239  15.003 -0.5713  0.2478  0.0085
 9906TIP3    H151209   5.820   4.297  14.982 -1.5667  1.5137 -0.1258
 9906TIP3    H251210   5.783   4.151  14.998  0.2639  0.6362 -3.1117
 9907TIP3   OH251211   3.971   1.604   3.012  0.2203  0.5181 -0.1435
 9907TIP3    H151212   3.899   1.648   3.059  0.3961 -0.6511  1.2847
 9907TIP3    H251213   4.049   1.652   3.040  0.2490  0.2508  0.2502
 9908TIP3   OH251214   1.681   2.866  13.360 -1.0127  0.2845  0.0688
 9908TIP3    H151215   1.611   2.808  13.331  0.7416 -1.8527 -0.1269
 9908TIP3    H251216   1.762   2.820  13.337  0.4734  2.3802  0.8117
 9909TIP3   OH251217   4.452   3.122   5.494  0.2693 -0.2314  0.0766
 9909TIP3    H151218   4.363   3.089   5.486  0.6920 -1.6877  0.8731
 9909TIP3    H251219   4.473   3.112   5.587  1.2410  0.1297 -0.0883
 9910TIP3   OH251220   5.279   1.882   1.617  0.3794  0.7729 -0.2065
 9910TIP3    H151221   5.372   1.861   1.610  0.1488 -0.0300 -0.9943
 9910TIP3    H251222   5.273   1.973   1.589  1.0816  1.2201  1.0223
 9911TIP3   OH251223   3.391   6.097   4.801 -0.6866 -0.3839  0.4201
 9911TIP3    H151224   3.356   6.029   4.744  1.5346 -1.9844  0.8382
 9911TIP3    H251225   3.455   6.143   4.747 -0.3603 -0.2835  0.8846
 9912TIP3   OH251226   0.821   1.265  12.186 -0.2137 -0.2890 -0.5439
 9912TIP3    H151227   0.781   1.321  12.120 -1.4240 -1.0428 -0.4698
 9912TIP3    H251228   0.837   1.182  12.141 -0.3130 -0.5483 -0.1057
 9913TIP3   OH251229   4.602   5.848  13.891  0.4093 -0.3143 -0.1891
 9913TIP3    H151230   4.691   5.882  13.884  0.0669  0.5391 -0.5178
 9913TIP3    H251231   4.581   5.853  13.984 -0.3696  2.3662 -0.4357
 9914TIP3   OH251232   5.385   4.479   0.142 -0.0459 -0.4009 -0.7458
 9914TIP3    H151233   5.351   4.549   0.197 -0.0949 -1.3457  0.4630
 9914TIP3    H251234   5.321   4.472   0.071 -0.3632  0.3547 -0.5441
 9915TIP3   OH251235   3.502   4.814  16.537 -0.3316 -0.2532 -0.0560
 9915TIP3    H151236   3.424   4.866  16.560  0.3898 -0.1578  2.4307
 9915TIP3    H251237   3.470   4.724  16.532 -0.7833 -0.0943 -0.0754
 9916TIP3   OH251238   5.998   3.722  14.394 -0.2618 -0.0137  0.2295
 9916TIP3    H151239   5.962   3.805  14.363 -1.2407 -0.2958  0.5607
 9916TIP3    H251240   5.921   3.667  14.409  0.3675 -0.9490  0.1076
 9917TIP3   OH251241   5.050   2.994   0.264 -0.3663  0.5547 -0.4391
 9917TIP3    H151242   5.013   3.038   0.187 -0.5888 -0.1049 -0.7198
 9917TIP3    H251243   4.976   2.988   0.325 -0.1072  1.3754 -0.0264
 9918TIP3   OH251244   2.545   0.027  14.678  0.1817 -1.1875 -0.5743
 9918TIP3    H151245   2.591  -0.006  14.756 -1.8774 -2.4355  0.1940
 9918TIP3    H251246   2.543  -0.048  14.618  1.1812 -0.4228 -1.6002
 9919TIP3   OH251247   5.013   3.085  11.019 -1.2786 -0.5167  0.0145
 9919TIP3    H151248   5.032   2.994  10.994  0.0218 -0.3417  0.2786
 9919TIP3    H251249   4.969   3.122  10.943  1.5426 -0.3239 -1.6704
 9920TIP3   OH251250   6.072   2.944   2.005  0.2490 -0.0631  0.2304
 9920TIP3    H151251   6.105   2.913   1.921 -0.7505 -0.7674  0.0831
 9920TIP3    H251252   6.054   2.865   2.055 -1.4192  0.2677  0.2078
 9921TIP3   OH251253   5.619   2.344  12.648  0.3773 -0.0392  0.0853
 9921TIP3    H151254   5.538   2.366  12.602 -1.5985 -1.5766  2.5672
 9921TIP3    H251255   5.616   2.249  12.658  0.9690  0.1485  2.8001
 9922TIP3   OH251256   5.162   3.862  14.528  0.2917  0.7044 -0.0944
 9922TIP3    H151257   5.070   3.856  14.551  0.4839 -1.7064  0.3084
 9922TIP3    H251258   5.209   3.844  14.609  1.1933  3.0750 -0.0182
 9923TIP3   OH251259   2.752   3.870  15.002  0.9365 -0.5883 -0.1441
 9923TIP3    H151260   2.671   3.825  14.976  1.1725 -1.9591  1.3559
 9923TIP3    H251261   2.763   3.938  14.936 -2.0677  0.4240  0.2324
 9924TIP3   OH251262   6.613   2.133  15.321 -0.0098 -0.2145 -0.1134
 9924TIP3    H151263   6.639   2.077  15.394  0.8806  0.3404  0.0059
 9924TIP3    H251264   6.537   2.181  15.354  0.4574  0.1201  0.5023
 9925TIP3   OH251265   0.711   5.537  11.610  0.2920  0.5508  0.1540
 9925TIP3    H151266   0.716   5.468  11.677  0.1148  0.4284  0.0398
 9925TIP3    H251267   0.665   5.608  11.654  0.3492  0.5453  0.2262
 9926TIP3   OH251268   1.857   2.214   4.894 -0.5529  0.2140  0.0960
 9926TIP3    H151269   1.776   2.262   4.912 -1.1964  0.0547 -2.0637
 9926TIP3    H251270   1.827   2.130   4.858  0.5818 -0.9179  1.6863
 9927TIP3   OH251271   0.453   0.002   1.294 -0.0621 -0.6075  0.0113
 9927TIP3    H151272   0.509   0.003   1.216 -0.0326 -0.9922  0.0285
 9927TIP3    H251273   0.442   0.095   1.316 -2.0824 -0.3432 -1.8738
 9928TIP3   OH251274   1.699   4.348  15.497  0.1021 -0.2382 -0.1219
 9928TIP3    H151275   1.720   4.335  15.590 -0.5111  0.3678  0.1125
 9928TIP3    H251276   1.604   4.339  15.493  0.1818 -0.8073 -0.7910
 9929TIP3   OH251277   4.897   1.129   2.070  0.3319  0.6570 -0.2923
 9929TIP3    H151278   4.879   1.160   2.158 -1.4261 -3.1694  0.9230
 9929TIP3    H251279   4.833   1.174   2.014  1.7297  3.4253  0.1833
 9930TIP3   OH251280   2.629   4.510  15.839 -0.3025  0.2008 -0.3109
 9930TIP3    H151281   2.695   4.447  15.811 -2.3564 -1.0137 -3.0496
 9930TIP3    H251282   2.593   4.544  15.756 -1.6568  2.3666  1.0686
 9931TIP3   OH251283   5.322   2.238   2.092  0.3379 -0.1151 -0.2942
 9931TIP3    H151284   5.349   2.209   2.005  1.6970  0.6653 -0.1515
 9931TIP3    H251285   5.348   2.330   2.096 -0.3924  0.0686  0.6725
 9932TIP3   OH251286   3.662   4.760  13.702  0.1157 -0.0895 -0.3894
 9932TIP3    H151287   3.592   4.702  13.672 -0.6276  0.8601 -0.5250
 9932TIP3    H251288   3.668   4.828  13.635  1.0736 -0.0718 -0.3035
 9933TIP3   OH251289   3.647   4.060  11.427 -0.5261  0.0512  0.5517
 9933TIP3    H151290   3.646   4.023  11.339  1.4826 -0.2260  0.6095
 9933TIP3    H251291   3.731   4.105  11.434  0.9255 -2.7595  3.4179
 9934TIP3   OH251292   4.132   6.300   0.527 -0.1086  0.5154  0.8141
 9934TIP3    H151293   4.054   6.260   0.565 -0.7358  0.2651 -0.6876
 9934TIP3    H251294   4.184   6.327   0.603 -0.6234 -1.2744  1.8506
 9935TIP3   OH251295   2.368   1.737  14.120 -0.0033  0.1445  0.2227
 9935TIP3    H151296   2.279   1.770  14.117 -0.2117 -0.4763 -0.8228
 9935TIP3    H251297   2.369   1.663  14.060  1.2396  0.1824  0.1582
 9936TIP3   OH251298   1.151   4.783   2.068  0.5295 -0.1946  0.2955
 9936TIP3    H151299   1.135   4.708   2.010 -0.5877  1.2352 -1.3583
 9936TIP3    H251300   1.243   4.804   2.054  0.6004 -0.6560  0.0223
 9937TIP3   OH251301   4.249   2.270   3.726 -0.4148 -0.1514 -0.3301
 9937TIP3    H151302   4.297   2.345   3.689  0.0745 -0.2148  0.1533
 9937TIP3    H251303   4.190   2.309   3.790  0.9404 -0.2752  1.0612
 9938TIP3   OH251304   6.398   1.598   5.021 -0.6998  0.0329 -0.4211
 9938TIP3    H151305   6.351   1.672   4.982 -0.4060  0.0373 -0.7738
 9938TIP3    H251306   6.331   1.530   5.032 -1.5365  1.1058  2.0792
 9939TIP3   OH251307   4.905   0.830   3.834 -0.0602 -0.0202 -0.1545
 9939TIP3    H151308   4.822   0.788   3.853 -0.1197  1.1827  2.6908
 9939TIP3    H251309   4.882   0.908   3.783 -0.6590  0.1815  0.4205
 9940TIP3   OH251310   5.232   3.880  13.126 -0.3417  0.1999  0.5168
 9940TIP3    H151311   5.246   3.786  13.129 -2.0382 -0.1995 -1.7042
 9940TIP3    H251312   5.300   3.913  13.068 -0.2956  0.2254  0.5839
 9941TIP3   OH251313   5.307   0.021   4.960  0.1207 -0.2067  0.0733
 9941TIP3    H151314   5.290  -0.033   4.883 -0.8206 -0.0753  0.1779
 9941TIP3    H251315   5.242   0.091   4.955  2.0102  1.5997 -0.6657
 9942TIP3   OH251316   1.843   1.094  11.023  0.3324 -0.6486 -0.1496
 9942TIP3    H151317   1.759   1.107  11.066 -0.4899  0.3771 -1.9697
 9942TIP3    H251318   1.834   1.011  10.977  0.5661 -0.8704  0.2013
 9943TIP3   OH251319   2.602   6.842  12.483  0.2816 -0.3608  0.0487
 9943TIP3    H151320   2.532   6.879  12.538 -0.2315 -0.1351 -0.7467
 9943TIP3    H251321   2.658   6.795  12.545  0.3605  0.8437  0.9329
 9944TIP3   OH251322   1.328   6.037   1.546 -0.0785 -0.4343  0.1318
 9944TIP3    H151323   1.330   6.006   1.456  0.4052  1.4874 -0.5785
 9944TIP3    H251324   1.326   5.957   1.599 -1.3906 -1.6059 -1.5670
 9945TIP3   OH251325   2.995   1.808   1.396  0.1414 -0.2166 -0.4150
 9945TIP3    H151326   3.054   1.790   1.468  0.9158  0.2786 -0.9043
 9945TIP3    H251327   2.994   1.728   1.344 -2.8810 -1.7727  1.7449
 9946TIP3   OH251328   2.537   3.598   3.798 -0.7645  0.5106 -0.3519
 9946TIP3    H151329   2.623   3.638   3.810  0.9207 -2.4450 -1.5534
 9946TIP3    H251330   2.511   3.623   3.709  0.4288 -1.1649 -1.2206
 9947TIP3   OH251331   1.827   2.778  12.491  0.3755 -0.1368 -0.4187
 9947TIP3    H151332   1.818   2.872  12.477 -0.8635 -0.2046 -0.1989
 9947TIP3    H251333   1.921   2.761  12.485  0.9859  1.5667  2.5086
 9948TIP3   OH251334   5.941   2.708   2.960  0.4444 -0.0380 -0.3546
 9948TIP3    H151335   6.028   2.679   2.931  0.2722 -0.2261 -0.6876
 9948TIP3    H251336   5.955   2.799   2.989  0.7643 -0.0892 -0.3375
 9949TIP3   OH251337   0.205   6.817   4.066 -0.0540 -0.3103 -0.6688
 9949TIP3    H151338   0.173   6.732   4.035 -0.9725 -1.5842  3.1423
 9949TIP3    H251339   0.287   6.796   4.110 -0.2093  0.7826  0.1755
 9950TIP3   OH251340   3.446   6.025   5.555  0.4901  0.4490  0.0160
 9950TIP3    H151341   3.395   6.105   5.565 -1.3043 -0.9293  3.4776
 9950TIP3    H251342   3.534   6.048   5.586 -0.0545  1.0856  1.1269
 9951TIP3   OH251343   3.480   5.650   3.439  0.2538 -0.1289  0.5937
 9951TIP3    H151344   3.424   5.582   3.400  1.0469 -0.2566 -0.3629
 9951TIP3    H251345   3.519   5.609   3.516 -0.6258 -0.1751  1.0264
 9952TIP3   OH251346   0.779   3.407   4.818  0.3092  0.0521  0.0136
 9952TIP3    H151347   0.834   3.486   4.827 -0.7499  0.8167 -0.0332
 9952TIP3    H251348   0.810   3.349   4.887  0.4645  0.9059  0.6824
 9953TIP3   OH251349   3.757   2.451  16.114 -0.1935 -0.6882  0.6504
 9953TIP3    H151350   3.738   2.411  16.029  0.0930  0.7480 -0.1285
 9953TIP3    H251351   3.848   2.427  16.132  0.0119 -0.3295  0.1380
 9954TIP3   OH251352   6.120   5.741   0.001 -0.0325  0.2627 -0.0264
 9954TIP3    H151353   6.101   5.830  -0.030 -1.0691 -0.0101 -0.2151
 9954TIP3    H251354   6.040   5.715   0.047  0.3531 -0.4896  0.2239
 9955TIP3   OH251355   4.543   6.216  12.532 -0.7167 -0.0986 -0.3654
 9955TIP3    H151356   4.535   6.122  12.546 -0.6227 -0.0013  0.3407
 9955TIP3    H251357   4.610   6.245  12.594 -0.4214  0.3654 -0.8857
 9956TIP3   OH251358   3.687   4.431   1.145  0.4397 -0.6542  0.2929
 9956TIP3    H151359   3.755   4.498   1.132 -1.4613  0.9732 -2.0533
 9956TIP3    H251360   3.694   4.375   1.068 -0.8266 -0.4848  0.0403
 9957TIP3   OH251361   6.411   4.124   6.419 -0.0399  0.2186  0.8718
 9957TIP3    H151362   6.386   4.035   6.445  0.9328 -1.0068 -2.0183
 9957TIP3    H251363   6.505   4.128   6.432  0.1629  0.2527 -0.4854
 9958TIP3   OH251364   3.636   2.645  11.272 -0.0242 -0.4703  0.7701
 9958TIP3    H151365   3.595   2.653  11.359 -1.7229 -2.4591  0.2480
 9958TIP3    H251366   3.581   2.581  11.226  0.7987  0.5622 -1.8150
 9959TIP3   OH251367   6.169   6.567   5.697  0.0258 -0.2277 -0.1016
 9959TIP3    H151368   6.246   6.569   5.753 -0.4671  1.5121  0.6041
 9959TIP3    H251369   6.099   6.606   5.751 -1.7871 -3.0962 -0.1617
 9960TIP3   OH251370   1.599   3.344  10.407  0.1718  0.0453  0.0427
 9960TIP3    H151371   1.670   3.346  10.472 -0.2159  0.9526  0.4632
 9960TIP3    H251372   1.546   3.269  10.433 -0.6239  1.0484  1.5343
 9961TIP3   OH251373   4.542   3.704  15.904 -0.0390  0.2987  0.0322
 9961TIP3    H151374   4.584   3.775  15.953  1.3483  0.7791 -1.7314
 9961TIP3    H251375   4.596   3.627  15.923  1.2799  0.7507 -1.6212
 9962TIP3   OH251376   2.450   3.762   2.792 -0.1082  0.1692  0.2009
 9962TIP3    H151377   2.355   3.763   2.797 -0.0914  3.1750  1.9472
 9962TIP3    H251378   2.479   3.725   2.875  0.3409 -2.3378 -0.9853
 9963TIP3   OH251379   2.364   6.721   3.666 -0.1736  0.4452 -0.1141
 9963TIP3    H151380   2.416   6.772   3.728  0.6574  0.6009 -0.9147
 9963TIP3    H251381   2.296   6.781   3.636  0.1547  0.7596 -0.2451
 9964TIP3   OH251382   2.719   5.977   0.054 -0.2766  0.6728 -0.5703
 9964TIP3    H151383   2.640   5.927   0.075  0.4548 -0.8631 -1.2917
 9964TIP3    H251384   2.757   5.998   0.138 -0.3969 -0.3626 -0.2413
 9965TIP3   OH251385   3.572   4.554  16.362 -0.0761  0.6549 -0.1518
 9965TIP3    H151386   3.648   4.522  16.314  1.8362  3.5354  0.7297
 9965TIP3    H251387   3.586   4.526  16.452 -0.1372  1.0812 -0.0092
 9966TIP3   OH251388   3.692   1.248   1.889 -0.2699  0.8468  0.3793
 9966TIP3    H151389   3.758   1.213   1.828 -0.5088  0.7075  0.2003
 9966TIP3    H251390   3.707   1.343   1.889 -1.1963  1.0064 -0.9922
 9967TIP3   OH251391   3.122   6.648   2.222 -0.1817 -1.0124 -0.4780
 9967TIP3    H151392   3.194   6.661   2.283 -0.9003  0.2978  0.1394
 9967TIP3    H251393   3.046   6.630   2.279 -0.5104 -1.5380 -1.0733
 9968TIP3   OH251394   2.075   1.699   0.361 -0.0776  0.1937  0.2953
 9968TIP3    H151395   2.023   1.771   0.325 -1.3522 -1.1727 -0.7593
 9968TIP3    H251396   2.020   1.661   0.429 -0.6350 -1.3829 -0.9520
 9969TIP3   OH251397   2.589   3.746   2.531 -0.5183  0.4348  0.1941
 9969TIP3    H151398   2.498   3.740   2.500 -0.1863 -2.6038 -0.5287
 9969TIP3    H251399   2.584   3.724   2.624 -0.5705  0.5738  0.2236
 9970TIP3   OH251400   2.328   0.693   6.032  0.3095  0.1498 -0.0057
 9970TIP3    H151401   2.285   0.629   6.088  1.8679 -0.3104  0.7169
 9970TIP3    H251402   2.419   0.664   6.027  1.0689  2.2562  0.3239
 9971TIP3   OH251403   5.571   5.799  14.495  0.1770 -0.0087 -0.0204
 9971TIP3    H151404   5.576   5.862  14.423 -2.7228 -0.7045 -0.9647
 9971TIP3    H251405   5.604   5.846  14.571  0.4061  1.8140 -1.2021
 9972TIP3   OH251406   5.893   4.491  14.349 -0.1681  0.1638 -0.1124
 9972TIP3    H151407   5.841   4.423  14.305 -1.3216  0.7086  0.3771
 9972TIP3    H251408   5.949   4.442  14.410  2.3414 -0.7443 -2.8674
 9973TIP3   OH251409   2.867   6.635  13.912  0.0728  0.4543  0.4485
 9973TIP3    H151410   2.878   6.555  13.861 -0.6202  0.4679  0.2761
 9973TIP3    H251411   2.846   6.702  13.847 -1.5729  0.3199  0.8200
 9974TIP3   OH251412   2.252   5.767  13.195  0.0339  0.3114 -0.3366
 9974TIP3    H151413   2.180   5.715  13.161 -0.1545  1.2900 -1.5110
 9974TIP3    H251414   2.223   5.858  13.183  1.8370  0.7555 -1.7266
 9975TIP3   OH251415   1.535   4.999  15.319  0.3551  0.0890  0.3108
 9975TIP3    H151416   1.456   5.027  15.271 -0.1493 -0.7574  0.6340
 9975TIP3    H251417   1.519   5.027  15.409  1.0117  1.0790  0.1415
 9976TIP3   OH251418   3.371   5.836   4.386  0.2875 -0.0056  0.1042
 9976TIP3    H151419   3.396   5.877   4.302  2.2991  0.0864  0.6884
 9976TIP3    H251420   3.374   5.742   4.368  0.6885  0.0145  0.0471
 9977TIP3   OH251421   1.033   4.359  13.378  0.1491 -0.1942  0.0344
 9977TIP3    H151422   1.069   4.423  13.316  0.8845 -1.3986 -0.8221
 9977TIP3    H251423   1.109   4.331  13.430 -0.4457  0.7592  1.4906
 9978TIP3   OH251424   0.482   2.563   0.690 -0.9385 -0.1391 -0.4128
 9978TIP3    H151425   0.484   2.467   0.694  0.1040 -0.1759 -1.3692
 9978TIP3    H251426   0.418   2.588   0.757 -1.7923 -1.5282 -0.6604
 9979TIP3   OH251427   4.624   0.307  15.568  0.2104  0.4178 -0.0806
 9979TIP3    H151428   4.636   0.246  15.641  1.3622  0.8123  0.0839
 9979TIP3    H251429   4.709   0.310  15.525 -0.9170 -1.2660 -2.6630
 9980TIP3   OH251430   3.320   5.109  13.270  0.4792  0.5463 -0.6997
 9980TIP3    H151431   3.392   5.059  13.309 -0.9862 -0.3938  0.9379
 9980TIP3    H251432   3.345   5.118  13.178  1.5705 -1.8244 -0.7213
 9981TIP3   OH251433   2.425   0.093  13.528 -0.3477 -0.0665 -0.6837
 9981TIP3    H151434   2.347   0.057  13.571 -1.6051  0.5960 -2.2889
 9981TIP3    H251435   2.465   0.149  13.595 -0.1002 -1.9164  0.8147
 9982TIP3   OH251436   2.389   4.805   0.779  0.6199 -0.0895 -0.4757
 9982TIP3    H151437   2.343   4.882   0.814  0.0387 -0.3296 -0.6992
 9982TIP3    H251438   2.319   4.748   0.747  0.9853 -1.1791  0.6075
 9983TIP3   OH251439   3.236   6.306  12.303  0.0469 -0.2388 -0.0130
 9983TIP3    H151440   3.233   6.241  12.373  0.3238  0.9593  1.1705
 9983TIP3    H251441   3.327   6.336  12.301 -0.2472  0.7207  0.0815
 9984TIP3   OH251442   1.311   3.976   4.550 -0.2655 -0.0825 -0.4110
 9984TIP3    H151443   1.270   4.047   4.600 -1.2971 -1.2341  0.4555
 9984TIP3    H251444   1.404   4.000   4.546 -0.4393  0.8634  0.6555
 9985TIP3   OH251445   3.342   6.727   4.594 -0.3901 -0.3971  0.1994
 9985TIP3    H151446   3.413   6.791   4.600 -0.6485 -0.2467  2.3038
 9985TIP3    H251447   3.273   6.773   4.546  1.5464 -1.2670 -3.9070
 9986TIP3   OH251448   4.286   0.274  11.743 -0.5368  0.0570 -0.7303
 9986TIP3    H151449   4.203   0.293  11.699 -1.1870 -0.6916  0.1319
 9986TIP3    H251450   4.301   0.349  11.800 -1.6131 -0.6409  0.5194
 9987TIP3   OH251451   6.456   4.680   2.871  0.4427  0.3595  0.0384
 9987TIP3    H151452   6.395   4.657   2.940  1.3447 -0.9746  0.4309
 9987TIP3    H251453   6.411   4.658   2.789 -0.4908  1.6188  0.1943
 9988TIP3   OH251454   5.943   2.826   0.025 -0.0209  0.7465  0.0286
 9988TIP3    H151455   5.887   2.811  -0.051 -1.9755 -1.0252  1.7101
 9988TIP3    H251456   5.888   2.876   0.085  0.5168 -0.1971  1.3434
 9989TIP3   OH251457   4.798   3.416   0.853 -0.2685 -0.2455 -0.3641
 9989TIP3    H151458   4.720   3.442   0.804 -0.1638  1.7435  0.4280
 9989TIP3    H251459   4.870   3.434   0.793 -0.1282  2.3552  0.4770
 9990TIP3   OH251460   2.422   2.395  13.730  0.2405 -0.3593 -0.0155
 9990TIP3    H151461   2.381   2.363  13.811  0.0432 -2.0511 -0.7516
 9990TIP3    H251462   2.500   2.341  13.719  0.5030  0.1458 -0.7500
 9991TIP3   OH251463   4.171   5.873   0.383  0.3129 -0.7418  0.0315
 9991TIP3    H151464   4.233   5.946   0.374 -1.2206  0.4870 -0.9211
 9991TIP3    H251465   4.140   5.856   0.294 -1.0095 -1.0726  0.5292
 9992TIP3   OH251466   2.641   3.439  17.000  0.2931  0.0382  0.0363
 9992TIP3    H151467   2.552   3.436  16.964  0.2503 -0.0130  0.1455
 9992TIP3    H251468   2.678   3.520  16.966  0.7151 -0.6521 -1.2013
 9993TIP3   OH251469   6.037   3.605   3.544  0.2061  0.3843 -0.0180
 9993TIP3    H151470   5.996   3.670   3.487  0.4848  0.0663 -0.5823
 9993TIP3    H251471   5.972   3.535   3.550  0.1017  0.4987  0.2072
 9994TIP3   OH251472   3.983   0.680   0.607  0.8351 -0.1279 -0.0656
 9994TIP3    H151473   3.908   0.644   0.654 -0.0049  1.2333 -0.3082
 9994TIP3    H251474   3.997   0.766   0.646  0.3547  0.8836 -2.0291
 9995TIP3   OH251475   4.330   6.125  11.939 -0.1218  0.1315  0.3584
 9995TIP3    H151476   4.404   6.167  11.895 -1.2415  1.8456  0.0656
 9995TIP3    H251477   4.361   6.112  12.029  1.0137 -0.4630 -0.0888
 9996TIP3   OH251478   2.017   0.984  16.395  0.3128  0.1488 -0.1970
 9996TIP3    H151479   2.057   1.033  16.467  1.5347 -1.5166  0.3266
 9996TIP3    H251480   2.089   0.964  16.336 -0.6260  1.2264 -1.7842
 9997TIP3   OH251481   5.293   2.749  13.396  0.3018 -0.5336 -0.4940
 9997TIP3    H151482   5.267   2.730  13.486  2.1185 -0.1564  0.1602
 9997TIP3    H251483   5.220   2.799  13.359  0.8234  2.2068  1.8390
 9998TIP3   OH251484   6.561   6.565  11.406  0.1300 -0.1578 -0.0948
 9998TIP3    H151485   6.610   6.484  11.391  1.0983  0.7748 -2.4897
 9998TIP3    H251486   6.626   6.627  11.439 -0.5663 -0.2413  1.5506
 9999TIP3   OH251487   1.809   2.882   1.121  0.0532 -0.0937 -0.1408
 9999TIP3    H151488   1.784   2.847   1.206 -0.4086  0.6530  0.0334
 9999TIP3    H251489   1.903   2.863   1.115  0.4197  1.1529  1.1778
10000TIP3   OH251490   1.902   5.211   3.185 -0.1741  0.2549  0.0629
10000TIP3    H151491   1.883   5.225   3.093  0.2684  1.5650  0.1569
10000TIP3    H251492   1.816   5.216   3.229 -0.2264  0.9772 -0.1187
10001TIP3   OH251493   4.269   4.703  13.746 -0.1147  0.0076 -0.3367
10001TIP3    H151494   4.243   4.793  13.730  0.5857  0.2995  0.1133
10001TIP3    H251495   4.357   4.695  13.708  0.4610 -0.0356  0.9270
10002TIP3   OH251496   2.304   0.533  13.667 -0.1666 -0.4504 -0.5753
10002TIP3    H151497   2.250   0.533  13.589  1.0956 -0.5161 -1.4721
10002TIP3    H251498   2.249   0.572  13.735 -0.8834  0.6665 -1.7675
10003TIP3   OH251499   6.382   3.623  14.050  1.0077 -0.4181  0.2014
10003TIP3    H151500   6.412   3.693  14.107  0.5210 -0.2361  0.2446
10003TIP3    H251501   6.372   3.547  14.107  0.3688 -0.1947  0.4014
10004TIP3   OH251502   1.299   6.845  11.202  0.1962 -0.5206 -0.0198
10004TIP3    H151503   1.273   6.871  11.113  0.8656  1.4456  0.3268
10004TIP3    H251504   1.316   6.751  11.194 -1.4769 -0.7739 -1.5453
10005TIP3   OH251505   1.385   4.422  12.994 -0.2844 -0.4837 -0.6323
10005TIP3    H151506   1.356   4.421  12.903  0.4527 -0.5023 -0.8676
10005TIP3    H251507   1.449   4.352  13.000 -0.5439 -0.6754 -0.0247
10006TIP3   OH251508   6.346   1.244  15.504  0.7594 -0.4048 -0.5794
10006TIP3    H151509   6.398   1.316  15.472 -0.9494  0.9939 -0.3576
10006TIP3    H251510   6.305   1.207  15.426  0.4113 -0.1262 -0.5298
10007TIP3   OH251511   1.730   0.416   2.066 -0.2078 -0.1979  0.3340
10007TIP3    H151512   1.794   0.429   1.996 -0.0674 -2.9425 -0.1708
10007TIP3    H251513   1.650   0.388   2.021 -1.3173  1.5991  1.0743
10008TIP3   OH251514   2.697   5.499  16.247 -0.0806 -0.3846 -0.1233
10008TIP3    H151515   2.778   5.471  16.288 -0.2987  0.5822  1.0352
10008TIP3    H251516   2.642   5.528  16.320 -1.8330 -1.8757 -0.7828
10009TIP3   OH251517   0.795   2.927  12.731 -0.0737 -0.6116  0.0360
10009TIP3    H151518   0.874   2.941  12.782 -0.5954  0.0458  0.6911
10009TIP3    H251519   0.728   2.904  12.796 -0.8137  0.5094 -0.2912
10010TIP3   OH251520   5.169   4.995   5.573  0.1266  0.1390  0.1581
10010TIP3    H151521   5.081   5.031   5.577  0.3459  0.7774 -0.5234
10010TIP3    H251522   5.191   4.976   5.665 -1.0812 -0.9831  0.2335
10011TIP3   OH251523   0.957   3.989   4.463 -0.5343 -0.5547  0.1806
10011TIP3    H151524   1.024   3.930   4.428 -1.6697 -2.5134  1.1276
10011TIP3    H251525   1.002   4.037   4.533  0.3567 -0.4409 -0.4513
10012TIP3   OH251526   0.338   3.244  14.213 -0.0530 -0.0450  0.3025
10012TIP3    H151527   0.375   3.234  14.125 -0.3677 -0.9628  0.2719
10012TIP3    H251528   0.247   3.269  14.197 -1.0040 -3.1428  0.2842
10013TIP3   OH251529   2.203   6.442  16.339 -0.0264  0.3110  0.2809
10013TIP3    H151530   2.190   6.528  16.378 -0.6592 -0.1006  1.0144
10013TIP3    H251531   2.296   6.424  16.351 -0.1739  0.2530  1.5195
10014TIP3   OH251532   4.200   2.018   3.051  0.0898  0.0406  0.4972
10014TIP3    H151533   4.278   2.036   2.998  0.0017 -0.0706  0.3286
10014TIP3    H251534   4.134   2.079   3.019  0.2098  0.3750  0.8774
10015TIP3   OH251535   5.648   3.368   3.282  0.1131 -0.1289  0.0737
10015TIP3    H151536   5.576   3.308   3.260  0.9012 -1.5189  1.0835
10015TIP3    H251537   5.718   3.310   3.312  1.4600  1.2305 -0.3394
10016TIP3   OH251538   5.702   6.143   5.358 -0.1600 -0.4152  0.7515
10016TIP3    H151539   5.703   6.075   5.424  1.8912  0.4722  1.7065
10016TIP3    H251540   5.743   6.219   5.400  0.7491  0.3425 -1.3534
10017TIP3   OH251541   3.752   1.421  12.629 -0.0178  0.0525  0.0876
10017TIP3    H151542   3.828   1.368  12.604 -0.7540 -0.7309 -0.5467
10017TIP3    H251543   3.788   1.509  12.643  0.7459  0.1232 -1.9990
10018TIP3   OH251544   0.812   6.277  13.483  0.3182  0.1749 -0.6263
10018TIP3    H151545   0.837   6.196  13.439 -1.5198 -0.8004  0.0201
10018TIP3    H251546   0.753   6.321  13.422  0.1730  0.3227 -0.3820
10019TIP3   OH251547   4.229   5.007  11.604  0.2215  0.6743 -0.0486
10019TIP3    H151548   4.308   5.055  11.628  0.5782  0.6762 -1.2071
10019TIP3    H251549   4.257   4.946  11.536 -0.3041 -0.8931  1.0605
10020TIP3   OH251550   5.008   6.277  17.016 -0.1169  0.5305 -0.1036
10020TIP3    H151551   5.019   6.354  17.072 -1.2867  1.7227 -1.4300
10020TIP3    H251552   4.917   6.250  17.031  0.0474 -0.1295 -0.2567
10021TIP3   OH251553   0.270   5.137  14.755  0.3012  0.0087 -0.1843
10021TIP3    H151554   0.230   5.086  14.825  0.8680  0.5388  0.5522
10021TIP3    H251555   0.197   5.186  14.716  0.1203  0.5237  0.7583
10022TIP3   OH251556   2.415   6.238   1.440 -0.4367  0.5845 -0.3370
10022TIP3    H151557   2.414   6.159   1.386  0.9959  0.4989 -0.2781
10022TIP3    H251558   2.419   6.310   1.377  1.5335  0.4756 -0.3965
10023TIP3   OH251559   3.570   5.970  13.159  0.1326  0.9750 -0.6288
10023TIP3    H151560   3.618   6.009  13.086 -0.3523 -1.1914 -2.2219
10023TIP3    H251561   3.478   5.976  13.134 -0.1213  1.1779  0.3202
10024TIP3   OH251562   5.446   3.705   2.943 -0.1210 -0.4207  0.3722
10024TIP3    H151563   5.375   3.691   3.006  0.1840 -0.0030  0.8199
10024TIP3    H251564   5.409   3.763   2.877 -0.3762 -0.6822  0.2872
10025TIP3   OH251565   4.720   3.243   2.970  0.2907  0.4855 -0.1037
10025TIP3    H151566   4.658   3.222   2.901  1.5451 -1.9209 -0.6031
10025TIP3    H251567   4.684   3.201   3.048  0.2620  0.8437  0.0771
10026TIP3   OH251568   0.837   1.871  12.702 -0.2615 -0.3282  0.5145
10026TIP3    H151569   0.769   1.819  12.746  0.4943 -1.5226  0.3374
10026TIP3    H251570   0.796   1.956  12.686 -1.7507 -1.0439  0.3223
10027TIP3   OH251571   0.098   2.920  14.835  0.1113 -0.1199 -0.4507
10027TIP3    H151572   0.003   2.935  14.833 -0.0976 -1.1951  0.3504
10027TIP3    H251573   0.126   2.956  14.920  0.3260 -0.3052 -0.4439
10028TIP3   OH251574   3.363   6.245  16.168 -0.0012 -0.9490 -1.0092
10028TIP3    H151575   3.441   6.262  16.115  0.6138  1.2992  0.4709
10028TIP3    H251576   3.391   6.181  16.233  0.5923 -0.3522 -0.6545
10029TIP3   OH251577   6.226   1.022  16.708  0.0581  0.0334 -0.6498
10029TIP3    H151578   6.199   0.932  16.693 -0.1716  0.0976 -0.6219
10029TIP3    H251579   6.261   1.051  16.623 -1.0532  0.3309 -1.0212
10030TIP3   OH251580   2.408   3.247   1.641  0.2104 -0.3877 -0.1087
10030TIP3    H151581   2.429   3.335   1.673 -1.2299  0.9491 -2.4655
10030TIP3    H251582   2.469   3.233   1.569 -1.1312 -0.1840 -1.3498
10031TIP3   OH251583   2.422   6.668   5.286 -0.4212 -0.8979  0.0311
10031TIP3    H151584   2.375   6.750   5.302 -0.4071 -0.4056 -2.1910
10031TIP3    H251585   2.410   6.618   5.367 -3.4558 -0.1692  0.1490
10032TIP3   OH251586   1.197   0.843   0.281 -0.1926 -0.0373  0.0925
10032TIP3    H151587   1.116   0.805   0.246 -0.3940 -0.5800  1.1102
10032TIP3    H251588   1.228   0.901   0.211 -1.0404 -0.4156 -0.6258
10033TIP3   OH251589   3.612   4.236  16.803 -0.5213 -0.7883  0.5429
10033TIP3    H151590   3.596   4.296  16.875 -0.1774 -0.1837  0.1289
10033TIP3    H251591   3.683   4.180  16.834  1.3295  1.0181 -0.1727
10034TIP3   OH251592   3.490   3.355   3.825  0.0715 -0.0952 -0.4103
10034TIP3    H151593   3.414   3.300   3.802 -1.2635  1.4637  0.0961
10034TIP3    H251594   3.456   3.417   3.889  2.1174 -0.1478  0.8332
10035TIP3   OH251595   0.953   4.488  15.685  0.5963 -0.3068  0.1104
10035TIP3    H151596   1.025   4.474  15.624  1.3691  1.7309  0.4912
10035TIP3    H251597   0.933   4.581  15.679  0.1869 -0.1933  2.4066
10036TIP3   OH251598   0.139   4.617  16.250  0.2064 -0.0737 -0.2396
10036TIP3    H151599   0.062   4.671  16.265 -0.4100 -0.9662 -0.0578
10036TIP3    H251600   0.106   4.543  16.199  1.1261 -0.0224 -0.9352
10037TIP3   OH251601   4.265   4.253   2.736  0.9861 -0.4290 -0.4579
10037TIP3    H151602   4.278   4.338   2.694 -1.7338  0.2349 -0.0948
10037TIP3    H251603   4.312   4.191   2.680 -0.4978  0.7272 -3.1526
10038TIP3   OH251604   6.038   3.807  15.696  0.4912  0.0409 -0.1274
10038TIP3    H151605   6.059   3.890  15.738 -1.2989 -0.4304  1.8754
10038TIP3    H251606   5.961   3.826  15.641  2.1461  0.3963 -2.5001
10039TIP3   OH251607   2.957   5.326   3.878 -0.4973 -0.4963  0.0597
10039TIP3    H151608   2.869   5.362   3.889  0.2469  0.8340  2.3181
10039TIP3    H251609   2.955   5.243   3.926 -0.0912  0.3323  1.5396
10040TIP3   OH251610   4.745   1.514  12.218 -0.4970  0.6404  0.2105
10040TIP3    H151611   4.708   1.451  12.280 -0.0538  1.4392  1.3137
10040TIP3    H251612   4.781   1.584  12.272  1.2137  0.6740 -0.8850
10041TIP3   OH251613   6.195   4.149   4.735  0.1049 -0.0022  0.7899
10041TIP3    H151614   6.248   4.091   4.788 -0.6246  0.9021  2.6034
10041TIP3    H251615   6.251   4.172   4.660  1.7813 -0.0714  1.9738
10042TIP3   OH251616   2.748   0.911  16.687 -0.2034 -0.2341  0.0614
10042TIP3    H151617   2.842   0.923  16.693 -0.3553  0.2791  1.6351
10042TIP3    H251618   2.715   0.995  16.655 -0.3463  0.4592  1.9391
10043TIP3   OH251619   3.508   6.290  12.314 -0.0337 -0.4800 -0.2338
10043TIP3    H151620   3.597   6.272  12.281  0.6140 -1.1678  1.7282
10043TIP3    H251621   3.516   6.374  12.358 -1.5729  1.8913 -3.9959
10044TIP3   OH251622   2.525   4.273   1.849 -0.5338  0.6194 -0.0594
10044TIP3    H151623   2.587   4.306   1.914 -0.6716  0.5704  0.0972
10044TIP3    H251624   2.580   4.243   1.777 -0.2108 -1.4626  0.9679
10045TIP3   OH251625   1.171   0.696   3.615  0.7698  0.3916  0.0046
10045TIP3    H151626   1.214   0.781   3.625 -0.3189  0.8018  1.4962
10045TIP3    H251627   1.241   0.637   3.591  1.9024  1.3488  0.8206
10046TIP3   OH251628   6.180   0.394   3.135  0.8686  0.2929  0.6605
10046TIP3    H151629   6.149   0.452   3.065  0.5137  0.5630  1.0367
10046TIP3    H251630   6.270   0.421   3.150  0.7798  0.5900  0.6706
10047TIP3   OH251631   2.966   1.735  15.220 -0.1078 -0.1812 -0.1615
10047TIP3    H151632   2.907   1.792  15.268 -0.4608 -0.4703 -0.2461
10047TIP3    H251633   2.994   1.670  15.285  1.0471  0.6316  0.1908
10048TIP3   OH251634   4.418   5.494  15.368 -0.6057  0.8565  0.2187
10048TIP3    H151635   4.374   5.535  15.294 -1.8953  1.0981  1.0927
10048TIP3    H251636   4.382   5.537  15.445  3.1013  3.0204  0.9840
10049TIP3   OH251637   4.334   4.616   4.542  0.4350 -0.5602  0.5035
10049TIP3    H151638   4.250   4.583   4.511  0.4227 -1.3258  1.3241
10049TIP3    H251639   4.373   4.658   4.465 -1.2216  0.9188  0.4253
10050TIP3   OH251640   2.937   3.954   1.981  0.6559 -0.0469  1.1522
10050TIP3    H151641   2.843   3.969   1.979  0.5566 -0.7655 -0.0366
10050TIP3    H251642   2.964   3.983   2.069 -0.2738  2.4606  0.7015
10051TIP3   OH251643   0.576   2.774   2.548  0.0066 -0.6050 -0.4168
10051TIP3    H151644   0.565   2.731   2.632 -2.5915 -0.2793 -0.4888
10051TIP3    H251645   0.595   2.703   2.486 -3.1191 -1.6578 -0.3521
10052TIP3   OH251646   6.685   6.433   4.713 -0.4813 -0.1809  0.7249
10052TIP3    H151647   6.733   6.490   4.773  0.8365 -0.8651  0.3633
10052TIP3    H251648   6.723   6.451   4.627  0.6143 -2.1835  0.7119
10053TIP3   OH251649   0.462   3.184  11.014 -0.5262 -1.0110 -0.1793
10053TIP3    H151650   0.473   3.240  10.937  1.0738 -1.6636 -0.4597
10053TIP3    H251651   0.394   3.227  11.065  0.0913  0.7526 -0.7737
10054TIP3   OH251652   3.709   2.309   4.667  0.1405  0.5523 -0.7899
10054TIP3    H151653   3.700   2.229   4.616  0.7763 -0.8507  1.1907
10054TIP3    H251654   3.619   2.339   4.681 -0.1873 -0.5083 -0.5359
10055TIP3   OH251655   1.223   0.830   5.249  0.1604 -0.1747  0.1326
10055TIP3    H151656   1.265   0.863   5.329  1.9618  0.3546 -0.9790
10055TIP3    H251657   1.288   0.773   5.209 -0.1659  0.6383 -1.6371
10056TIP3   OH251658   2.866   3.163   4.792  0.4489  0.4240 -0.0803
10056TIP3    H151659   2.927   3.177   4.864  1.9902  0.3837 -1.3459
10056TIP3    H251660   2.780   3.155   4.835  1.2570  0.8678  1.6922
10057TIP3   OH251661   5.931   3.289   1.031 -0.2966  0.1667 -0.3757
10057TIP3    H151662   5.868   3.307   0.961  0.9861  2.7266 -0.9989
10057TIP3    H251663   5.980   3.213   1.000 -0.4873  0.5725 -1.7482
10058TIP3   OH251664   2.702   3.977   5.303 -0.3298 -0.5385  0.0215
10058TIP3    H151665   2.773   3.913   5.291  1.4841  1.4569 -0.5943
10058TIP3    H251666   2.695   4.020   5.218 -2.0482 -0.3909  0.2012
10059TIP3   OH251667   0.141   4.546  11.044  0.1340  0.2325  0.3595
10059TIP3    H151668   0.217   4.566  10.989  0.6572  1.7701  1.5626
10059TIP3    H251669   0.066   4.573  10.991  0.5436  0.4516 -0.1169
10060TIP3   OH251670   0.594   6.385  15.909  1.2964 -0.6839 -0.0113
10060TIP3    H151671   0.528   6.400  15.976 -1.4867 -2.1288 -2.2007
10060TIP3    H251672   0.623   6.295  15.924 -0.0600 -1.3670 -1.1939
10061TIP3   OH251673   3.296   1.760  12.414  0.1657 -0.0690  0.2792
10061TIP3    H151674   3.318   1.850  12.388  1.0553 -0.1344  0.7944
10061TIP3    H251675   3.217   1.769  12.467 -0.3645  0.2953 -0.5507
10062TIP3   OH251676   5.854   5.979   5.130 -0.2484 -0.4322 -0.0833
10062TIP3    H151677   5.857   5.911   5.197  0.8227 -0.3405 -0.0186
10062TIP3    H251678   5.764   6.012   5.133 -0.5376 -1.2389  0.4845
10063TIP3   OH251679   4.442   0.953   4.168 -0.0244  0.4456 -0.0153
10063TIP3    H151680   4.400   0.966   4.083 -1.3888  1.0905  0.7193
10063TIP3    H251681   4.526   0.998   4.160 -0.9792  2.2862 -0.4121
10064TIP3   OH251682   3.892   6.598  15.509  0.2909  0.3268  0.2339
10064TIP3    H151683   3.956   6.665  15.532  0.2870  0.6811 -0.7644
10064TIP3    H251684   3.865   6.619  15.420 -0.8004 -0.1498  0.4300
10065TIP3   OH251685   3.093   2.092   3.387  0.6953  0.1443  0.2634
10065TIP3    H151686   3.019   2.134   3.343  1.1144  0.5564 -0.0758
10065TIP3    H251687   3.170   2.136   3.349  1.0691  2.9410  3.7347
10066TIP3   OH251688   3.713   1.756   2.007  0.0109  0.8200  0.1205
10066TIP3    H151689   3.807   1.763   2.023 -0.1229  0.4322  1.1178
10066TIP3    H251690   3.706   1.712   1.922  0.7257 -0.5320  0.7378
10067TIP3   OH251691   1.493   0.836  10.972 -0.0272  0.0558 -0.4220
10067TIP3    H151692   1.579   0.850  10.932 -0.4027 -0.2639 -1.3675
10067TIP3    H251693   1.473   0.920  11.014  1.5675 -0.4369  1.4870
10068TIP3   OH251694   5.036   1.493   3.067 -0.1295  0.6689  0.5963
10068TIP3    H151695   4.992   1.528   3.144 -1.3783 -1.5809  0.9891
10068TIP3    H251696   5.055   1.570   3.014 -3.7542  1.9256  0.8236
10069TIP3   OH251697   4.893   6.293  12.553 -1.1637 -0.0582  0.4368
10069TIP3    H151698   4.823   6.327  12.609 -1.2448  1.4210 -0.4964
10069TIP3    H251699   4.973   6.327  12.591 -1.2649  1.5115 -0.6603
10070TIP3   OH251700   3.655   2.234   3.974 -0.2984  0.2172  0.2206
10070TIP3    H151701   3.738   2.235   3.926 -0.1834 -1.4718  0.3579
10070TIP3    H251702   3.614   2.151   3.951 -0.6485 -0.2656  2.3494
10071TIP3   OH251703   6.175   1.984  12.281 -0.1580  0.0015 -0.0985
10071TIP3    H151704   6.119   2.023  12.214 -0.1576 -0.6865 -0.5050
10071TIP3    H251705   6.253   2.040  12.283  0.5992 -0.9079 -1.8697
10072TIP3   OH251706   4.981   6.796  10.971 -0.2114  0.4120 -0.1691
10072TIP3    H151707   4.894   6.820  11.005 -1.6913 -1.5065 -2.2907
10072TIP3    H251708   5.007   6.720  11.023  0.0132  0.7141  0.1672
10073TIP3   OH251709   2.396   2.001  15.064  0.5079 -0.3133 -0.9219
10073TIP3    H151710   2.354   1.974  15.146 -1.1750 -1.5819 -2.1378
10073TIP3    H251711   2.420   2.093  15.079  0.3648 -0.5430  1.0148
10074TIP3   OH251712   3.301   4.847   4.901  0.4399  0.2823  0.5523
10074TIP3    H151713   3.236   4.917   4.893 -1.9229 -1.8648 -0.9181
10074TIP3    H251714   3.375   4.875   4.848 -1.2526  0.8815 -1.6273
10075TIP3   OH251715   2.635   2.127   2.099  0.2440 -0.0417  0.5778
10075TIP3    H151716   2.680   2.169   2.172 -0.8083  1.3368  0.4673
10075TIP3    H251717   2.641   2.190   2.027  1.0175 -1.2505 -0.4799
10076TIP3   OH251718   2.660   3.184   0.551  0.3317 -0.4342  0.1970
10076TIP3    H151719   2.637   3.095   0.525  0.6651 -0.4997  0.1242
10076TIP3    H251720   2.753   3.192   0.531  0.3373 -0.1168  0.3378
10077TIP3   OH251721   3.546   3.535   2.549 -0.1842 -0.3056  0.1610
10077TIP3    H151722   3.457   3.551   2.581  0.8081  1.3069  2.4308
10077TIP3    H251723   3.573   3.454   2.592  0.4878  0.8764  2.0851
10078TIP3   OH251724   6.458   1.666  11.009  0.2159 -0.1591  0.1268
10078TIP3    H151725   6.538   1.715  10.989 -0.5368  1.3644  0.6999
10078TIP3    H251726   6.396   1.693  10.941 -0.4080  0.1995  0.8215
10079TIP3   OH251727   2.850   5.570  15.651 -0.3176 -0.1614  1.1315
10079TIP3    H151728   2.767   5.536  15.617  0.3046 -1.8970  1.2726
10079TIP3    H251729   2.833   5.663  15.665 -2.2420 -0.4749  1.1765
10080TIP3   OH251730   6.008   5.234  15.452  0.6181 -0.0327 -0.0698
10080TIP3    H151731   5.957   5.309  15.421 -0.2638 -0.5389  0.1241
10080TIP3    H251732   5.993   5.166  15.386  2.4883  0.3532 -0.9591
10081TIP3   OH251733   2.349   0.115   0.774 -0.0204 -0.0473 -0.4053
10081TIP3    H151734   2.333   0.182   0.708 -0.2796 -1.4138 -1.8171
10081TIP3    H251735   2.296   0.040   0.745  1.3197 -1.3271  0.2897
10082TIP3   OH251736   0.150   4.579  11.641  0.1676 -0.1197  0.1141
10082TIP3    H151737   0.064   4.538  11.631  0.4610 -0.6461 -0.2501
10082TIP3    H251738   0.133   4.673  11.627 -0.2196 -0.3032 -0.6977
10083TIP3   OH251739   5.704   3.367  15.785  0.2185  0.6630  0.6156
10083TIP3    H151740   5.612   3.396  15.782 -0.0044 -0.0938 -1.3130
10083TIP3    H251741   5.708   3.310  15.862 -1.7156 -1.5945 -0.8091
10084TIP3   OH251742   6.209   1.365  15.730 -0.0604  0.1924 -0.1982
10084TIP3    H151743   6.115   1.355  15.717  0.0233 -1.0216 -0.0130
10084TIP3    H251744   6.249   1.314  15.659  0.4861  1.5323 -0.8939
10085TIP3   OH251745   0.731   1.753   4.474 -0.3585  0.3487 -0.8141
10085TIP3    H151746   0.796   1.822   4.462 -1.0448  0.8324 -1.9754
10085TIP3    H251747   0.748   1.691   4.403  1.7129 -1.9678  1.4829
10086TIP3   OH251748   5.724   5.771   1.496  0.2608  0.5378 -0.1437
10086TIP3    H151749   5.704   5.863   1.515  0.5942  0.4094  0.8682
10086TIP3    H251750   5.659   5.721   1.546  1.5545  0.1850  1.2647
10087TIP3   OH251751   0.162   2.717  14.680  0.3049 -0.1139  0.3896
10087TIP3    H151752   0.256   2.699  14.682  0.2829 -0.1951  1.4596
10087TIP3    H251753   0.147   2.777  14.753 -0.4465  0.0507  0.1140
10088TIP3   OH251754   0.917   3.727   2.038 -0.3266  0.2031  0.0476
10088TIP3    H151755   0.928   3.642   2.079  1.2074  0.0416 -0.6449
10088TIP3    H251756   0.826   3.727   2.007  0.1125 -1.8891 -1.4564
10089TIP3   OH251757   4.942   2.369   5.468 -0.0356 -0.3765 -0.1668
10089TIP3    H151758   4.972   2.300   5.526 -0.3372 -1.7074 -1.5247
10089TIP3    H251759   4.875   2.327   5.414  0.6727  0.6110 -1.9010
10090TIP3   OH251760   4.804   5.788  16.499 -0.3635 -0.3894 -0.0653
10090TIP3    H151761   4.734   5.814  16.559  0.2444  0.8233  0.1661
10090TIP3    H251762   4.833   5.702  16.531 -0.4102  0.0019  1.0700
10091TIP3   OH251763   1.497   0.127   6.221 -0.2468 -0.6038 -0.2637
10091TIP3    H151764   1.552   0.199   6.191 -1.6427  0.5846 -0.0503
10091TIP3    H251765   1.555   0.051   6.220  0.6334  0.0061 -2.8454
10092TIP3   OH251766   4.261   6.278   2.634 -0.2735  0.1164 -0.3081
10092TIP3    H151767   4.255   6.358   2.582  0.9793 -0.1357 -0.8771
10092TIP3    H251768   4.348   6.281   2.674 -0.8749 -0.1378  1.0776
10093TIP3   OH251769   3.262   1.704   4.627 -0.0036  0.2258 -0.5692
10093TIP3    H151770   3.256   1.612   4.603 -1.2323 -0.1572  1.0103
10093TIP3    H251771   3.181   1.743   4.595  0.5953  0.8203 -1.4047
10094TIP3   OH251772   3.209   6.491  16.936  0.1900 -0.0278  0.9531
10094TIP3    H151773   3.230   6.585  16.932  2.0967 -0.4538 -0.0372
10094TIP3    H251774   3.193   6.474  17.029 -0.9494  1.3943  1.0613
10095TIP3   OH251775   6.773   5.527   1.822 -0.2261 -0.3161  0.3937
10095TIP3    H151776   6.796   5.579   1.745  0.6212  0.8142  1.3691
10095TIP3    H251777   6.684   5.497   1.805  0.1306 -0.5202 -1.2360
10096TIP3   OH251778   0.239   6.073   0.461  0.0416 -0.6238  0.3177
10096TIP3    H151779   0.166   6.026   0.420  0.3023  0.3289 -1.3601
10096TIP3    H251780   0.278   6.011   0.522 -0.7091 -1.9647 -0.5376
10097TIP3   OH251781   0.477   1.984  12.478 -0.5185  0.4770 -0.2099
10097TIP3    H151782   0.433   2.042  12.416  0.2105  0.6791 -0.5462
10097TIP3    H251783   0.413   1.915  12.495 -0.6652  0.2970 -1.3618
10098TIP3   OH251784   0.907   3.890   4.093 -0.6380  0.0821  0.4431
10098TIP3    H151785   0.838   3.956   4.100  0.4846  1.3437  0.0770
10098TIP3    H251786   0.984   3.933   4.131  0.3041 -0.7556 -0.4802
10099TIP3   OH251787   1.435   0.195   0.197  0.6391  0.0929 -0.3299
10099TIP3    H151788   1.461   0.282   0.228  1.1703 -0.4597  0.8102
10099TIP3    H251789   1.502   0.136   0.231 -1.5417 -1.2576  1.9328
10100TIP3   OH251790   0.688   0.698  13.289 -0.1170  0.1520 -0.4080
10100TIP3    H151791   0.593   0.708  13.291 -0.2504 -0.7873  2.2587
10100TIP3    H251792   0.722   0.785  13.310 -0.5828 -0.2979  2.5399
10101TIP3   OH251793   1.837   4.128  15.340  0.0242  0.3449 -0.0124
10101TIP3    H151794   1.858   4.060  15.404  1.2870 -0.7612 -1.5339
10101TIP3    H251795   1.747   4.109  15.314 -0.1563  0.2046  0.6989
10102TIP3   OH251796   0.356   2.084  11.261  0.0248  0.3989  0.3998
10102TIP3    H151797   0.293   2.132  11.314 -1.3244 -1.2647  0.3708
10102TIP3    H251798   0.345   2.118  11.173  2.0996  2.9964  1.0087
10103TIP3   OH251799   3.897   5.307  13.938  0.1125 -0.0090  0.2543
10103TIP3    H151800   3.984   5.330  13.907 -0.4894 -0.2770 -1.7688
10103TIP3    H251801   3.908   5.221  13.978  1.0339  0.6383  1.4911
10104TIP3   OH251802   6.648   1.168   3.100  0.0489 -0.1957 -0.0046
10104TIP3    H151803   6.693   1.233   3.154  3.5092 -1.7843 -0.6713
10104TIP3    H251804   6.556   1.176   3.124  0.6851  2.9630  1.9463
10105TIP3   OH251805   6.834   3.163   0.685  0.1065 -0.1037 -0.2955
10105TIP3    H151806   6.776   3.158   0.609 -0.6426 -0.3926  0.2812
10105TIP3    H251807   6.866   3.074   0.696  1.9282  0.3489 -1.5529
10106TIP3   OH251808   5.938   1.485  12.805  0.3794  0.0602 -0.0848
10106TIP3    H151809   5.984   1.513  12.725  4.3003 -1.2340  1.4871
10106TIP3    H251810   5.996   1.511  12.876 -1.6012 -1.3400  2.1667
10107TIP3   OH251811   6.221   3.885   0.223  0.3400  0.1771  0.3228
10107TIP3    H151812   6.199   3.852   0.136 -0.1128  2.0037 -0.3155
10107TIP3    H251813   6.264   3.969   0.206  0.8800  0.2376  1.8485
10108TIP3   OH251814   3.466   0.168  11.693 -0.8881 -0.2801  0.3372
10108TIP3    H151815   3.484   0.098  11.755 -0.7333 -0.2065  0.3746
10108TIP3    H251816   3.371   0.165  11.681 -1.2017  0.9995  2.1255
10109TIP3   OH251817   0.179   0.186   6.311 -0.5848  0.0121 -0.2318
10109TIP3    H151818   0.094   0.220   6.283 -0.6563  0.2947  0.3239
10109TIP3    H251819   0.183   0.204   6.405  0.5978  1.1265 -0.4724
10110TIP3   OH251820   0.923   2.817  13.809  0.1027 -0.1061 -0.4333
10110TIP3    H151821   0.836   2.852  13.827  0.1216 -1.3543  2.6256
10110TIP3    H251822   0.938   2.753  13.879  3.3453 -0.1939 -1.0777
10111TIP3   OH251823   4.008   5.678   4.268  0.0242 -0.0749  0.1109
10111TIP3    H151824   4.065   5.672   4.191 -2.7277 -0.1804 -2.0966
10111TIP3    H251825   3.990   5.587   4.291  0.5794 -0.0403  0.7209
10112TIP3   OH251826   2.116   3.477  10.923 -0.5987 -0.7694  0.1884
10112TIP3    H151827   2.146   3.516  10.840  0.2771 -0.3014  0.7032
10112TIP3    H251828   2.167   3.523  10.990  0.6810 -2.9895  0.8261
10113TIP3   OH251829   2.270   2.742   5.696  0.3186  0.2803 -0.0420
10113TIP3    H151830   2.254   2.670   5.757  0.8602 -1.4838 -1.8832
10113TIP3    H251831   2.314   2.809   5.749  1.6419 -1.5500  1.2874
10114TIP3   OH251832   1.535   0.599  14.543  0.7484 -0.4978 -0.3937
10114TIP3    H151833   1.531   0.594  14.448  1.2555 -4.0108 -0.3584
10114TIP3    H251834   1.628   0.615  14.562  0.4013  1.9636 -0.4030
10115TIP3   OH251835   3.542   3.827   5.238  0.0488  0.7963 -0.3714
10115TIP3    H151836   3.595   3.866   5.168 -0.2762  1.7429 -0.0984
10115TIP3    H251837   3.479   3.895   5.261 -0.7188  0.0027 -0.0771
10116TIP3   OH251838   6.796   0.874   1.082  0.4413 -0.1107 -0.5597
10116TIP3    H151839   6.728   0.937   1.107  0.2163 -0.1675 -1.0173
10116TIP3    H251840   6.752   0.789   1.087  0.9251 -0.3167  0.7116
10117TIP3   OH251841   0.868   1.799  15.094 -0.0497 -0.5463  0.6210
10117TIP3    H151842   0.888   1.768  15.182  2.1795 -2.0648 -0.3175
10117TIP3    H251843   0.923   1.876  15.082 -0.6861 -0.0710  0.6855
10118TIP3   OH251844   5.384   3.127  15.273 -0.0447 -0.4718 -0.0684
10118TIP3    H151845   5.324   3.075  15.220 -1.3281 -1.9321  2.6097
10118TIP3    H251846   5.425   3.064  15.332  0.4378  1.1657  1.4576
10119TIP3   OH251847   4.715   1.775  11.498 -0.2337  0.2516  0.3239
10119TIP3    H151848   4.758   1.740  11.576 -1.6687 -1.3917  0.4441
10119TIP3    H251849   4.787   1.796  11.439  0.8396  0.5252  1.6666
10120TIP3   OH251850   5.905   5.958   6.599  0.5737 -0.2601 -0.3834
10120TIP3    H151851   5.965   5.884   6.590  0.4978 -0.2443 -1.0954
10120TIP3    H251852   5.822   5.919   6.626  0.2592 -0.5664 -1.7194
10121TIP3   OH251853   0.849   5.740  13.437  0.2230 -0.1785  0.3843
10121TIP3    H151854   0.789   5.689  13.383 -0.3832 -0.2628  1.1317
10121TIP3    H251855   0.934   5.730  13.393 -0.2100 -0.4286 -0.4237
10122TIP3   OH251856   3.901   1.152  13.491  0.2261 -0.0894 -0.1900
10122TIP3    H151857   3.883   1.092  13.564 -0.9708 -0.8426 -1.0710
10122TIP3    H251858   3.871   1.104  13.414 -0.6120  1.5921 -0.9359
10123TIP3   OH251859   2.775   5.509  15.899 -0.0954 -0.4617  0.1697
10123TIP3    H151860   2.780   5.525  15.805  1.7483 -0.2555  0.2603
10123TIP3    H251861   2.826   5.580  15.938 -3.0536  1.0483  1.5778
10124TIP3   OH251862   3.839   1.983   4.354  0.1456 -0.7512  0.0231
10124TIP3    H151863   3.788   1.906   4.329 -1.2552 -0.1778  0.9828
10124TIP3    H251864   3.920   1.947   4.392 -0.4176 -1.7557  0.3128
10125TIP3   OH251865   4.347   4.103  15.798  0.3023 -0.3399 -0.3217
10125TIP3    H151866   4.398   4.175  15.835  1.5664 -0.8275 -1.0431
10125TIP3    H251867   4.313   4.137  15.715  1.5799 -0.7820 -1.0669
10126TIP3   OH251868   4.519   6.269  15.463  0.0914  0.1703 -0.2217
10126TIP3    H151869   4.503   6.214  15.540 -0.7290 -2.5786 -2.1872
10126TIP3    H251870   4.454   6.339  15.470 -1.7649 -1.4935  0.3529
10127TIP3   OH251871   6.115   4.064  10.545  0.0323  0.3460 -0.4501
10127TIP3    H151872   6.199   4.099  10.515  0.0963  0.7441  0.1806
10127TIP3    H251873   6.049   4.115  10.497  0.1360 -0.5813 -1.6398
10128TIP3   OH251874   1.883   0.164  12.100 -0.1917  0.2044 -0.9522
10128TIP3    H151875   1.932   0.097  12.147 -2.2397 -2.2747 -2.0908
10128TIP3    H251876   1.845   0.219  12.169  4.1573  2.5133 -0.0068
10129TIP3   OH251877   0.958   5.734   1.870  0.2125 -0.1110  0.6374
10129TIP3    H151878   0.898   5.659   1.864 -1.8637  1.1989  2.8340
10129TIP3    H251879   0.928   5.794   1.801  0.6556 -0.4889  0.1067
10130TIP3   OH251880   4.015   2.680  11.940 -0.5797  0.7164 -0.7399
10130TIP3    H151881   4.008   2.737  11.864  1.3496  3.0959  0.6960
10130TIP3    H251882   4.011   2.740  12.015  3.2301 -0.7110  0.8517
10131TIP3   OH251883   2.242   5.348  10.885  0.6549 -0.4824  0.1486
10131TIP3    H151884   2.313   5.294  10.850  2.4800  0.8463  1.5889
10131TIP3    H251885   2.163   5.315  10.842  2.0697 -2.3046 -1.2108
10132TIP3   OH251886   5.735   6.402   5.460 -0.3645 -0.2103 -0.3439
10132TIP3    H151887   5.773   6.482   5.423  0.9548 -0.3547  0.6312
10132TIP3    H251888   5.662   6.381   5.401 -0.2709  1.2832 -1.0474
10133TIP3   OH251889   5.304   1.110  12.988  0.2278  0.1391  0.3145
10133TIP3    H151890   5.342   1.086  13.072  1.1693 -2.0493 -0.6379
10133TIP3    H251891   5.347   1.192  12.964  1.7767 -0.4692  0.8900
10134TIP3   OH251892   4.340   6.773  17.099 -0.1356 -0.1068 -0.4457
10134TIP3    H151893   4.350   6.861  17.062 -0.7526 -0.3072 -1.1027
10134TIP3    H251894   4.325   6.716  17.023 -1.0406 -0.5848  0.0804
10135TIP3   OH251895   3.920   5.764  11.594 -0.9664 -0.6962 -0.0604
10135TIP3    H151896   3.875   5.700  11.650 -1.2522 -0.8601 -0.4730
10135TIP3    H251897   3.944   5.835  11.653 -1.6984 -0.6464  0.1878
10136TIP3   OH251898   6.674   2.880  16.708 -0.2309 -0.0153 -0.1817
10136TIP3    H151899   6.634   2.924  16.633  0.5768  0.6953 -0.2048
10136TIP3    H251900   6.768   2.895  16.698  0.0010 -1.1110  0.2265
10137TIP3   OH251901   2.290   5.977   4.507 -0.3681 -0.2281 -0.6132
10137TIP3    H151902   2.311   6.014   4.421 -0.3661 -1.2800 -1.0775
10137TIP3    H251903   2.216   6.030   4.538  0.0317  0.5622 -0.9809
10138TIP3   OH251904   3.467   2.412  13.090  0.6729  0.4349 -0.2139
10138TIP3    H151905   3.402   2.481  13.083 -0.6139 -0.5426  1.1970
10138TIP3    H251906   3.422   2.333  13.060  0.6720 -0.5202  2.0694
10139TIP3   OH251907   1.445   3.816  17.116 -0.1372 -0.4013  0.1792
10139TIP3    H151908   1.476   3.849  17.032  0.0834 -1.2659 -0.0905
10139TIP3    H251909   1.372   3.758  17.093 -0.6337  0.0292  0.6506
10140TIP3   OH251910   6.018   6.093   2.281  0.1213 -0.0427 -0.6487
10140TIP3    H151911   5.956   6.140   2.226  0.5632 -0.6767 -1.7199
10140TIP3    H251912   6.085   6.061   2.220  0.0157 -1.7408  0.0703
10141TIP3   OH251913   3.130   2.276   1.106 -0.1736 -0.5573  0.4686
10141TIP3    H151914   3.057   2.315   1.155  0.6282  1.1678  0.3498
10141TIP3    H251915   3.109   2.294   1.014 -0.2441 -1.2442  0.3450
10142TIP3   OH251916   6.563   6.108   0.681 -0.9644  0.1285  0.1841
10142TIP3    H151917   6.612   6.175   0.632  1.1595 -1.8476 -0.5393
10142TIP3    H251918   6.568   6.136   0.772 -0.9104  1.4004 -0.1888
10143TIP3   OH251919   4.211   0.181   3.461 -0.2337 -0.1032  0.3893
10143TIP3    H151920   4.197   0.256   3.520  0.2542 -0.3655  0.8512
10143TIP3    H251921   4.299   0.194   3.427 -0.3947 -0.1280 -0.0425
10144TIP3   OH251922   1.042   1.909  13.746  0.3642  0.3458 -0.0049
10144TIP3    H151923   1.093   1.971  13.799 -0.6021  3.5144 -2.4748
10144TIP3    H251924   0.981   1.963  13.697 -0.6520 -2.6293 -2.3510
10145TIP3   OH251925   6.011   1.996   2.033 -0.0105  0.3454 -0.8715
10145TIP3    H151926   5.954   2.056   1.985  0.0928  0.7600 -0.4782
10145TIP3    H251927   6.062   2.052   2.091  0.3917 -0.0816 -0.8063
10146TIP3   OH251928   6.102   4.831  13.338 -0.4485  0.2736  0.3020
10146TIP3    H151929   6.140   4.875  13.262  1.1078  0.7308  1.2973
10146TIP3    H251930   6.108   4.738  13.318 -0.4673  0.4035 -0.3212
10147TIP3   OH251931   5.087   5.518  16.339 -0.0194  0.5353 -0.0251
10147TIP3    H151932   5.048   5.440  16.301  1.0647 -0.1476  0.2224
10147TIP3    H251933   5.067   5.588  16.276  0.5038 -0.2937 -1.1465
10148TIP3   OH251934   3.819   3.256   5.331 -0.4419 -0.0228 -0.4515
10148TIP3    H151935   3.913   3.273   5.337 -0.1201 -1.9988  1.8671
10148TIP3    H251936   3.780   3.341   5.309  1.8075  0.9795 -0.8241
10149TIP3   OH251937   2.931   5.519  11.828 -0.2678 -0.1431  0.2044
10149TIP3    H151938   2.967   5.545  11.912 -2.7506 -1.2353  1.7311
10149TIP3    H251939   2.940   5.596  11.772 -1.1756  1.6519  2.4175
10150TIP3   OH251940   6.390   4.378  15.914 -0.3042 -0.2508 -0.0899
10150TIP3    H151941   6.392   4.287  15.942 -1.1305 -0.1240  0.4408
10150TIP3    H251942   6.361   4.426  15.992 -0.0384  0.4407 -0.4088
10151TIP3   OH251943   5.621   1.586   5.439  0.2859 -0.8200 -0.3243
10151TIP3    H151944   5.630   1.593   5.344 -1.8967 -0.0478 -0.5316
10151TIP3    H251945   5.582   1.500   5.453  0.0925 -0.7113 -0.1852
10152TIP3   OH251946   2.196   1.005  11.774 -0.5839  0.5703 -0.1054
10152TIP3    H151947   2.170   1.094  11.749 -0.1332  0.7555  0.0634
10152TIP3    H251948   2.222   1.013  11.865  0.8293  0.5700 -0.4869
10153TIP3   OH251949   3.844   3.067  14.635  0.2684 -0.2638 -0.3484
10153TIP3    H151950   3.871   3.141  14.581  0.9179 -0.6945 -0.6259
10153TIP3    H251951   3.763   3.037  14.595 -1.2466  1.6424  1.0582
10154TIP3   OH251952   1.808   2.389   3.363  0.4238 -0.1548  0.1099
10154TIP3    H151953   1.853   2.464   3.401 -0.6446 -0.4510  2.1163
10154TIP3    H251954   1.878   2.328   3.340  1.2206  0.8480 -0.2064
10155TIP3   OH251955   2.585   1.875   2.533  0.0667  0.1725 -1.0414
10155TIP3    H151956   2.674   1.848   2.512 -0.5376 -1.1057 -2.0812
10155TIP3    H251957   2.540   1.795   2.557 -0.9257  0.7365 -0.9686
10156TIP3   OH251958   6.241   1.733  13.870 -0.2932  0.2354  0.1108
10156TIP3    H151959   6.148   1.709  13.876 -1.0524  3.0442  1.2248
10156TIP3    H251960   6.254   1.754  13.777 -0.2602 -1.8084 -0.3859
10157TIP3   OH251961   2.078   2.135   0.472 -0.2728  0.5935  0.0243
10157TIP3    H151962   2.134   2.058   0.465 -0.7075  0.2253  0.5416
10157TIP3    H251963   1.994   2.106   0.438 -0.7443  0.5067  1.2230
10158TIP3   OH251964   5.055   4.923   4.640  0.8156  0.6622  0.0536
10158TIP3    H151965   5.137   4.973   4.641 -0.1070  2.2670 -0.6686
10158TIP3    H251966   5.071   4.853   4.577  1.7034  0.8444  0.0631
10159TIP3   OH251967   3.629   5.855   4.658 -0.4987  0.1858  0.3483
10159TIP3    H151968   3.563   5.913   4.617  0.0685  0.7899  0.2697
10159TIP3    H251969   3.629   5.777   4.602 -2.2021 -0.4699  1.1932
10160TIP3   OH251970   2.534   3.567  15.656 -0.8012  0.6380 -0.6286
10160TIP3    H151971   2.562   3.553  15.565 -0.3782 -1.4994 -0.2337
10160TIP3    H251972   2.599   3.627  15.692  0.8706 -0.8712 -0.9446
10161TIP3   OH251973   1.437   4.509   1.822  0.4711 -0.1236 -0.1770
10161TIP3    H151974   1.380   4.432   1.816 -0.5280  0.6629 -1.5027
10161TIP3    H251975   1.520   4.481   1.783  1.2016 -1.4055  2.1335
10162TIP3   OH251976   2.955   1.916  14.451 -0.2908 -1.1693 -0.2888
10162TIP3    H151977   2.892   1.848  14.473  0.3462 -1.9604 -0.8496
10162TIP3    H251978   2.945   1.929  14.357  1.3162 -2.3203 -0.6680
10163TIP3   OH251979   4.428   2.800   4.318  0.1475  0.0223 -0.1632
10163TIP3    H151980   4.340   2.784   4.351  0.7036  0.2037  1.5548
10163TIP3    H251981   4.436   2.896   4.317  1.0076  0.0239  1.8192
10164TIP3   OH251982   6.002   3.621   2.059  0.1072 -0.8026 -0.4644
10164TIP3    H151983   6.064   3.607   1.988  1.1868 -0.0665  0.3021
10164TIP3    H251984   5.944   3.691   2.027  0.1355 -0.9750 -0.8955
10165TIP3   OH251985   4.308   4.512   2.661 -0.1085 -0.0824 -0.5063
10165TIP3    H151986   4.394   4.526   2.621 -1.2939 -0.0656 -3.2762
10165TIP3    H251987   4.277   4.600   2.682 -0.4046  0.1365 -1.7625
10166TIP3   OH251988   2.152   0.403   5.447 -0.9283 -0.0630  0.1039
10166TIP3    H151989   2.112   0.437   5.527 -2.0166 -0.8604 -0.0722
10166TIP3    H251990   2.100   0.325   5.426 -0.0472 -0.4171 -0.8424
10167TIP3   OH251991   6.394   0.926   1.280 -0.3850  0.7487  0.5667
10167TIP3    H151992   6.480   0.885   1.275 -1.6388 -2.1120  0.4085
10167TIP3    H251993   6.365   0.910   1.370 -0.9589  1.2548  0.4767
10168TIP3   OH251994   1.529   5.523   0.732 -0.4348 -0.7040  0.3823
10168TIP3    H151995   1.583   5.561   0.801 -3.4769 -1.0368  3.2229
10168TIP3    H251996   1.440   5.524   0.768 -2.2143 -1.2394 -3.4746
10169TIP3   OH251997   6.185   0.526   0.099  0.5548  0.2798  0.4376
10169TIP3    H151998   6.164   0.481   0.017  0.0056  0.5646  0.4177
10169TIP3    H251999   6.102   0.528   0.147  0.8212  0.3174  0.9016
10170TIP3   OH252000   4.905   3.000   5.224  0.4340 -0.0710  0.7577
10170TIP3    H152001   4.846   3.037   5.289 -0.9691  0.7436 -0.8950
10170TIP3    H252002   4.861   2.921   5.193  0.7217 -0.0483  0.2798
10171TIP3   OH252003   5.018   2.919  16.807  0.0373 -0.4040 -0.0613
10171TIP3    H152004   5.060   3.005  16.796 -1.0906  0.2425  0.5011
10171TIP3    H252005   5.091   2.857  16.807  0.8214  0.4529 -1.3868
10172TIP3   OH252006   3.403   3.021   4.064 -0.2204 -0.0684 -0.0492
10172TIP3    H152007   3.405   3.058   4.152 -0.6216  0.2244 -0.1616
10172TIP3    H252008   3.413   2.927   4.077  3.9404  0.2106  0.1049
10173TIP3   OH252009   0.254   3.646   3.583  0.6250 -0.3266 -0.5045
10173TIP3    H152010   0.332   3.595   3.564 -0.1163 -1.4523 -0.6686
10173TIP3    H252011   0.212   3.599   3.655  1.2549  1.5491  1.1483
10174TIP3   OH252012   0.454   1.498   4.487  0.2575 -0.3398 -0.0624
10174TIP3    H152013   0.381   1.489   4.425  0.9658  0.6684 -1.0739
10174TIP3    H252014   0.421   1.459   4.568 -1.3140 -0.1354 -0.5677
10175TIP3   OH252015   0.077   5.419  16.822  0.7677 -0.0891 -0.7882
10175TIP3    H152016   0.117   5.452  16.902  2.6215  0.8484 -2.0307
10175TIP3    H252017   0.125   5.339  16.801 -0.5233 -1.0165 -0.3577
10176TIP3   OH252018   2.964   3.997   5.770  0.2620  0.4904  0.1045
10176TIP3    H152019   2.940   4.041   5.852  0.4145  0.0089  0.4146
10176TIP3    H252020   2.883   3.993   5.720  0.7547  3.6187 -1.1613
10177TIP3   OH252021   0.779   1.646  17.100 -0.4681 -0.5214  0.1293
10177TIP3    H152022   0.792   1.694  17.019  3.3100 -0.7920  0.3988
10177TIP3    H252023   0.745   1.561  17.072 -0.5439 -0.1258 -1.0419
10178TIP3   OH252024   6.366   0.995   5.951  0.5840 -0.4370  0.0924
10178TIP3    H152025   6.398   0.987   6.041 -3.1109  0.6157  1.6901
10178TIP3    H252026   6.284   0.946   5.949  0.9586 -1.1975 -3.0576
10179TIP3   OH252027   1.372   2.492  11.115  0.2279  0.5592  0.0827
10179TIP3    H152028   1.351   2.481  11.022 -1.6812 -0.3163  0.5823
10179TIP3    H252029   1.420   2.576  11.118 -0.9418  1.3430 -1.5086
10180TIP3   OH252030   3.950   4.362   5.900  0.0926 -0.0336  0.0086
10180TIP3    H152031   3.898   4.322   5.970  0.5026 -1.2382 -0.3437
10180TIP3    H252032   3.974   4.288   5.844  3.0018  0.3174  0.6595
10181TIP3   OH252033   3.750   4.391  16.185 -0.3076  0.2948 -0.6830
10181TIP3    H152034   3.812   4.354  16.248 -1.3621 -2.9596 -1.3350
10181TIP3    H252035   3.805   4.431  16.118  1.0575 -1.0871 -0.4482
10182TIP3   OH252036   5.362   3.056   6.631  0.7346 -0.0104 -0.0545
10182TIP3    H152037   5.355   3.146   6.599 -1.2952  0.1457  0.6469
10182TIP3    H252038   5.420   3.013   6.569  0.5561  1.4201 -1.2791
10183TIP3   OH252039   3.688   0.047   4.136  0.0233  0.3575  0.5829
10183TIP3    H152040   3.650   0.134   4.141  1.9422  1.2514  0.5621
10183TIP3    H252041   3.783   0.062   4.142  0.3536 -1.8286  1.9720
10184TIP3   OH252042   5.777   0.001   0.268 -0.0417 -0.3860  0.1098
10184TIP3    H152043   5.844  -0.054   0.309 -0.0352 -0.5746 -0.1498
10184TIP3    H252044   5.822   0.042   0.194  0.0801  0.3301  0.5662
10185TIP3   OH252045   3.811   3.057  14.903 -0.4461  0.2593  0.1110
10185TIP3    H152046   3.828   3.089  14.814  1.7885 -0.5441  0.1891
10185TIP3    H252047   3.822   2.962  14.897 -2.4100 -0.0544  0.8426
10186TIP3   OH252048   2.237   1.375   5.364  0.0035  0.3069  0.1153
10186TIP3    H152049   2.192   1.420   5.293 -0.1648  0.7780  0.5120
10186TIP3    H252050   2.330   1.380   5.342 -0.0711  0.1874 -0.2209
10187TIP3   OH252051   3.281   0.546   6.010  0.1631  0.7113 -0.3073
10187TIP3    H152052   3.289   0.568   6.102  2.1879  0.8219 -0.4583
10187TIP3    H252053   3.236   0.621   5.971 -1.1703  0.4299  0.6523
10188TIP3   OH252054   3.076   5.587   5.114 -0.2184 -0.3473  0.0270
10188TIP3    H152055   3.151   5.646   5.116 -0.4374 -0.0761  0.6360
10188TIP3    H252056   3.008   5.635   5.068 -0.2900 -0.2582  0.2266
10189TIP3   OH252057   5.607   3.939  11.260  0.1891 -0.5783  0.2730
10189TIP3    H152058   5.524   3.937  11.308  0.1631 -0.5220  0.2300
10189TIP3    H252059   5.667   3.886  11.313  0.4970  0.4607  0.9878
10190TIP3   OH252060   2.983   1.005   3.656 -0.4255  0.6183  0.7370
10190TIP3    H152061   3.012   1.084   3.612 -1.4224  0.7290  0.2478
10190TIP3    H252062   2.951   0.949   3.586  0.5747 -0.3692  1.0376
10191TIP3   OH252063   4.315   5.211  16.303  0.1528  0.2601 -0.0131
10191TIP3    H152064   4.386   5.226  16.365  0.9192 -3.2434  0.1701
10191TIP3    H252065   4.351   5.239  16.219  0.6668  1.1884  0.5032
10192TIP3   OH252066   3.033   0.862   3.908  0.0236 -1.0338  0.1463
10192TIP3    H152067   3.031   0.803   3.832 -1.8361 -1.8576  0.7702
10192TIP3    H252068   2.996   0.944   3.876 -0.1659 -1.1768 -0.0018
10193TIP3   OH252069   6.764   2.126  13.549  0.1874  0.5335  0.7927
10193TIP3    H152070   6.856   2.107  13.527  0.7180  1.4961  2.0583
10193TIP3    H252071   6.744   2.068  13.622 -0.3793 -0.0075  0.2176
10194TIP3   OH252072   6.517   5.031  14.632 -0.1416  0.6438  0.3831
10194TIP3    H152073   6.557   5.100  14.580  0.3561  0.0071 -0.0967
10194TIP3    H252074   6.431   5.018  14.592 -0.9295  2.1199  1.5138
10195TIP3   OH252075   5.902   6.381  14.658 -0.9622  0.0133 -0.2951
10195TIP3    H152076   5.869   6.328  14.730 -2.7118  1.7742  0.3005
10195TIP3    H252077   5.931   6.463  14.700  0.0913  0.2131 -1.3539
10196TIP3   OH252078   2.422   0.724  12.190  0.1214 -0.0389  0.2514
10196TIP3    H152079   2.359   0.784  12.231  0.6410  0.8391 -0.2152
10196TIP3    H252080   2.506   0.749  12.227  0.8210  1.6930 -2.2803
10197TIP3   OH252081   0.101   1.723  14.015  0.2459  0.6094  0.4513
10197TIP3    H152082   0.148   1.782  13.955 -0.8978  1.0004 -0.0995
10197TIP3    H252083   0.168   1.694  14.077  0.6637  3.3090  1.3933
10198TIP3   OH252084   4.209   0.210  15.476 -0.2860 -0.1628 -0.2560
10198TIP3    H152085   4.220   0.254  15.392 -1.0713  0.2739 -0.1456
10198TIP3    H252086   4.269   0.254  15.535  0.1270 -0.3425 -0.5351
10199TIP3   OH252087   2.980   5.654   4.082 -0.0226 -0.5173 -0.7638
10199TIP3    H152088   3.007   5.621   4.167 -2.0603 -1.7845 -0.5283
10199TIP3    H252089   2.999   5.748   4.085 -2.0364 -0.0739  1.9982
10200TIP3   OH252090   0.684   3.299   4.566  0.2903  0.7139  0.4177
10200TIP3    H152091   0.719   3.337   4.647 -1.6082  0.0985  1.5613
10200TIP3    H252092   0.590   3.290   4.581 -0.0727  0.2505 -1.7388
10201TIP3   OH252093   1.180   4.412  15.551  0.7749 -0.3825 -0.1881
10201TIP3    H152094   1.246   4.342  15.545  1.2650  0.1710 -1.9939
10201TIP3    H252095   1.226   4.490  15.520 -0.8807 -0.0968 -2.0990
10202TIP3   OH252096   2.157   3.430   5.639  0.8881 -0.1769 -0.1439
10202TIP3    H152097   2.154   3.486   5.717 -0.5676 -1.5783  0.9005
10202TIP3    H252098   2.239   3.451   5.596  1.2272  1.4164  1.2035
10203TIP3   OH252099   1.595   5.825   5.653 -0.4279 -0.4663  0.5568
10203TIP3    H152100   1.503   5.819   5.628 -0.7019  2.1143  0.6617
10203TIP3    H252101   1.643   5.826   5.570 -0.6074 -0.5958  0.4525
10204TIP3   OH252102   2.078   5.006   5.853 -0.3634 -0.4458  0.2358
10204TIP3    H152103   2.078   4.928   5.908  0.7388 -0.4451  0.2653
10204TIP3    H252104   2.011   5.063   5.891 -0.7281 -1.1055  0.6011
10205TIP3   OH252105   3.152   6.024  11.551 -0.5364  0.3888  0.3363
10205TIP3    H152106   3.146   6.106  11.502  0.8867  1.3008  1.5801
10205TIP3    H252107   3.129   5.956  11.487  0.1999  1.6012 -1.3063
10206TIP3   OH252108   2.624   6.643  16.948  0.0838  0.1354 -0.4150
10206TIP3    H152109   2.671   6.559  16.938 -0.0864  0.1397 -1.3235
10206TIP3    H252110   2.639   6.667  17.040  2.4344  0.4583 -0.8027
10207TIP3   OH252111   6.087   5.075  14.862 -0.1305 -0.6354  0.1875
10207TIP3    H152112   6.047   5.130  14.794  1.0179 -1.0844 -0.8842
10207TIP3    H252113   6.013   5.046  14.915 -1.1439 -0.8014 -1.2485
10208TIP3   OH252114   5.846   5.619   4.698 -0.0761  0.4807  0.1564
10208TIP3    H152115   5.872   5.679   4.769  0.9646  0.7037 -0.3860
10208TIP3    H252116   5.817   5.677   4.628 -2.5517  0.2220  0.8954
10209TIP3   OH252117   5.876   1.531   1.758 -0.0122 -0.0527 -0.3798
10209TIP3    H152118   5.896   1.585   1.834 -0.1590  1.2459 -1.2479
10209TIP3    H252119   5.787   1.499   1.775  0.0009  0.1279  0.0508
10210TIP3   OH252120   3.758   2.620   0.022 -0.0771  0.0945  0.0195
10210TIP3    H152121   3.751   2.605  -0.072 -0.2344 -2.0463  0.3139
10210TIP3    H252122   3.722   2.707   0.036 -1.4243 -0.1375 -1.7243
10211TIP3   OH252123   1.779   4.406   3.893 -0.6162  0.4835  0.7638
10211TIP3    H152124   1.696   4.451   3.878  0.8675  2.6250 -1.6702
10211TIP3    H252125   1.845   4.463   3.855  2.0235 -1.2361  2.4339
10212TIP3   OH252126   6.362   3.284   2.707 -0.6069  0.1169  0.3339
10212TIP3    H152127   6.377   3.374   2.678  1.5415 -0.6443 -1.2213
10212TIP3    H252128   6.439   3.264   2.761  0.6915 -1.7705 -2.0530
10213TIP3   OH252129   0.840   0.986  15.152 -0.0909  0.3346  0.5370
10213TIP3    H152130   0.866   1.063  15.203 -1.1025 -0.4298  2.2752
10213TIP3    H252131   0.877   0.912  15.200 -1.1205 -0.4164  0.1920
10214TIP3   OH252132   3.649   3.190  13.506  0.1116 -0.6398  0.2605
10214TIP3    H152133   3.677   3.234  13.587 -0.0293  0.3408 -0.2001
10214TIP3    H252134   3.612   3.261  13.453  1.2645 -1.0364 -1.1417
10215TIP3   OH252135   4.052   4.783   1.344 -0.2832  0.3971  0.7243
10215TIP3    H152136   4.101   4.810   1.422  0.2990 -0.1800  0.5675
10215TIP3    H252137   3.969   4.751   1.378  0.0162  0.0323  1.1201
10216TIP3   OH252138   5.449   3.368   1.480 -0.3048 -0.0466  0.3215
10216TIP3    H152139   5.399   3.323   1.412  0.1648 -0.0074 -0.0590
10216TIP3    H252140   5.384   3.418   1.529 -0.5754  0.4064 -0.4801
10217TIP3   OH252141   1.272   4.476  11.290 -0.0245  0.8139 -0.0146
10217TIP3    H152142   1.208   4.481  11.361  0.3119 -1.2805  0.5113
10217TIP3    H252143   1.221   4.489  11.210 -1.6885 -2.9079  0.1953
10218TIP3   OH252144   0.058   1.500  13.751 -0.2849 -0.2523  0.0187
10218TIP3    H152145   0.123   1.568  13.735 -0.2611  0.0398  1.2561
10218TIP3    H252146   0.001   1.502  13.674  0.3684  0.4086 -0.4568
10219TIP3   OH252147   5.140   5.839  12.990  0.0235 -0.5656 -0.4473
10219TIP3    H152148   5.147   5.816  12.897  0.3255 -1.6751 -0.1706
10219TIP3    H252149   5.094   5.765  13.029 -1.1142  0.4079  0.1138
10220TIP3   OH252150   5.976   2.537  12.192  0.0476  0.2045 -0.4033
10220TIP3    H152151   6.055   2.570  12.235 -0.4328  0.0270  0.6413
10220TIP3    H252152   5.925   2.496  12.262 -1.2613  0.8422 -0.9389
10221TIP3   OH252153   4.906   2.453   6.228  0.7301 -0.0388 -0.0277
10221TIP3    H152154   4.937   2.534   6.188 -0.1148  0.6785  0.7216
10221TIP3    H252155   4.979   2.392   6.219  1.0241  0.4963 -1.4701
10222TIP3   OH252156   1.401   0.826   3.162 -0.7540  0.0421 -0.4372
10222TIP3    H152157   1.470   0.813   3.097 -0.4549  0.3234 -0.1796
10222TIP3    H252158   1.359   0.908   3.137  0.9003  1.4300  1.0623
10223TIP3   OH252159   6.649   5.896   1.825 -0.3090  0.4669 -0.5400
10223TIP3    H152160   6.562   5.855   1.822  0.1520 -0.7404  1.0978
10223TIP3    H252161   6.673   5.894   1.917  2.2569 -0.9915 -1.1480
10224TIP3   OH252162   1.722   3.563   1.317  0.2735  0.1342  0.2634
10224TIP3    H152163   1.683   3.641   1.357  0.1566  0.1319  0.1549
10224TIP3    H252164   1.689   3.490   1.371  0.0495  0.1242  0.1141
10225TIP3   OH252165   4.935   4.957  15.364 -0.9127  0.0915  0.0662
10225TIP3    H152166   4.907   4.967  15.454  0.3817  0.6506  0.4355
10225TIP3    H252167   4.877   5.014  15.314 -2.2816 -0.9703  0.3786
10226TIP3   OH252168   3.378   0.432   0.491  0.0726  0.0867  0.8126
10226TIP3    H152169   3.308   0.488   0.525 -1.1481 -1.0034  0.2016
10226TIP3    H252170   3.332   0.363   0.443  1.5582 -0.9707  0.8335
10227TIP3   OH252171   5.730   6.378   3.708  0.3841  0.2548 -0.2243
10227TIP3    H152172   5.644   6.362   3.669  0.2451 -1.1929  0.6219
10227TIP3    H252173   5.792   6.365   3.637  0.0943 -1.7351 -0.1589
10228TIP3   OH252174   1.146   4.052  15.649 -0.2441  0.1163 -0.0654
10228TIP3    H152175   1.050   4.049  15.643 -0.3344 -0.8516  1.4569
10228TIP3    H252176   1.165   4.040  15.742  1.4250 -2.1166 -0.5991
10229TIP3   OH252177   6.220   4.082  12.129 -0.2567  0.2456  0.3265
10229TIP3    H152178   6.299   4.028  12.124  0.5447  1.4401 -0.4558
10229TIP3    H252179   6.207   4.096  12.222  0.1335 -0.4255  0.4907
10230TIP3   OH252180   4.120   4.703   2.700 -0.0028 -0.0281  0.0135
10230TIP3    H152181   4.068   4.746   2.768  0.6243 -0.4751  0.7999
10230TIP3    H252182   4.091   4.743   2.618 -1.1316  0.1732  0.4916
10231TIP3   OH252183   5.410   3.989   3.307 -0.0156 -0.1519  0.2326
10231TIP3    H152184   5.448   4.019   3.224  1.5545  2.3602  1.7498
10231TIP3    H252185   5.334   4.046   3.320 -2.1327 -2.4890 -0.7793
10232TIP3   OH252186   5.127   3.006  12.988  0.2647 -0.1920  0.3518
10232TIP3    H152187   5.078   2.982  13.067  0.6236 -2.2715  0.0024
10232TIP3    H252188   5.176   2.927  12.965 -1.5365 -0.4589 -3.2578
10233TIP3   OH252189   3.827   5.020  14.466  0.0328  0.6678  0.1485
10233TIP3    H152190   3.749   4.975  14.433  0.2464  0.5591 -0.2107
10233TIP3    H252191   3.827   5.105  14.422 -0.5866  1.1960  1.1235
10234TIP3   OH252192   4.724   5.727   2.866  0.4797  0.0630  0.0584
10234TIP3    H152193   4.639   5.728   2.911  1.0701 -0.6167  1.2521
10234TIP3    H252194   4.765   5.811   2.890  0.6973 -0.1983  0.6189
10235TIP3   OH252195   4.434   3.210   2.258 -0.2476 -0.0187 -0.1307
10235TIP3    H152196   4.503   3.235   2.320 -0.4822  1.4799 -0.4519
10235TIP3    H252197   4.354   3.249   2.293 -0.8368 -1.1683 -0.1312
10236TIP3   OH252198   3.343   6.220   2.015 -0.0470 -0.3557 -0.5943
10236TIP3    H152199   3.315   6.154   2.079 -0.2012  0.8209  0.5829
10236TIP3    H252200   3.421   6.182   1.974 -0.7058 -1.7005 -0.6735
10237TIP3   OH252201   5.505   0.094  13.822  0.2515 -0.4778  0.4272
10237TIP3    H152202   5.594   0.091  13.858  0.8346 -1.8878 -1.0073
10237TIP3    H252203   5.466   0.011  13.849 -0.4296 -0.1339  0.5147
10238TIP3   OH252204   3.495   0.884   0.540  0.2761  0.4916  0.1706
10238TIP3    H152205   3.444   0.832   0.603  1.3487 -0.9602 -0.1112
10238TIP3    H252206   3.585   0.877   0.572  0.8599 -0.3610 -1.5642
10239TIP3   OH252207   1.084   6.482  15.450 -0.0978  0.1232 -0.5535
10239TIP3    H152208   1.084   6.396  15.493 -2.2278  0.1928 -0.2837
10239TIP3    H252209   0.995   6.515  15.463  0.7801  2.5896 -0.2757
10240TIP3   OH252210   0.231   6.669   3.149  0.1173  0.0983  0.1497
10240TIP3    H152211   0.138   6.662   3.128 -0.2086 -0.0271  1.5490
10240TIP3    H252212   0.251   6.588   3.196  1.3658 -0.6625 -1.5493
10241TIP3   OH252213   4.268   4.536   1.081 -0.9417  0.6769 -0.2357
10241TIP3    H152214   4.206   4.469   1.111  0.5421 -0.9257 -0.5338
10241TIP3    H252215   4.292   4.583   1.160 -1.6952  0.5691  0.0630
10242TIP3   OH252216   6.755   6.415   3.537  0.1363  0.2847 -0.0304
10242TIP3    H152217   6.720   6.380   3.455  0.3451  0.2163 -0.0909
10242TIP3    H252218   6.690   6.392   3.603  0.6325 -0.8803  0.0621
10243TIP3   OH252219   0.102   0.773  14.455 -0.2157  0.6005  0.1528
10243TIP3    H152220   0.042   0.788  14.383 -0.8511 -0.3515  0.4620
10243TIP3    H252221   0.046   0.769  14.533  0.4495  1.5504  0.7044
10244TIP3   OH252222   0.411   0.346  13.859  0.2391  0.1438  0.2594
10244TIP3    H152223   0.462   0.415  13.818  1.2907  0.1894  1.5800
10244TIP3    H252224   0.358   0.391  13.924  0.2442 -0.1760  0.4872
10245TIP3   OH252225   5.331   4.744   2.075  0.2736 -0.0076 -0.1209
10245TIP3    H152226   5.313   4.810   2.142  1.4094 -0.5710  0.7620
10245TIP3    H252227   5.247   4.734   2.029 -0.4250  0.6656  0.9598
10246TIP3   OH252228   2.538   3.555   2.114  0.1726  0.0103 -0.5002
10246TIP3    H152229   2.488   3.602   2.048  0.4958  1.4243  0.2324
10246TIP3    H252230   2.608   3.615   2.139  1.1908 -1.2400 -0.2286
10247TIP3   OH252231   6.564   6.061   1.147  0.1371  0.5387  0.5347
10247TIP3    H152232   6.602   5.973   1.149  0.0111  0.4833  2.4205
10247TIP3    H252233   6.639   6.120   1.145  0.3209  0.3970  2.0406
10248TIP3   OH252234   2.561   3.635  12.619 -0.2049  0.0497  0.1619
10248TIP3    H152235   2.510   3.564  12.659 -0.9027  1.0341  1.0923
10248TIP3    H252236   2.510   3.662  12.543 -1.4244  1.3852  1.3862
10249TIP3   OH252237   1.825   2.134   0.887  0.0728  0.4719  0.2507
10249TIP3    H152238   1.899   2.076   0.907  0.4558 -0.0210 -2.2614
10249TIP3    H252239   1.763   2.119   0.958  1.0700 -1.4522  0.7880
10250TIP3   OH252240   1.747   2.334  13.592 -0.2687  0.4627  0.0646
10250TIP3    H152241   1.796   2.253  13.605 -0.1448  0.5521  0.1611
10250TIP3    H252242   1.810   2.393  13.551 -0.3705  0.4966 -0.0432
10251TIP3   OH252243   3.337   3.229   1.929  0.3729 -0.0268  0.1156
10251TIP3    H152244   3.311   3.166   1.862 -1.5329 -0.9555  1.6094
10251TIP3    H252245   3.432   3.237   1.919  1.2740 -5.1714  1.3770
10252TIP3   OH252246   6.756   6.719   1.818  0.3012 -0.1597 -0.1547
10252TIP3    H152247   6.676   6.768   1.798  0.9202  0.1224 -2.1157
10252TIP3    H252248   6.746   6.637   1.771  1.7486  0.4607 -1.6402
10253TIP3   OH252249   3.624   0.863  12.369  0.1663  0.0918 -0.0808
10253TIP3    H152250   3.676   0.803  12.315  1.1832 -0.8865  1.8632
10253TIP3    H252251   3.535   0.830  12.364  0.1485  0.2742 -1.4415
10254TIP3   OH252252   5.876   3.092  13.596 -0.4902 -0.0734  0.3987
10254TIP3    H152253   5.966   3.063  13.613 -1.2902 -2.1212  1.4179
10254TIP3    H252254   5.874   3.109  13.501  0.8443 -0.3984  0.2878
10255TIP3   OH252255   6.207   4.181   3.477  0.7594 -0.2304 -0.0951
10255TIP3    H152256   6.142   4.112   3.491  3.1911 -2.6780  0.0978
10255TIP3    H252257   6.235   4.205   3.565 -0.7253  1.7950 -0.1127
10256TIP3   OH252258   1.826   2.902   1.427 -0.1906  0.0155  0.2563
10256TIP3    H152259   1.854   2.983   1.384  0.2771  0.4295  1.3082
10256TIP3    H252260   1.736   2.890   1.397 -0.3605  1.0756  0.2897
10257TIP3   OH252261   1.689   1.604  15.555 -0.6426 -0.2125  0.1928
10257TIP3    H152262   1.757   1.538  15.566  0.1491  0.3371 -1.0708
10257TIP3    H252263   1.712   1.673  15.618  0.8897  0.6413 -1.2138
10258TIP3   OH252264   1.899   6.087   2.641 -0.3473 -0.2072  0.2556
10258TIP3    H152265   1.871   6.058   2.554  0.3086 -0.1325  0.0141
10258TIP3    H252266   1.837   6.047   2.701  0.0595 -1.4756 -0.1348
10259TIP3   OH252267   1.098   2.732   1.295 -0.2300 -0.3585  0.8313
10259TIP3    H152268   1.067   2.821   1.310  1.9741  0.7703 -0.6773
10259TIP3    H252269   1.150   2.711   1.373  0.6488  0.3808  0.4589
10260TIP3   OH252270   3.935   3.565  11.475 -0.0581  0.9639 -0.0460
10260TIP3    H152271   3.949   3.495  11.411  0.7167  1.4826 -0.4702
10260TIP3    H252272   3.933   3.645  11.422 -1.5405  1.2280  0.3624
10261TIP3   OH252273   2.626   6.775   5.528 -0.2063 -0.2753  0.7503
10261TIP3    H152274   2.686   6.732   5.468 -0.3461 -0.3954  0.6984
10261TIP3    H252275   2.546   6.788   5.478 -0.4238 -0.6427  1.0030
10262TIP3   OH252276   5.649   2.083  12.693  0.5928  0.5648 -0.3691
10262TIP3    H152277   5.731   2.062  12.737  0.2604  1.9002  0.9340
10262TIP3    H252278   5.587   2.018  12.726  0.6745  0.7238  0.1054
10263TIP3   OH252279   1.039   1.769   6.790  0.1953 -0.1575  0.1904
10263TIP3    H152280   1.046   1.690   6.737  1.2039  0.4488 -0.6152
10263TIP3    H252281   1.110   1.825   6.759  0.7725  0.2516  2.1287
10264TIP3   OH252282   1.110   5.938   4.126 -0.3296 -0.0594  0.7481
10264TIP3    H152283   1.096   6.012   4.185 -1.3534  0.2666  0.1363
10264TIP3    H252284   1.095   5.860   4.180  0.2147  0.1848  1.2616
10265TIP3   OH252285   0.334   4.521   3.427  0.1773 -0.7821  0.0296
10265TIP3    H152286   0.269   4.456   3.451 -1.9011  0.7241 -1.1693
10265TIP3    H252287   0.308   4.600   3.475  0.0473  0.3330 -1.7865
10266TIP3   OH252288   1.177   1.214  13.504 -0.0222  0.2066 -0.2623
10266TIP3    H152289   1.186   1.208  13.599  0.4778  1.6462 -0.1936
10266TIP3    H252290   1.090   1.251  13.490  0.0509  0.3406 -0.3606
10267TIP3   OH252291   5.525   3.845  14.117 -0.3469 -0.0791  0.2846
10267TIP3    H152292   5.563   3.885  14.039 -1.5778 -0.3171 -0.4573
10267TIP3    H252293   5.431   3.846  14.101 -0.6322 -0.0331  1.8233
10268TIP3   OH252294   0.440   0.264  16.590  0.2954 -0.3428 -0.3830
10268TIP3    H152295   0.445   0.168  16.597 -1.7408 -0.6175 -1.6359
10268TIP3    H252296   0.526   0.295  16.618  1.3322 -2.6037 -0.8300
10269TIP3   OH252297   1.101   6.076   2.232  0.2165 -0.3345 -0.0763
10269TIP3    H152298   1.101   6.170   2.248 -1.2526 -0.4025  0.4554
10269TIP3    H252299   1.189   6.057   2.199  1.0898  0.9445  1.3805
10270TIP3   OH252300   0.114   4.684   3.675  0.2660  0.1800 -0.0991
10270TIP3    H152301   0.050   4.624   3.637 -0.4234  0.8713 -0.0536
10270TIP3    H252302   0.167   4.629   3.734 -2.6295  0.1707  2.8042
10271TIP3   OH252303   1.237   2.807   3.338 -0.1671  0.8045 -0.2211
10271TIP3    H152304   1.164   2.858   3.304 -1.5434 -0.3631  0.8378
10271TIP3    H252305   1.200   2.719   3.353  1.8832 -0.2892 -1.1984
10272TIP3   OH252306   6.463   2.278  14.799  0.1961  0.1931 -0.2758
10272TIP3    H152307   6.468   2.349  14.734 -1.3410  0.7019  0.1150
10272TIP3    H252308   6.459   2.198  14.746 -1.8010  0.6396 -0.8939
10273TIP3   OH252309   0.091   1.723  16.375 -0.3175 -0.0791  0.6634
10273TIP3    H152310   0.094   1.741  16.281 -2.5892 -1.4390  0.2615
10273TIP3    H252311   0.164   1.663  16.390  0.6400  0.8764 -0.0182
10274TIP3   OH252312   3.174   0.474   5.605 -0.2718  0.3789 -0.6232
10274TIP3    H152313   3.097   0.434   5.565 -1.0270  0.4909  0.6602
10274TIP3    H252314   3.151   0.566   5.616  0.2292  0.5123 -0.6473
10275TIP3   OH252315   2.437   2.376   2.106  0.3136 -0.0010 -0.0465
10275TIP3    H152316   2.378   2.300   2.110 -0.0869  0.3343  0.5018
10275TIP3    H252317   2.465   2.388   2.197  0.4436  0.4595 -0.1500
10276TIP3   OH252318   2.380   5.997  14.416  0.1918  0.2968 -0.1345
10276TIP3    H152319   2.402   5.915  14.460  0.6490  0.3744 -0.2178
10276TIP3    H252320   2.464   6.041  14.404 -0.1378  1.2358  0.8122
10277TIP3   OH252321   1.770   1.859   2.925 -0.3628  0.1153  0.6350
10277TIP3    H152322   1.737   1.911   2.998 -0.8719  0.1410  0.3900
10277TIP3    H252323   1.750   1.768   2.949  1.1699 -0.0469  1.3958
10278TIP3   OH252324   4.808   2.541   5.688 -0.3088 -0.2241 -0.0644
10278TIP3    H152325   4.821   2.469   5.626  0.9986 -1.5922  1.7069
10278TIP3    H252326   4.813   2.620   5.633  0.8108 -1.3685 -1.7145
10279TIP3   OH252327   1.878   3.086   5.782  0.5752 -0.4739 -0.3792
10279TIP3    H152328   1.928   3.033   5.719  1.0903  0.0697 -0.4286
10279TIP3    H252329   1.805   3.120   5.731 -0.7126 -2.4433  0.0266
10280TIP3   OH252330   2.535   1.054   5.141  0.2771 -0.1828 -0.3254
10280TIP3    H152331   2.467   1.120   5.130  0.1367 -0.2444  0.1427
10280TIP3    H252332   2.580   1.079   5.222  0.2069 -0.6713 -0.1328
10281TIP3   OH252333   6.064   5.111  14.147 -0.1650 -0.0686  0.3001
10281TIP3    H152334   6.009   5.033  14.153  0.3255 -0.5240 -0.7066
10281TIP3    H252335   6.137   5.093  14.206 -0.1250 -0.3277  0.1768
10282TIP3   OH252336   4.041   6.349   3.014  0.5123 -0.0936  0.6793
10282TIP3    H152337   3.991   6.275   2.982  0.5983 -0.4983  1.4599
10282TIP3    H252338   4.002   6.425   2.971  0.0545 -0.5268  0.3197
10283TIP3   OH252339   1.618   5.332  14.000 -0.5364  0.6596  0.1468
10283TIP3    H152340   1.671   5.409  13.980  0.9773  0.0857  1.6760
10283TIP3    H252341   1.534   5.367  14.030  0.6150  1.8055  2.1927
10284TIP3   OH252342   2.279   6.846   2.178  0.0581 -0.0704  0.0216
10284TIP3    H152343   2.368   6.878   2.163 -0.3951  0.9155 -0.5864
10284TIP3    H252344   2.278   6.822   2.271  0.5539  1.2314  0.3773
10285TIP3   OH252345   3.137   6.613   3.718  0.4260  0.2735 -0.3535
10285TIP3    H152346   3.057   6.652   3.753  0.6559 -0.9258  1.6714
10285TIP3    H252347   3.155   6.539   3.775  3.0105  0.5050 -0.7293
10286TIP3   OH252348   6.814   2.772   2.879 -0.1730 -0.0213  0.4579
10286TIP3    H152349   6.736   2.720   2.899  0.1844 -1.2734 -1.2345
10286TIP3    H252350   6.874   2.711   2.836  0.6388  1.5651 -0.7681
10287TIP3   OH252351   2.581   1.316  12.347 -0.3948 -0.1063 -0.6790
10287TIP3    H152352   2.675   1.300  12.359 -0.1722  1.9366  1.1490
10287TIP3    H252353   2.570   1.323  12.253  0.8096 -2.6495 -1.1017
10288TIP3   OH252354   1.763   5.378   5.377 -0.0969  0.0132  0.2568
10288TIP3    H152355   1.830   5.321   5.339  2.2528  1.8999  1.2899
10288TIP3    H252356   1.802   5.410   5.459 -1.3439  2.8584 -0.1254
10289TIP3   OH252357   4.932   2.780  13.560 -0.1941  0.0734  0.0910
10289TIP3    H152358   4.908   2.803  13.650  1.8835 -0.3202  0.8138
10289TIP3    H252359   5.006   2.838  13.540  0.3847 -0.9250 -0.7614
10290TIP3   OH252360   6.700   0.572  11.412 -0.4129  0.4581 -0.2292
10290TIP3    H152361   6.649   0.648  11.384 -0.4836 -0.2865 -2.2475
10290TIP3    H252362   6.778   0.574  11.358 -0.6258 -1.1546 -0.6372
10291TIP3   OH252363   3.722   0.648   1.182 -0.4550 -0.0479  0.1832
10291TIP3    H152364   3.768   0.692   1.253 -0.8749  0.7170 -0.0107
10291TIP3    H252365   3.720   0.712   1.111 -0.4902 -0.6211 -0.3421
10292TIP3   OH252366   3.382   3.904  15.177 -0.0169  0.5635  0.2546
10292TIP3    H152367   3.454   3.893  15.239  0.1454  2.0536  0.3590
10292TIP3    H252368   3.333   3.979  15.210 -1.8502 -0.6207  0.3845
10293TIP3   OH252369   5.240   1.228  14.822  0.0660 -0.0583 -0.4726
10293TIP3    H152370   5.148   1.237  14.845  0.1619  1.5564 -0.6099
10293TIP3    H252371   5.251   1.281  14.743  0.9601 -0.8466 -0.9061
10294TIP3   OH252372   2.805   3.721   1.385  0.2874 -1.4076 -0.3743
10294TIP3    H152373   2.893   3.686   1.371  0.9272 -0.1393  0.3285
10294TIP3    H252374   2.747   3.662   1.336  1.8835 -0.0138 -4.3349
10295TIP3   OH252375   5.940   1.352   3.206 -0.1384  0.3633 -0.9045
10295TIP3    H152376   5.968   1.342   3.297  1.0825  1.0342 -1.1920
10295TIP3    H252377   5.922   1.263   3.177 -1.5657  0.2116  0.2863
10296TIP3   OH252378   3.791   2.613  11.638 -0.4744  0.4888 -0.0098
10296TIP3    H152379   3.774   2.549  11.707 -0.6697  1.0925  0.5142
10296TIP3    H252380   3.821   2.691  11.685 -0.2894  0.7989 -0.6341
10297TIP3   OH252381   4.749   2.471   3.600  0.3130 -0.0565  0.3616
10297TIP3    H152382   4.778   2.405   3.537 -2.4582 -1.0682  0.0109
10297TIP3    H252383   4.792   2.552   3.571  0.0424 -0.7217 -2.1735
10298TIP3   OH252384   1.928   0.857  17.130 -0.5321 -0.0983 -0.2620
10298TIP3    H152385   1.884   0.774  17.113 -1.0163  0.1964 -0.4696
10298TIP3    H252386   2.010   0.851  17.081  0.5507 -1.3960  1.5799
10299TIP3   OH252387   3.792   5.728   0.838 -0.0132 -0.7680 -0.4017
10299TIP3    H152388   3.867   5.780   0.811 -0.5230 -0.2103 -0.7851
10299TIP3    H252389   3.716   5.783   0.817 -0.4912 -0.8550  0.9720
10300TIP3   OH252390   5.091   1.422  13.753  1.0054 -0.1963  0.0354
10300TIP3    H152391   5.032   1.443  13.680  0.0126 -0.4788  0.7394
10300TIP3    H252392   5.165   1.378  13.711  0.1326 -0.9759 -0.7529
10301TIP3   OH252393   3.934   4.866  11.921 -0.7257 -0.0591 -0.2298
10301TIP3    H152394   3.905   4.775  11.933 -1.1569  0.0965 -0.0809
10301TIP3    H252395   4.021   4.858  11.881 -0.3493 -0.5550  0.6459
10302TIP3   OH252396   0.901   5.184  13.082 -0.6559 -0.5290 -0.7681
10302TIP3    H152397   0.934   5.119  13.020 -0.4639 -0.5051 -0.6913
10302TIP3    H252398   0.861   5.252  13.027  0.3303 -0.0545 -0.9140
10303TIP3   OH252399   3.601   2.575  14.166 -0.5260 -0.4019  0.4126
10303TIP3    H152400   3.565   2.517  14.099 -1.2218  0.0864  0.3570
10303TIP3    H252401   3.691   2.544  14.179 -0.7602 -1.2377  0.1017
10304TIP3   OH252402   4.360   1.735   0.075  0.0067  0.4029 -0.2222
10304TIP3    H152403   4.324   1.754  -0.012 -0.8764  0.4521  0.1468
10304TIP3    H252404   4.289   1.689   0.120  0.1908  1.0301  0.7211
10305TIP3   OH252405   5.396   6.548  12.585 -0.3880  0.8317  0.2212
10305TIP3    H152406   5.400   6.525  12.678  2.8407  0.2674  0.0484
10305TIP3    H252407   5.374   6.642  12.586  0.0797  0.9647  1.6108
10306TIP3   OH252408   0.337   1.775   5.115 -0.2400  0.6721 -0.3879
10306TIP3    H152409   0.333   1.700   5.176  1.0072  1.5233  0.7916
10306TIP3    H252410   0.378   1.739   5.036 -3.2555 -0.8354 -1.4187
10307TIP3   OH252411   3.249   4.166   3.020 -0.4537  0.2033 -0.1899
10307TIP3    H152412   3.262   4.075   2.992 -1.0404  0.6153 -1.9642
10307TIP3    H252413   3.336   4.205   3.016 -0.3443 -0.0577 -0.3729
10308TIP3   OH252414   4.836   6.069   1.551 -0.2510  0.0659  0.4195
10308TIP3    H152415   4.794   5.984   1.563 -0.8092  0.5326  1.8704
10308TIP3    H252416   4.875   6.063   1.463 -0.8857 -1.4134  0.2002
10309TIP3   OH252417   2.274   4.656  10.811 -0.0035 -0.0127 -0.4567
10309TIP3    H152418   2.367   4.632  10.804  0.4490  0.6819  1.9786
10309TIP3    H252419   2.276   4.749  10.834 -1.0866 -0.6478  2.6304
10310TIP3   OH252420   3.827   4.770   0.419  0.0530 -0.1539  0.1281
10310TIP3    H152421   3.768   4.703   0.453  1.2931 -1.5812 -0.4125
10310TIP3    H252422   3.860   4.814   0.498 -0.0898 -0.7984  0.5572
10311TIP3   OH252423   1.251   2.095   1.353 -0.7296  0.0357  0.3095
10311TIP3    H152424   1.173   2.131   1.310 -0.2437 -0.8555 -1.3965
10311TIP3    H252425   1.278   2.022   1.297  2.1897  1.1933  0.0204
10312TIP3   OH252426   0.862   5.772   3.206  0.3683 -0.2423  0.1065
10312TIP3    H152427   0.855   5.844   3.268  1.1476 -0.5986  0.6246
10312TIP3    H252428   0.875   5.694   3.260  0.6981 -0.6092 -0.4825
10313TIP3   OH252429   2.057   0.488  17.152 -0.0047 -0.5705  0.0808
10313TIP3    H152430   2.085   0.439  17.075 -1.3708 -2.8726  0.9496
10313TIP3    H252431   2.015   0.423  17.208 -1.8554  1.6030  1.3897
10314TIP3   OH252432   0.388   5.563   0.168  0.3661  0.5189 -0.1969
10314TIP3    H152433   0.402   5.627   0.098 -2.2988  0.9656 -0.4257
10314TIP3    H252434   0.473   5.556   0.212  0.7758  4.3274 -0.0617
10315TIP3   OH252435   0.868   1.732   3.777  0.1604 -0.0319  0.2666
10315TIP3    H152436   0.945   1.713   3.723  0.8600 -1.4139  1.6748
10315TIP3    H252437   0.886   1.688   3.860 -1.8236  0.2671  0.8975
10316TIP3   OH252438   6.795   4.750   2.035  0.4752 -0.2277 -0.3465
10316TIP3    H152439   6.726   4.802   1.993  0.9255  1.6971  1.1774
10316TIP3    H252440   6.762   4.660   2.032 -2.4437  0.6755  0.8817
10317TIP3   OH252441   3.252   1.153   5.974  0.0832 -0.0503  0.0088
10317TIP3    H152442   3.346   1.166   5.964  0.0434 -0.8548 -1.7703
10317TIP3    H252443   3.213   1.237   5.948  0.3066  0.6491  1.7891
10318TIP3   OH252444   5.782   1.582   3.905  0.4998  0.0348  0.4789
10318TIP3    H152445   5.877   1.577   3.896  0.5440  1.7273 -0.4814
10318TIP3    H252446   5.766   1.569   3.999  1.6093 -0.8450  0.5668
10319TIP3   OH252447   6.319   0.486   6.290 -0.7392 -0.4690 -0.1193
10319TIP3    H152448   6.280   0.451   6.370 -1.0635  0.8610  0.3250
10319TIP3    H252449   6.260   0.456   6.220  0.1779 -2.6385 -0.0568
10320TIP3   OH252450   5.662   3.654   3.896  0.5240 -0.0663  0.3558
10320TIP3    H152451   5.653   3.739   3.853 -1.5499 -0.3794  0.0424
10320TIP3    H252452   5.646   3.590   3.826  1.4062 -0.7136  0.7247
10321TIP3   OH252453   0.417   0.735   5.821  0.1390  0.3266  0.0337
10321TIP3    H152454   0.436   0.693   5.905  0.3740  3.0191  1.4249
10321TIP3    H252455   0.321   0.742   5.819  0.1437  0.4198  0.1581
10322TIP3   OH252456   6.770   6.496  12.791  0.8467 -0.0249  0.2454
10322TIP3    H152457   6.855   6.500  12.834  0.5257 -0.7062  0.9659
10322TIP3    H252458   6.786   6.532  12.704  1.4231  1.7565  1.0472
10323TIP3   OH252459   1.115   2.311  12.332 -0.2612  0.4321 -0.0898
10323TIP3    H152460   1.078   2.387  12.286 -0.7452  0.4670  0.3479
10323TIP3    H252461   1.197   2.343  12.369 -0.2764  0.6351 -0.2273
10324TIP3   OH252462   2.012   4.250   4.065 -0.0450 -0.1576 -0.1609
10324TIP3    H152463   1.959   4.303   4.005  1.0127  0.5972 -0.4590
10324TIP3    H252464   1.970   4.163   4.063 -1.8197  0.6392  0.3525
10325TIP3   OH252465   3.777   4.660  14.129 -0.3224  0.1368 -0.6691
10325TIP3    H152466   3.835   4.674  14.054 -0.7234  1.1296 -0.8158
10325TIP3    H252467   3.757   4.567  14.127 -0.6424  0.2081 -2.0494
10326TIP3   OH252468   2.716   6.528  16.663 -0.1107  0.1176 -0.3693
10326TIP3    H152469   2.780   6.577  16.714  0.0062 -1.4050  1.0219
10326TIP3    H252470   2.769   6.472  16.606 -0.1749 -0.9666  0.6103
10327TIP3   OH252471   2.433   4.280  16.565 -0.2560 -0.0788  0.0835
10327TIP3    H152472   2.473   4.352  16.616  0.7969  0.7574 -1.8294
10327TIP3    H252473   2.442   4.307  16.474 -0.5627 -2.3034 -0.6650
10328TIP3   OH252474   4.098   4.260  15.117 -0.5472  0.4583 -0.5596
10328TIP3    H152475   4.107   4.345  15.073  1.1202  0.4463 -0.2979
10328TIP3    H252476   4.028   4.216  15.069 -0.8500  1.6377 -1.2505
10329TIP3   OH252477   3.275   5.593  11.633 -0.8808  0.7981  0.0796
10329TIP3    H152478   3.300   5.618  11.544 -1.8849  0.6815 -0.2474
10329TIP3    H252479   3.293   5.500  11.638 -0.3672  0.8984  0.1659
10330TIP3   OH252480   6.261   2.334   1.787  0.7355 -0.5927  0.0695
10330TIP3    H152481   6.290   2.340   1.696  1.5868  1.0056  0.3939
10330TIP3    H252482   6.333   2.374   1.837 -0.0909 -0.6543  1.3506
10331TIP3   OH252483   5.681   6.067  13.638 -0.1475 -0.0241  0.1596
10331TIP3    H152484   5.633   6.112  13.569  1.3904 -0.2173 -1.0957
10331TIP3    H252485   5.614   6.016  13.685 -1.2632  0.2835 -1.0404
10332TIP3   OH252486   6.724   1.775   3.908 -0.0586  0.4887  0.0690
10332TIP3    H152487   6.644   1.737   3.872  0.8992  0.3946 -2.1340
10332TIP3    H252488   6.717   1.868   3.888 -0.1566  0.6776  0.9657
10333TIP3   OH252489   6.231   2.179  11.618  0.4625  0.9507 -0.3560
10333TIP3    H152490   6.282   2.239  11.563 -1.2972  1.5527 -1.4221
10333TIP3    H252491   6.155   2.231  11.645 -0.0124 -0.1497  0.5003
10334TIP3   OH252492   6.410   3.945  11.294  0.3397 -0.2823 -0.2350
10334TIP3    H152493   6.391   3.869  11.239  1.1264 -0.0132 -0.8975
10334TIP3    H252494   6.325   3.972  11.327  0.1016 -1.7407  0.4065
10335TIP3   OH252495   4.172   0.887   0.320 -0.2718 -0.0039 -0.2005
10335TIP3    H152496   4.246   0.845   0.365  0.3199 -0.1770 -1.3001
10335TIP3    H252497   4.207   0.910   0.234 -0.3649  3.3432  0.5441
10336TIP3   OH252498   2.361   4.511   4.924  0.3787 -0.5443  0.7172
10336TIP3    H152499   2.308   4.495   4.846  1.0067  2.0594 -0.3527
10336TIP3    H252500   2.450   4.519   4.891  0.5999  1.0163  1.5956
10337TIP3   OH252501   0.910   0.880  16.972 -0.4562 -0.7662  0.1035
10337TIP3    H152502   0.966   0.814  16.930 -3.0332 -2.2787 -1.1763
10337TIP3    H252503   0.899   0.948  16.906 -0.9723 -1.0105 -0.0706
10338TIP3   OH252504   5.918   0.000  13.743 -0.2679 -0.2099  0.3199
10338TIP3    H152505   5.980   0.019  13.813 -0.0338  2.8485 -0.5541
10338TIP3    H252506   5.832   0.018  13.782 -0.2109  0.5008  0.1291
10339TIP3   OH252507   4.951   6.270   1.350 -0.0451  0.4072  0.0652
10339TIP3    H152508   4.869   6.279   1.400 -0.0061  1.3485 -0.0300
10339TIP3    H252509   4.938   6.191   1.298 -1.0206  0.7001 -0.1655
10340TIP3   OH252510   1.990   4.263  12.093 -0.1544  0.7174  0.2951
10340TIP3    H152511   1.933   4.246  12.018 -1.3589  1.7517  0.9334
10340TIP3    H252512   2.079   4.251  12.059 -0.6675  1.0243 -1.2484
10341TIP3   OH252513   2.245   6.825   2.488 -0.2170  0.0869 -0.3527
10341TIP3    H152514   2.311   6.756   2.495  1.7837  1.8850 -0.4853
10341TIP3    H252515   2.186   6.809   2.562  1.1501 -0.8104  0.5785
10342TIP3   OH252516   5.686   0.563  17.080  0.3982  0.0881  0.2971
10342TIP3    H152517   5.683   0.625  17.154  1.0650 -0.1189  0.5045
10342TIP3    H252518   5.613   0.590  17.024  2.0487  2.5880 -0.8299
10343TIP3   OH252519   0.697   3.294   3.028 -0.7565  0.2416  0.2104
10343TIP3    H152520   0.652   3.300   2.944  0.5804 -1.5460 -0.6981
10343TIP3    H252521   0.701   3.200   3.046  2.2834  0.3313  0.3971
10344TIP3   OH252522   6.392   3.591   2.993 -0.2065 -0.3556  0.8278
10344TIP3    H152523   6.375   3.646   2.917 -1.5068 -1.9501 -0.0824
10344TIP3    H252524   6.336   3.628   3.062  0.5584  0.7468  0.8973
10345TIP3   OH252525   0.736   5.777  15.397  0.3127 -0.5549  0.8591
10345TIP3    H152526   0.719   5.862  15.357 -0.2491 -1.1394 -0.1937
10345TIP3    H252527   0.820   5.788  15.442  0.9263  0.1543 -0.4219
10346TIP3   OH252528   4.527   1.786  14.360 -0.2671  0.1082  0.0287
10346TIP3    H152529   4.549   1.871  14.324 -2.9030  0.9242  0.0920
10346TIP3    H252530   4.515   1.801  14.454 -0.2560 -0.4258  0.1222
10347TIP3   OH252531   1.324   1.701  14.185  0.0209 -0.4037  0.3718
10347TIP3    H152532   1.338   1.663  14.272 -0.1785 -3.7008 -0.8730
10347TIP3    H252533   1.357   1.634  14.125  0.2269  1.7993 -2.1225
10348TIP3   OH252534   2.696   4.327  16.441 -0.2688 -0.0463 -0.1961
10348TIP3    H152535   2.648   4.287  16.369 -1.5179 -0.2733  0.7260
10348TIP3    H252536   2.788   4.313  16.420 -0.6004 -3.4454  0.0685
10349TIP3   OH252537   6.485   5.107  16.845  0.3688  0.0952  0.4459
10349TIP3    H152538   6.529   5.107  16.760 -1.9351 -1.4664 -0.8552
10349TIP3    H252539   6.504   5.021  16.883  1.6955  0.9174  1.7448
10350TIP3   OH252540   3.397   1.987  13.073  0.5849 -0.4485  0.1864
10350TIP3    H152541   3.410   2.066  13.021 -1.0617 -0.1282  0.1989
10350TIP3    H252542   3.417   2.013  13.162  0.2805 -0.1017  0.1557
10351TIP3   OH252543   6.835   3.567   5.450  0.1197 -1.1352  0.5976
10351TIP3    H152544   6.748   3.600   5.427  0.0487 -0.9058  1.1870
10351TIP3    H252545   6.831   3.473   5.433  0.2213 -0.9054 -0.8027
10352TIP3   OH252546   2.191   5.019   3.680 -0.7220 -0.6981  0.2592
10352TIP3    H152547   2.108   4.977   3.656 -2.4385  1.6538  1.6360
10352TIP3    H252548   2.214   4.980   3.764  0.1902 -2.0712 -0.5763
10353TIP3   OH252549   2.869   0.560   0.012 -0.5098  0.6394  0.2798
10353TIP3    H152550   2.856   0.655   0.015 -1.0777  0.7439 -2.7922
10353TIP3    H252551   2.844   0.530   0.100 -0.2061  3.3017  1.3747
10354TIP3   OH252552   4.553   4.514   2.517 -0.0596 -0.0396  0.4622
10354TIP3    H152553   4.595   4.594   2.486 -0.9096  0.6998  1.1905
10354TIP3    H252554   4.525   4.469   2.437  0.0834  0.5726  0.0614
10355TIP3   OH252555   3.246   6.325   5.297  0.5186  0.4116  0.8158
10355TIP3    H152556   3.189   6.401   5.283 -0.8984 -0.9226 -1.0972
10355TIP3    H252557   3.293   6.314   5.214  0.9909 -0.5831  1.1942
10356TIP3   OH252558   0.597   3.077  14.862  0.7535 -0.0563 -0.1409
10356TIP3    H152559   0.659   3.058  14.792  0.6961  1.8748 -0.7598
10356TIP3    H252560   0.560   3.162  14.839 -0.9796 -0.4476  1.0351
10357TIP3   OH252561   4.186   3.517   5.637 -0.0042 -0.9069 -0.7782
10357TIP3    H152562   4.265   3.480   5.598  0.9883 -0.5284  0.7469
10357TIP3    H252563   4.155   3.450   5.697  0.7003 -0.1037  0.5580
10358TIP3   OH252564   2.729   0.425  16.967 -0.2792  0.1568  0.3277
10358TIP3    H152565   2.750   0.498  16.908 -1.6612  0.9146  0.7138
10358TIP3    H252566   2.766   0.450  17.051 -0.4360  0.2358  0.3723
10359TIP3   OH252567   2.056   5.561  11.918 -0.3924  0.1787  0.0769
10359TIP3    H152568   2.109   5.488  11.950  0.9703  0.6668 -0.9550
10359TIP3    H252569   2.031   5.534  11.829 -1.0367  0.3946  0.1881
10360TIP3   OH252570   5.480   2.856   4.893  0.1805 -0.0926 -0.1901
10360TIP3    H152571   5.466   2.947   4.920  0.4078 -0.1987  0.3019
10360TIP3    H252572   5.478   2.859   4.797  0.5801  0.4975 -0.1911
10361TIP3   OH252573   3.320   5.074   4.530  0.3593  0.0444 -0.7297
10361TIP3    H152574   3.377   4.997   4.526 -0.7404 -0.7650 -2.4680
10361TIP3    H252575   3.377   5.146   4.557  1.8089 -1.0529 -0.7823
10362TIP3   OH252576   2.445   6.630  12.061 -0.1927 -0.1559  0.3105
10362TIP3    H152577   2.390   6.567  12.108 -1.4005  0.1868 -0.5938
10362TIP3    H252578   2.472   6.583  11.982 -1.3518  0.5415 -0.5185
10363TIP3   OH252579   6.230   2.187   3.506 -0.1419 -0.4053  0.4162
10363TIP3    H152580   6.195   2.249   3.570  1.7894 -0.1628  1.3008
10363TIP3    H252581   6.175   2.199   3.429  0.1401  2.4213  0.5550
10364TIP3   OH252582   2.629   0.108  14.981  0.4971 -0.9075 -0.4200
10364TIP3    H152583   2.640   0.013  14.970  2.0076 -0.7930 -0.0445
10364TIP3    H252584   2.703   0.147  14.935  1.5408 -0.0484  1.8410
10365TIP3   OH252585   3.079   1.513   5.369 -0.7112 -0.1476 -0.1828
10365TIP3    H152586   3.125   1.520   5.452 -0.9688 -1.6419  0.1127
10365TIP3    H252587   3.146   1.483   5.307 -0.6343  0.4950 -0.4249
10366TIP3   OH252588   6.141   4.807  16.465  0.6059  0.4137 -0.3819
10366TIP3    H152589   6.050   4.816  16.494  1.0873 -2.4965  2.5914
10366TIP3    H252590   6.140   4.736  16.401  0.5376  2.2147 -2.5100
10367TIP3   OH252591   6.413   2.862  12.101 -0.0499 -0.4812  0.1207
10367TIP3    H152592   6.403   2.888  12.193  3.9277  2.9697 -0.1010
10367TIP3    H252593   6.457   2.777  12.105  0.0186 -0.4045  1.4060
10368TIP3   OH252594   5.917   4.539   1.300  0.2087 -0.0342 -0.3711
10368TIP3    H152595   5.958   4.562   1.217 -0.7213  0.9713 -0.5807
10368TIP3    H252596   5.889   4.623   1.336  0.4680 -0.4783  0.8926
10369TIP3   OH252597   3.304   6.808   1.468  0.2505  0.2756  0.1799
10369TIP3    H152598   3.355   6.740   1.424  1.0704  0.4218  0.8988
10369TIP3    H252599   3.290   6.774   1.556 -2.6769 -0.7089 -0.5344
10370TIP3   OH252600   3.176   4.061  12.388  0.0639 -0.0297  0.7158
10370TIP3    H152601   3.149   4.142  12.345  1.9967  1.0371  1.3538
10370TIP3    H252602   3.182   4.085  12.481 -2.6336 -1.8831  1.4699
10371TIP3   OH252603   5.894   1.180  14.001  0.3512  0.0515 -0.4079
10371TIP3    H152604   5.937   1.265  14.007  2.7382 -1.1124  0.2421
10371TIP3    H252605   5.955   1.119  14.043 -0.0086 -2.4183 -3.1313
10372TIP3   OH252606   4.810   1.765   2.178 -0.3628  0.2224 -0.0997
10372TIP3    H152607   4.850   1.846   2.146  0.7014  0.5280  1.8332
10372TIP3    H252608   4.746   1.795   2.243 -0.7689 -0.4447 -0.1907
10373TIP3   OH252609   1.968   6.392   2.867  1.1150 -0.2401 -0.5321
10373TIP3    H152610   2.039   6.328   2.860  1.2931 -0.0513 -0.4533
10373TIP3    H252611   1.992   6.462   2.805  0.6371 -0.5162 -1.0434
10374TIP3   OH252612   2.926   2.117  10.493  0.3843  0.0929 -0.1331
10374TIP3    H152613   2.964   2.167  10.565 -1.0301  2.0593 -0.6624
10374TIP3    H252614   2.848   2.077  10.532  0.4967 -0.1683 -0.1770
10375TIP3   OH252615   6.520   6.367  12.832 -0.2607  0.3649 -0.0545
10375TIP3    H152616   6.599   6.415  12.807 -1.2088  0.6937 -2.7480
10375TIP3    H252617   6.540   6.275  12.812  0.1055  0.1428  1.2147
10376TIP3   OH252618   6.836   1.176   2.307 -0.0666 -0.4315 -0.1201
10376TIP3    H152619   6.779   1.195   2.233 -0.8792  1.2832  0.9003
10376TIP3    H252620   6.883   1.097   2.281 -2.8236 -1.8967 -1.0656
10377TIP3   OH252621   5.648   3.487  10.778  0.2592 -0.0464 -0.0210
10377TIP3    H152622   5.671   3.395  10.768 -0.9911 -0.3116 -0.6110
10377TIP3    H252623   5.691   3.531  10.704 -0.7280 -0.4623 -0.8530
10378TIP3   OH252624   0.480   4.646  10.806 -0.7039 -0.2278 -0.0437
10378TIP3    H152625   0.527   4.722  10.771  0.3448 -1.4363 -1.3507
10378TIP3    H252626   0.394   4.681  10.831 -0.6892  1.1756 -1.7470
10379TIP3   OH252627   5.578   5.577  12.117  0.3127  0.1030  0.3935
10379TIP3    H152628   5.581   5.544  12.207 -1.1589  1.8096  1.1221
10379TIP3    H252629   5.633   5.656  12.118  0.7207 -0.1590 -0.3597
10380TIP3   OH252630   4.348   5.149  12.519 -0.2029 -0.3230 -0.4369
10380TIP3    H152631   4.309   5.114  12.439 -0.6817 -2.0763  0.5234
10380TIP3    H252632   4.442   5.154  12.499 -0.2381 -1.3308 -0.9070
10381TIP3   OH252633   2.127   1.150  14.707  0.3069 -0.2229  0.0817
10381TIP3    H152634   2.221   1.154  14.690  0.7513 -1.9661  1.7296
10381TIP3    H252635   2.099   1.068  14.667 -0.5748  0.3792 -0.5654
10382TIP3   OH252636   0.532   4.031  15.326  0.2039  0.3261 -0.3818
10382TIP3    H152637   0.588   3.987  15.263 -0.7147 -1.1035 -0.2488
10382TIP3    H252638   0.508   4.113  15.284  1.6685  0.5696 -0.7932
10383TIP3   OH252639   6.765   5.251  13.310  0.0413  0.3466 -0.3325
10383TIP3    H152640   6.760   5.177  13.370 -1.2179  0.1400 -0.6620
10383TIP3    H252641   6.744   5.214  13.224  1.3227  0.7298 -0.8436
10384TIP3   OH252642   2.479   2.071  15.438  0.5537 -0.1478  0.7438
10384TIP3    H152643   2.566   2.035  15.422 -0.3146 -2.0115 -0.0214
10384TIP3    H252644   2.418   2.004  15.408 -1.1807  0.7719  1.9596
10385TIP3   OH252645   4.972   2.155  15.561 -0.0756  0.1880  0.3002
10385TIP3    H152646   4.922   2.146  15.641 -0.5627 -0.1889 -0.0399
10385TIP3    H252647   4.912   2.196  15.499  0.1267  0.0148 -0.0164
10386TIP3   OH252648   4.909   5.437   1.898 -0.1200 -0.1188  0.6570
10386TIP3    H152649   4.871   5.375   1.959  0.6060 -0.3962  0.8443
10386TIP3    H252650   4.970   5.489   1.951 -0.5146  0.5710  0.4465
10387TIP3   OH252651   3.893   1.549   1.761  0.4215  0.2280 -0.2599
10387TIP3    H152652   3.981   1.517   1.779  0.4602  0.9880  1.0481
10387TIP3    H252653   3.904   1.643   1.744 -0.2814  0.7304  1.7423
10388TIP3   OH252654   2.659   2.423   3.574  0.1480  0.3279 -0.2464
10388TIP3    H152655   2.597   2.366   3.529 -1.3005  2.7095 -1.4963
10388TIP3    H252656   2.605   2.493   3.610  1.7793  0.7213  1.6311
10389TIP3   OH252657   4.347   5.959  16.951  0.3513 -0.1670 -0.5539
10389TIP3    H152658   4.256   5.988  16.939  0.6405  0.7680 -0.5952
10389TIP3    H252659   4.357   5.885  16.891  0.1912  0.9817 -2.0582
10390TIP3   OH252660   0.945   0.485   1.650 -0.0361  0.6758 -0.0158
10390TIP3    H152661   0.870   0.531   1.613 -1.4815 -1.8997 -0.5395
10390TIP3    H252662   0.907   0.424   1.713  1.5900 -0.8295 -0.4039
10391TIP3   OH252663   5.537   2.250   6.006 -0.5194 -0.4187  0.1144
10391TIP3    H152664   5.539   2.211   5.918  1.3171 -0.2042  0.0185
10391TIP3    H252665   5.531   2.344   5.990 -2.2776 -0.4691  0.2950
10392TIP3   OH252666   6.295   1.246  13.877  0.3106  0.3051  0.1926
10392TIP3    H152667   6.226   1.180  13.872  1.2739 -0.7210  0.2081
10392TIP3    H252668   6.248   1.329  13.891 -1.1312  0.1426 -2.9444
10393TIP3   OH252669   5.817   6.523  14.440 -0.0830  0.0384 -0.2582
10393TIP3    H152670   5.858   6.479  14.514 -0.6707 -1.6908 -0.9305
10393TIP3    H252671   5.788   6.608  14.476 -1.6886 -1.3291  1.9196
10394TIP3   OH252672   3.344   1.456   4.278 -0.1064  0.4605  0.3065
10394TIP3    H152673   3.393   1.417   4.350  2.3555  0.1908 -1.3797
10394TIP3    H252674   3.318   1.381   4.224 -1.4687  0.6940  0.6015
10395TIP3   OH252675   3.962   1.229  12.583  0.3043  0.0803  0.3108
10395TIP3    H152676   4.056   1.208  12.588  0.3192  0.4558  3.4475
10395TIP3    H252677   3.918   1.144  12.591  0.2391 -0.3663 -3.1935
10396TIP3   OH252678   4.990   3.091   3.848  0.7254 -0.3369 -0.3372
10396TIP3    H152679   5.034   3.006   3.843  0.3564 -0.4806 -1.6901
10396TIP3    H252680   5.060   3.155   3.853  1.0824 -0.6212 -1.4409
10397TIP3   OH252681   6.429   2.095   0.823 -0.3065 -0.4292 -0.5039
10397TIP3    H152682   6.464   2.007   0.816  1.3961  0.1889 -0.2175
10397TIP3    H252683   6.335   2.083   0.834 -0.2462 -2.1524 -1.6385
10398TIP3   OH252684   0.151   4.980   4.472 -0.1122 -0.5166 -0.6380
10398TIP3    H152685   0.232   5.030   4.481 -0.3855 -0.3110  0.8841
10398TIP3    H252686   0.089   5.041   4.434 -0.0497 -0.1291 -0.1182
10399TIP3   OH252687   0.534   4.458  16.838  0.7424 -0.0646  0.4528
10399TIP3    H152688   0.446   4.426  16.858  0.2977  0.8630  0.0331
10399TIP3    H252689   0.520   4.537  16.785  1.7696  1.4267  2.2836
10400TIP3   OH252690   4.819   0.214   3.254 -0.5962  1.1150  0.6436
10400TIP3    H152691   4.836   0.193   3.346  0.4071 -2.5870 -0.2373
10400TIP3    H252692   4.892   0.270   3.229  1.4431 -1.1853  1.1436
10401TIP3   OH252693   5.304   4.647   3.020 -0.1875 -0.6634 -0.4061
10401TIP3    H152694   5.266   4.735   3.020 -0.7844 -0.8877  1.3146
10401TIP3    H252695   5.386   4.656   2.971  0.3458  1.1340  0.7106
10402TIP3   OH252696   0.967   2.778   0.235  0.3995  0.2151 -0.6428
10402TIP3    H152697   0.873   2.763   0.235  0.3491  0.4214  0.3744
10402TIP3    H252698   0.982   2.838   0.308  1.3886 -0.2850 -0.4079
10403TIP3   OH252699   6.681   6.575  12.397 -0.4238 -0.4376  0.1367
10403TIP3    H152700   6.747   6.507  12.414  0.2475  0.2672  0.3784
10403TIP3    H252701   6.726   6.657  12.412 -0.9968  0.1053 -0.9873
10404TIP3   OH252702   4.434   0.521   1.583  0.0667 -0.2712  0.0023
10404TIP3    H152703   4.348   0.479   1.573 -0.2894  0.2006  0.9580
10404TIP3    H252704   4.425   0.575   1.661  0.4429  1.7269 -1.2589
10405TIP3   OH252705   0.704   5.924   1.789 -0.2484 -0.7085  0.3886
10405TIP3    H152706   0.612   5.922   1.815 -0.2585  0.5702  0.5446
10405TIP3    H252707   0.750   5.958   1.866 -0.0590  1.4807 -0.5969
10406TIP3   OH252708   0.746   5.571   0.470  0.2422 -0.0655 -0.0800
10406TIP3    H152709   0.703   5.577   0.555 -0.2292 -0.0357 -0.3143
10406TIP3    H252710   0.826   5.521   0.486 -1.2249 -2.5615 -0.1240
10407TIP3   OH252711   6.421   0.080   4.395  0.2633  0.4632  0.0875
10407TIP3    H152712   6.370   0.146   4.442  1.8451  0.6067  1.7545
10407TIP3    H252713   6.406   0.098   4.303  0.4931  3.0607  0.4906
10408TIP3   OH252714   5.329   4.076  16.426 -0.6676 -0.3534  0.1185
10408TIP3    H152715   5.398   4.141  16.440 -0.1391 -1.1886  1.5059
10408TIP3    H252716   5.252   4.113  16.471 -1.3391  0.8255 -1.8652
10409TIP3   OH252717   1.507   6.665   2.053  0.0300 -0.3258 -0.6943
10409TIP3    H152718   1.550   6.625   2.128  1.8036  0.7684 -1.0795
10409TIP3    H252719   1.423   6.697   2.087  0.7427  0.0313  0.7904
10410TIP3   OH252720   0.043   0.471  15.463  0.3301  0.3761 -0.4031
10410TIP3    H152721   0.081   0.393  15.422  1.3708  0.3242  0.6072
10410TIP3    H252722  -0.050   0.452  15.469  0.4720 -0.4954 -0.8169
10411TIP3   OH252723   3.055   6.317   2.648 -0.9020  0.3426  0.0536
10411TIP3    H152724   2.999   6.264   2.704  0.2685 -0.0403  0.9014
10411TIP3    H252725   3.010   6.401   2.641 -1.5179  0.0832  0.8174
10412TIP3   OH252726   0.805   0.322   0.921  0.2460 -0.2020  0.1644
10412TIP3    H152727   0.866   0.357   0.985  0.3856  0.7401 -0.4648
10412TIP3    H252728   0.791   0.232   0.948  0.2780  0.1782  1.5362
10413TIP3   OH252729   0.188   0.804   1.654 -0.4935  0.4088  0.4404
10413TIP3    H152730   0.221   0.817   1.565  3.4976 -1.0928  1.5225
10413TIP3    H252731   0.176   0.893   1.688  0.2854  1.0051 -0.7837
10414TIP3   OH252732   1.092   3.776   1.744 -0.4407  0.9912 -0.0811
10414TIP3    H152733   1.080   3.835   1.818 -0.4097 -0.7289  1.3502
10414TIP3    H252734   1.187   3.776   1.729 -0.4615  1.4561 -0.2244
10415TIP3   OH252735   5.447   0.467   0.178 -0.0369 -0.0346 -0.3477
10415TIP3    H152736   5.502   0.413   0.121 -1.4807 -0.2236 -1.6393
10415TIP3    H252737   5.373   0.411   0.200  0.2746  0.1952  1.4041
10416TIP3   OH252738   0.150   0.793   2.344 -0.0019 -0.7871  0.1088
10416TIP3    H152739   0.229   0.742   2.363  0.0967  0.0714  2.2890
10416TIP3    H252740   0.078   0.734   2.363  0.1283 -0.7658  0.7050
10417TIP3   OH252741   5.051   6.545  11.537  0.2133 -0.2766  0.4529
10417TIP3    H152742   5.098   6.580  11.461 -0.7096 -3.2376 -1.6543
10417TIP3    H252743   4.984   6.611  11.556  1.4353  1.2445 -0.2501
10418TIP3   OH252744   3.806   3.696  16.809 -0.3821  0.1089  0.7521
10418TIP3    H152745   3.851   3.616  16.783  0.9901  0.9928  0.3160
10418TIP3    H252746   3.745   3.714  16.737  1.0058  0.7221 -0.3080
10419TIP3   OH252747   6.839   1.250  12.280  0.4253  0.3481 -0.2953
10419TIP3    H152748   6.899   1.190  12.236  0.2540 -0.8672  1.0544
10419TIP3    H252749   6.783   1.284  12.210  0.4985 -1.1174 -1.0997
10420TIP3   OH252750   4.191   5.590   4.700 -0.0416  0.0807 -0.2408
10420TIP3    H152751   4.138   5.559   4.774  2.2283 -1.2945  0.9413
10420TIP3    H252752   4.167   5.532   4.628 -2.1856  1.3510 -0.6421
10421TIP3   OH252753   1.788   0.552  14.423  0.6062  0.3905  0.6456
10421TIP3    H152754   1.727   0.565  14.350  0.5840  0.5816  0.6970
10421TIP3    H252755   1.818   0.641  14.445  2.2260  0.1668 -0.5101
10422TIP3   OH252756   1.804   4.508  13.132  0.4224  0.0548 -0.4791
10422TIP3    H152757   1.860   4.478  13.202 -2.2725 -2.2582  0.8701
10422TIP3    H252758   1.841   4.470  13.052  1.7814  0.1934  0.0676
10423TIP3   OH252759   1.998   3.398   3.066 -0.2863  0.0938  0.5209
10423TIP3    H152760   1.963   3.488   3.064  0.1858  0.2724  0.2205
10423TIP3    H252761   2.027   3.382   2.976 -2.3138 -1.1465  0.0194
10424TIP3   OH252762   3.862   6.720   6.107  0.0450 -0.0447  0.2171
10424TIP3    H152763   3.777   6.687   6.078  1.0637 -0.8986 -2.0524
10424TIP3    H252764   3.916   6.641   6.118  1.1067  0.5741 -0.3926
10425TIP3   OH252765   6.588   4.488   1.114  0.4644 -0.1805  0.0834
10425TIP3    H152766   6.584   4.577   1.079 -2.9432  0.3104  1.3319
10425TIP3    H252767   6.552   4.433   1.043 -0.4580 -0.0639  0.4426
10426TIP3   OH252768   1.837   1.673  11.698  0.0439  0.2360  0.6082
10426TIP3    H152769   1.748   1.691  11.667 -0.2196  1.7014  2.0628
10426TIP3    H252770   1.893   1.725  11.641  0.1579 -1.7744 -1.2260
10427TIP3   OH252771   0.744   5.506  11.017 -0.5794  1.0886 -0.2287
10427TIP3    H152772   0.780   5.563  10.950 -1.5957  1.7320 -0.2425
10427TIP3    H252773   0.681   5.450  10.971  0.5063 -0.1843 -0.2482
10428TIP3   OH252774   0.939   3.992   3.490  0.5182 -0.0946 -0.3266
10428TIP3    H152775   0.846   4.016   3.493  0.8819  1.5702 -0.9239
10428TIP3    H252776   0.942   3.903   3.523 -1.2433 -0.0267  0.1329
10429TIP3   OH252777   0.844   6.386   5.934 -0.8581  0.7470 -0.1661
10429TIP3    H152778   0.890   6.443   5.996 -0.9502  2.1056 -1.2863
10429TIP3    H252779   0.915   6.343   5.885 -0.7775 -0.6647  1.1096
10430TIP3   OH252780   5.572   3.243   3.938 -0.1891 -0.2826  0.1441
10430TIP3    H152781   5.553   3.311   4.003 -2.1282 -1.1190  0.5248
10430TIP3    H252782   5.583   3.163   3.989 -0.5257 -0.7325 -0.4741
10431TIP3   OH252783   1.484   1.415  15.113 -0.5865  0.0928  0.0451
10431TIP3    H152784   1.574   1.388  15.092 -0.6374  0.5572 -0.7750
10431TIP3    H252785   1.495   1.492  15.169 -0.4702 -0.2627  0.5193
10432TIP3   OH252786   5.496   2.890   6.363 -0.8057 -0.3304 -0.1419
10432TIP3    H152787   5.524   2.832   6.293  0.3470 -0.9023  0.7526
10432TIP3    H252788   5.404   2.868   6.377 -0.3819 -2.0325  0.2308
10433TIP3   OH252789   3.716   6.221   5.961  0.7283  0.0119  0.0173
10433TIP3    H152790   3.656   6.289   5.932  1.4479  1.2915  1.3983
10433TIP3    H252791   3.682   6.195   6.047  0.6802 -1.1187 -0.3337
10434TIP3   OH252792   2.657   5.963   5.240 -0.3797  0.4024 -0.6631
10434TIP3    H152793   2.673   5.872   5.213 -0.0498  0.5238 -0.8778
10434TIP3    H252794   2.565   5.978   5.218  0.4267  1.2894 -4.1366
10435TIP3   OH252795   3.242   0.178  14.683  0.1862  0.1595 -0.0546
10435TIP3    H152796   3.257   0.183  14.589  0.5780  1.3048  0.0537
10435TIP3    H252797   3.166   0.122  14.692  0.5696 -0.5362 -1.0117
10436TIP3   OH252798   6.131   5.039   3.560 -0.3575 -0.0226  0.2434
10436TIP3    H152799   6.149   5.085   3.642  0.5915 -1.0635  0.6491
10436TIP3    H252800   6.042   5.066   3.537 -0.6962  0.1944  1.6850
10437TIP3   OH252801   3.047   0.724  16.889  0.4335  0.4066 -0.0435
10437TIP3    H152802   2.965   0.688  16.854  0.5926  0.2889 -0.2969
10437TIP3    H252803   3.097   0.749  16.811  0.8747 -0.0464  0.0888
10438TIP3   OH252804   0.577   1.320   2.630  0.0021 -0.0773  0.1322
10438TIP3    H152805   0.483   1.316   2.613  0.0636 -1.6745  0.0155
10438TIP3    H252806   0.588   1.277   2.715  0.7342 -1.0991 -0.4539
10439TIP3   OH252807   6.324   2.777  12.805  0.5346  0.1474  0.4030
10439TIP3    H152808   6.237   2.806  12.776  0.6455  0.9265  0.8248
10439TIP3    H252809   6.341   2.828  12.884  1.3064 -0.1240  0.4161
10440TIP3   OH252810   6.826   4.328  16.107  0.1699  0.3709  0.1938
10440TIP3    H152811   6.774   4.360  16.034  1.5346 -1.0783 -1.4878
10440TIP3    H252812   6.770   4.340  16.184 -1.5438  1.3417 -1.1477
10441TIP3   OH252813   3.147   5.690   3.373  0.0398 -0.4126  0.2929
10441TIP3    H152814   3.129   5.638   3.451  0.5749 -2.9083 -1.1325
10441TIP3    H252815   3.243   5.690   3.366  0.1025  1.5126  0.6881
10442TIP3   OH252816   2.269   3.665  16.652 -0.1691  0.2534 -0.0982
10442TIP3    H152817   2.269   3.599  16.584 -1.5367 -0.6085  0.6898
10442TIP3    H252818   2.238   3.619  16.730  0.0153  1.5346  0.7609
10443TIP3   OH252819   0.422   4.282  10.860  0.2694  0.6015  0.4755
10443TIP3    H152820   0.379   4.321  10.785 -0.3427 -2.1326 -0.6989
10443TIP3    H252821   0.509   4.321  10.861 -0.5888  2.6545  0.0263
10444TIP3   OH252822   5.932   5.775   4.947  0.0940 -0.1182  0.1546
10444TIP3    H152823   5.879   5.844   4.907 -0.1600 -0.0995  0.5220
10444TIP3    H252824   5.986   5.820   5.011 -2.7528 -0.6476  3.2030
10445TIP3   OH252825   0.415   2.282  14.857 -0.5547 -0.0503 -0.5095
10445TIP3    H152826   0.350   2.259  14.924  0.2035  0.1159  0.3164
10445TIP3    H252827   0.428   2.376  14.869 -0.9467  0.1220 -1.3980
10446TIP3   OH252828   5.890   2.352  12.382  0.6279  0.2282 -0.4123
10446TIP3    H152829   5.797   2.353  12.359  0.8342 -2.5451 -1.8457
10446TIP3    H252830   5.892   2.385  12.472 -1.8075 -0.0412 -0.1813
10447TIP3   OH252831   4.220   4.960  16.879 -0.0926  0.2314 -0.4273
10447TIP3    H152832   4.271   5.014  16.939 -1.2305 -0.3678  1.1349
10447TIP3    H252833   4.130   4.969  16.909 -0.3118 -2.6036 -0.0200
10448TIP3   OH252834   1.020   5.616  10.345  0.1008 -0.2365 -0.0475
10448TIP3    H152835   1.034   5.573  10.429  0.7040  0.3649  0.1624
10448TIP3    H252836   1.100   5.666  10.329 -0.3263  0.2904 -0.6007
10449TIP3   OH252837   6.456   4.289  14.810 -0.0915  0.0038 -0.3615
10449TIP3    H152838   6.479   4.376  14.776  1.7452 -0.8329 -1.3944
10449TIP3    H252839   6.530   4.264  14.865  0.0574 -1.4616 -1.1796
10450TIP3   OH252840   2.118   6.646  12.693 -0.6730 -0.1437  0.0724
10450TIP3    H152841   2.156   6.651  12.606  0.0082 -0.3646  0.3550
10450TIP3    H252842   2.025   6.627  12.678 -0.2296 -1.9450 -0.5576
10451TIP3   OH252843   6.205   3.917   2.111 -0.3703 -0.2128 -0.6045
10451TIP3    H152844   6.283   3.959   2.148  0.6188 -0.3282 -2.4493
10451TIP3    H252845   6.227   3.824   2.106 -0.1653 -0.1107 -2.1188
10452TIP3   OH252846   2.768   0.573   3.635  0.8283  0.4469  0.0149
10452TIP3    H152847   2.851   0.559   3.588  1.3602  0.7592  0.8235
10452TIP3    H252848   2.756   0.668   3.634 -0.4425  0.3079 -1.5957
10453TIP3   OH252849   6.273   1.970  13.101  0.4531 -0.0269 -0.0827
10453TIP3    H152850   6.358   1.930  13.117  0.5434  0.3146  0.2965
10453TIP3    H252851   6.264   2.037  13.169 -0.4637 -0.5899  0.3710
10454TIP3   OH252852   2.739   4.093   0.703  0.1010  0.4859 -0.1726
10454TIP3    H152853   2.720   4.071   0.612 -2.1954 -0.7278  0.5383
10454TIP3    H252854   2.654   4.092   0.747  1.0717  1.6199  1.8933
10455TIP3   OH252855   3.388   0.150   3.405  0.2252  0.2427 -0.0610
10455TIP3    H152856   3.394   0.232   3.455  0.2337 -0.0370  0.4050
10455TIP3    H252857   3.454   0.159   3.336  1.5595 -0.1253  1.1068
10456TIP3   OH252858   2.948   0.665   0.685  0.3680 -0.4426 -0.1038
10456TIP3    H152859   3.015   0.734   0.690  0.5659 -0.6541  0.2250
10456TIP3    H252860   2.976   0.610   0.612  0.8248 -0.8055  0.3365
10457TIP3   OH252861   1.053   5.322   6.162  0.5409 -0.6142 -0.3917
10457TIP3    H152862   0.995   5.247   6.155 -0.8107  0.2997  0.5126
10457TIP3    H252863   1.039   5.355   6.251  2.0592 -0.0411 -0.3394
10458TIP3   OH252864   4.859   3.565   4.218  0.3328 -0.3866  0.0702
10458TIP3    H152865   4.838   3.472   4.230 -2.2684 -0.0028 -0.7629
10458TIP3    H252866   4.930   3.565   4.154  1.2847 -1.8201  1.0775
10459TIP3   OH252867   0.402   2.842   2.136  0.2915 -0.0934 -0.4034
10459TIP3    H152868   0.349   2.878   2.207  1.2790 -1.0987  0.9070
10459TIP3    H252869   0.359   2.759   2.113  2.2770 -1.9863  2.1103
10460TIP3   OH252870   1.235   4.106   6.403 -0.9838  1.1159  0.1284
10460TIP3    H152871   1.199   4.133   6.488 -0.8322 -1.5986  1.1495
10460TIP3    H252872   1.162   4.059   6.361 -0.3002  0.2507 -0.1163
10461TIP3   OH252873   2.479   2.490   2.793  0.5024  0.0340 -0.1987
10461TIP3    H152874   2.433   2.562   2.837  0.5674 -0.4927  0.7609
10461TIP3    H252875   2.420   2.415   2.801  1.4131 -0.6040  0.8976
10462TIP3   OH252876   2.744   1.048  16.404  0.4104 -0.2430  0.3453
10462TIP3    H152877   2.716   1.105  16.332  0.6484 -0.9319 -0.3201
10462TIP3    H252878   2.679   1.061  16.472 -0.0768  0.1015 -0.1737
10463TIP3   OH252879   3.535   1.105  13.472  0.3719 -0.2462 -0.0406
10463TIP3    H152880   3.502   1.160  13.543 -0.2346 -0.8585  0.1689
10463TIP3    H252881   3.586   1.037  13.516  1.0015  0.0703 -0.2836
10464TIP3   OH252882   1.796   6.207   3.875  0.0066 -0.0656  0.0941
10464TIP3    H152883   1.868   6.236   3.931  1.8989 -0.4484 -1.9881
10464TIP3    H252884   1.821   6.119   3.847 -0.1104  0.5968 -2.3959
10465TIP3   OH252885   2.582   4.102  12.568 -0.1845 -0.0396 -0.2255
10465TIP3    H152886   2.539   4.184  12.591 -0.5466 -0.5861  1.2177
10465TIP3    H252887   2.656   4.127  12.514  0.1336  1.3147  0.7794
10466TIP3   OH252888   1.192   0.337  15.663  0.0395  0.6512 -0.3098
10466TIP3    H152889   1.188   0.431  15.646 -1.5527  0.9623  1.4243
10466TIP3    H252890   1.111   0.303  15.625 -0.5428  0.4054  1.0697
10467TIP3   OH252891   0.329   5.348  16.245  0.1335  0.0303 -0.1284
10467TIP3    H152892   0.387   5.421  16.266 -0.4605  0.2095  0.9384
10467TIP3    H252893   0.286   5.373  16.163 -1.0396  1.4821  0.8827
10468TIP3   OH252894   0.939   6.018   1.952 -0.5669  0.1544 -0.6574
10468TIP3    H152895   0.924   6.010   2.046  1.0093  0.3054 -0.3680
10468TIP3    H252896   0.983   5.937   1.927 -0.0726  0.5408 -1.0636
10469TIP3   OH252897   6.297   6.490   2.355 -0.2187 -0.8293  0.3699
10469TIP3    H152898   6.288   6.565   2.415 -2.3173 -1.7640  1.3278
10469TIP3    H252899   6.382   6.503   2.313  0.1421  1.2849  1.6008
10470TIP3   OH252900   1.395   6.492  12.321 -0.2787  0.4437  0.4686
10470TIP3    H152901   1.443   6.575  12.328 -1.5363  1.4329 -1.6719
10470TIP3    H252902   1.303   6.517  12.321 -0.8584 -1.3036  2.9867
10471TIP3   OH252903   5.932   0.508  15.012  0.5142  0.2914  0.1538
10471TIP3    H152904   5.980   0.588  14.990 -0.0694  1.5414  2.9641
10471TIP3    H252905   5.952   0.493  15.104 -2.4784 -0.5547  0.7659
10472TIP3   OH252906   6.496   4.740   1.359  0.2230  0.4505 -0.2435
10472TIP3    H152907   6.428   4.749   1.292  0.4696 -2.6896 -1.0930
10472TIP3    H252908   6.447   4.733   1.441 -0.4125 -0.2315 -0.6629
10473TIP3   OH252909   2.748   5.374  13.212 -0.1394 -0.3099  0.3034
10473TIP3    H152910   2.783   5.286  13.222 -1.8321 -1.0941 -0.3626
10473TIP3    H252911   2.711   5.395  13.298  1.6738  0.4571  0.9594
10474TIP3   OH252912   6.049   1.633   5.469 -0.3698 -0.1198  0.4547
10474TIP3    H152913   6.119   1.697   5.480  0.9477 -1.7507  2.4397
10474TIP3    H252914   5.968   1.682   5.485  0.3889  1.5438 -0.6170
10475TIP3   OH252915   2.455   4.487   4.054  0.1617  0.1985  0.2466
10475TIP3    H152916   2.455   4.577   4.024 -0.9734 -0.0698 -0.6204
10475TIP3    H252917   2.428   4.436   3.978  0.9235 -0.8947  0.6793
10476TIP3   OH252918   2.830   6.521   2.610 -0.0805  0.3881 -0.4207
10476TIP3    H152919   2.738   6.506   2.629 -0.9108  3.5974 -1.3671
10476TIP3    H252920   2.866   6.560   2.690 -0.6953  3.0625 -1.3447
10477TIP3   OH252921   5.271   3.465   2.527 -0.0333  0.9509 -0.1553
10477TIP3    H152922   5.211   3.457   2.601 -0.9401  0.5823 -0.8953
10477TIP3    H252923   5.358   3.466   2.566 -0.3436 -1.5188  0.8074
10478TIP3   OH252924   4.550   5.054  11.644 -0.3942 -0.0391 -0.1313
10478TIP3    H152925   4.552   5.091  11.733  0.6544  0.3913 -0.3181
10478TIP3    H252926   4.556   5.131  11.587 -0.6701 -0.3416 -0.5672
10479TIP3   OH252927   6.622   0.635   1.057  0.2777  0.5872 -0.0561
10479TIP3    H152928   6.562   0.682   0.998  0.7555  2.2251  0.7009
10479TIP3    H252929   6.571   0.560   1.086 -0.0094 -0.2514 -2.4523
10480TIP3   OH252930   3.831   3.058   3.954 -0.3615  0.4875 -0.4943
10480TIP3    H152931   3.774   3.035   3.881  1.8406 -2.3909 -1.5010
10480TIP3    H252932   3.798   3.008   4.028 -0.0677 -0.0099 -0.6921
10481TIP3   OH252933   0.107   2.356   4.714 -0.6692 -0.3367 -0.0715
10481TIP3    H152934   0.080   2.419   4.781  0.5620  1.1544 -0.9036
10481TIP3    H252935   0.076   2.394   4.632 -0.6038 -1.2381 -0.5291
10482TIP3   OH252936   4.059   4.757   4.308 -0.0939  0.3577  0.8021
10482TIP3    H152937   4.105   4.840   4.321  0.4447  0.0676  0.7901
10482TIP3    H252938   4.107   4.715   4.237 -0.8967  0.4148  0.2094
10483TIP3   OH252939   1.486   5.590   2.581 -0.1639  0.4749 -0.2094
10483TIP3    H152940   1.574   5.621   2.601 -0.5392  1.0018  0.7110
10483TIP3    H252941   1.468   5.523   2.648 -1.9411  3.1902  2.3209
10484TIP3   OH252942   4.746   4.632  11.814 -0.2093  0.7377 -0.2363
10484TIP3    H152943   4.698   4.715  11.808 -0.6392  0.4176 -1.5088
10484TIP3    H252944   4.768   4.610  11.724 -1.8762 -1.5381 -0.1681
10485TIP3   OH252945   1.633   6.342   2.285 -0.0853  0.0314 -0.4590
10485TIP3    H152946   1.635   6.434   2.312 -0.6296  0.3102 -1.3172
10485TIP3    H252947   1.597   6.296   2.361 -0.3304  0.6105 -0.2147
10486TIP3   OH252948   2.357   3.537   4.066  0.2548 -0.3326  0.3141
10486TIP3    H152949   2.277   3.510   4.112  1.1287 -1.4550  1.2446
10486TIP3    H252950   2.327   3.565   3.980 -1.1908 -0.2598  0.8074
10487TIP3   OH252951   1.901   2.766  12.133  0.3832 -0.2040 -0.2428
10487TIP3    H152952   1.881   2.737  12.043  1.4253  1.0338 -0.8973
10487TIP3    H252953   1.994   2.786  12.132  0.4029 -0.1301  1.1298
10488TIP3   OH252954   0.093   3.590  12.172 -0.6815  0.1950  0.2871
10488TIP3    H152955   0.174   3.635  12.194 -1.2428  0.9119  0.9327
10488TIP3    H252956   0.082   3.604  12.078  0.1827 -0.3167  0.1000
10489TIP3   OH252957   2.291   6.494   3.550  0.2306 -0.4602 -0.2230
10489TIP3    H152958   2.327   6.574   3.590  0.0625  0.7565 -2.3596
10489TIP3    H252959   2.259   6.443   3.624  0.4435  1.4116  1.2370
10490TIP3   OH252960   3.721   1.763   3.614  0.3666  0.0755  0.1897
10490TIP3    H152961   3.664   1.822   3.564  2.4024  0.9948 -1.1902
10490TIP3    H252962   3.671   1.742   3.693 -1.4569  1.5976 -0.4894
10491TIP3   OH252963   4.491   2.874   3.184  0.3141 -1.0426 -0.0284
10491TIP3    H152964   4.549   2.864   3.259  1.7727 -0.1478 -0.9982
10491TIP3    H252965   4.514   2.801   3.126  0.8974 -0.3602 -0.6721
10492TIP3   OH252966   4.082   0.294   2.137  0.0515 -0.1127 -0.1124
10492TIP3    H152967   4.042   0.378   2.114 -0.9770 -0.5163  0.1390
10492TIP3    H252968   4.117   0.307   2.225 -0.3386 -0.0220  0.0320
10493TIP3   OH252969   0.003   5.509  13.377  0.1295 -0.3051 -0.4976
10493TIP3    H152970  -0.053   5.574  13.333  1.1859 -0.0094 -1.4606
10493TIP3    H252971  -0.039   5.425  13.358 -1.3298  0.0670  0.8832
10494TIP3   OH252972   2.987   6.241  13.381  0.1589  0.1493 -0.0983
10494TIP3    H152973   2.948   6.153  13.391  1.7750 -0.5177  0.7483
10494TIP3    H252974   2.958   6.288  13.459  0.4099 -0.0851  0.1378
10495TIP3   OH252975   2.901   0.658   1.300 -0.0426 -0.4601 -0.1064
10495TIP3    H152976   2.943   0.590   1.249  0.8322 -0.7617  0.9677
10495TIP3    H252977   2.972   0.717   1.325 -0.3436 -0.5783  1.1235
10496TIP3   OH252978   1.307   5.520  14.906 -0.2266  0.7893 -0.6385
10496TIP3    H152979   1.278   5.439  14.864 -0.1890  1.1802 -1.4439
10496TIP3    H252980   1.294   5.588  14.839  0.1400  1.3823 -0.1248
10497TIP3   OH252981   4.562   6.767  13.696  0.2377  0.4189  0.1647
10497TIP3    H152982   4.534   6.729  13.780 -0.1083 -1.5402 -0.7828
10497TIP3    H252983   4.657   6.753  13.694  0.2102  0.2374  0.1216
10498TIP3   OH252984   1.589   0.637  14.230 -0.2493  0.1542 -0.4441
10498TIP3    H152985   1.651   0.699  14.190  1.3810 -1.1429 -0.0204
10498TIP3    H252986   1.514   0.638  14.170 -0.3223  2.5459 -0.4271
10499TIP3   OH252987   2.861   0.692   6.002  0.5210  0.4174  0.4386
10499TIP3    H152988   2.850   0.743   6.082  0.7972  1.4004 -0.1262
10499TIP3    H252989   2.954   0.697   5.983  0.3627  0.7288 -0.2826
10500TIP3   OH252990   3.000   1.842   2.232  0.4413 -0.5667  0.2302
10500TIP3    H152991   3.049   1.790   2.296 -0.7557 -0.2950  1.4198
10500TIP3    H252992   2.987   1.926   2.275 -2.7914 -1.2815  0.8698
10501TIP3   OH252993   4.102   1.528   5.201 -0.1131  0.9003 -0.5091
10501TIP3    H152994   4.099   1.515   5.296 -0.1338  3.2854 -0.1435
10501TIP3    H252995   4.067   1.446   5.165  0.0572 -0.1201  1.5160
10502TIP3   OH252996   5.021   4.734   6.198  0.2653 -0.8632 -0.5033
10502TIP3    H152997   4.998   4.644   6.222 -0.3895 -0.3342  1.0167
10502TIP3    H252998   5.061   4.770   6.278 -2.7627  1.2659  0.2401
10503TIP3   OH252999   2.822   3.966  13.922 -0.3804 -0.2822 -0.0492
10503TIP3    H153000   2.729   3.960  13.899 -0.3370  0.2825 -0.3713
10503TIP3    H253001   2.864   3.898  13.870 -0.8391 -1.7529  1.3835
10504TIP3   OH253002   6.730   1.008   1.524 -0.3300  0.2241 -0.1579
10504TIP3    H153003   6.653   1.041   1.570 -0.0512  1.4928 -0.5705
10504TIP3    H253004   6.709   0.916   1.506 -1.7347  0.5389 -0.2308
10505TIP3   OH253005   3.326   5.324   2.246 -0.1569  0.1543  0.5081
10505TIP3    H153006   3.359   5.409   2.274  0.3294  0.5756 -1.2257
10505TIP3    H253007   3.358   5.314   2.156 -1.6373 -1.1012  0.0743
10506TIP3   OH253008   4.868   6.786   4.635  0.0096 -0.7217 -0.2563
10506TIP3    H153009   4.820   6.796   4.717 -1.2374 -1.9192 -0.8014
10506TIP3    H253010   4.801   6.791   4.567  0.8494 -1.0264 -1.1370
10507TIP3   OH253011   2.668   1.769   0.790 -0.1475  0.3217 -0.4612
10507TIP3    H153012   2.753   1.767   0.835 -0.4155  0.3455  0.0605
10507TIP3    H253013   2.647   1.677   0.774 -0.1342  0.3010 -0.3655
10508TIP3   OH253014   6.041   3.763  13.628  0.5348 -0.4661 -0.2195
10508TIP3    H153015   6.024   3.779  13.721 -0.5397  1.9588 -0.7687
10508TIP3    H253016   5.977   3.696  13.603 -1.2317  1.0239  0.1359
10509TIP3   OH253017   6.151   5.885  14.133  0.0625  0.0652 -0.1723
10509TIP3    H153018   6.153   5.980  14.125 -1.1441  0.0305 -1.4080
10509TIP3    H253019   6.141   5.868  14.226  0.6921  1.1293  0.1042
10510TIP3   OH253020   6.559   6.271   2.398  0.1732  0.3963 -0.5148
10510TIP3    H153021   6.648   6.237   2.409 -0.4456 -0.9919  0.6227
10510TIP3    H253022   6.522   6.219   2.327 -0.1976 -0.0501  0.0032
10511TIP3   OH253023   3.677   1.749   4.291  0.1175  0.4126 -0.2236
10511TIP3    H153024   3.615   1.774   4.360  0.3681 -1.3510  0.6903
10511TIP3    H253025   3.625   1.698   4.229  0.5622 -0.8865  0.4341
10512TIP3   OH253026   6.453   5.910   3.265  0.1321  0.0773  2.0696
10512TIP3    H153027   6.491   5.909   3.177 -0.4768  0.7576  1.7872
10512TIP3    H253028   6.459   6.001   3.293 -2.1192  0.4152  1.6294
10513TIP3   OH253029   0.779   1.372   3.952  0.2467  0.0041 -0.5723
10513TIP3    H153030   0.818   1.305   4.008 -0.2949  0.7804  0.7939
10513TIP3    H253031   0.811   1.352   3.864  1.1665 -1.2300  0.0142
10514TIP3   OH253032   2.441   4.192   5.596  0.6287  0.0895  0.2999
10514TIP3    H153033   2.484   4.250   5.533 -0.1145  0.3636  0.0275
10514TIP3    H253034   2.365   4.242   5.626  0.5253 -0.3627  0.8000
10515TIP3   OH253035   3.960   6.088   3.517 -0.2726 -0.0885 -0.0156
10515TIP3    H153036   4.053   6.085   3.493 -0.2417  0.8395 -0.0544
10515TIP3    H253037   3.918   6.137   3.447 -0.7394 -0.2028  0.1762
10516TIP3   OH253038   0.174   5.430   2.576 -0.2505 -0.2989 -0.3051
10516TIP3    H153039   0.200   5.377   2.651 -0.5069 -0.0101 -0.0033
10516TIP3    H253040   0.078   5.423   2.574 -0.1179 -2.0711 -1.9435
10517TIP3   OH253041   5.045   1.093   4.160 -0.2139 -0.1405  0.0573
10517TIP3    H153042   4.995   1.012   4.150 -1.0685  0.6030 -2.4213
10517TIP3    H253043   5.106   1.093   4.087  0.2236  1.1673  0.3913
10518TIP3   OH253044   4.780   6.426   0.068 -0.1175 -0.8521  0.1219
10518TIP3    H153045   4.863   6.462   0.034  0.0668 -0.2799  1.1001
10518TIP3    H253046   4.807   6.356   0.128 -0.3185 -0.5706  0.5528
10519TIP3   OH253047   5.558   2.479   3.483 -0.2715  0.4178 -0.3677
10519TIP3    H153048   5.489   2.531   3.523  0.2464  0.3576  0.6393
10519TIP3    H253049   5.564   2.401   3.538  1.4676  1.0173  0.3728
10520TIP3   OH253050   1.569   4.408  10.669 -0.0636 -0.2221  0.2379
10520TIP3    H153051   1.607   4.489  10.633 -0.1204  0.0005  0.6787
10520TIP3    H253052   1.639   4.370  10.721 -0.5096  0.3091  1.2420
10521TIP3   OH253053   5.345   1.215   4.120 -0.1823  0.0884  0.0954
10521TIP3    H153054   5.298   1.299   4.121  1.9375  1.3292  1.0890
10521TIP3    H253055   5.360   1.197   4.027 -0.8765  0.6738 -0.1358
10522TIP3   OH253056   3.602   0.094  17.128 -0.0800 -0.4113  0.7312
10522TIP3    H153057   3.696   0.076  17.123 -0.2036 -0.7215 -1.7752
10522TIP3    H253058   3.596   0.179  17.171  1.2535 -0.9329  2.0296
10523TIP3   OH253059   1.247   5.757  16.155  0.0518 -0.2714  0.3003
10523TIP3    H153060   1.161   5.726  16.184 -0.1670 -0.4621 -0.5129
10523TIP3    H253061   1.246   5.851  16.173 -0.7913 -0.0535 -0.7621
10524TIP3   OH253062   6.381   2.459   1.438 -0.3793 -0.7600  0.2729
10524TIP3    H153063   6.288   2.446   1.455 -0.2995 -0.1473  1.2898
10524TIP3    H253064   6.417   2.370   1.431 -1.2880 -1.0135 -1.8253
10525TIP3   OH253065   0.141   1.030  16.185 -0.2252 -0.2458 -0.0260
10525TIP3    H153066   0.051   1.062  16.176 -1.0594 -2.4729 -0.2636
10525TIP3    H253067   0.188   1.073  16.114 -1.6768 -0.8189 -1.4125
10526TIP3   OH253068   3.862   3.027  14.009 -0.5337  0.1460  0.2421
10526TIP3    H153069   3.945   2.982  13.998  0.6127  2.0778  0.5557
10526TIP3    H253070   3.838   3.056  13.920 -0.3485  0.4408  0.2861
10527TIP3   OH253071   3.816   0.838   3.978 -0.7552 -0.3713 -0.4292
10527TIP3    H153072   3.787   0.747   3.971 -1.2792 -0.2598  0.2026
10527TIP3    H253073   3.846   0.861   3.890 -1.5901 -0.8268 -0.8367
10528TIP3   OH253074   4.858   0.726  14.657  0.1012  0.3709 -0.4328
10528TIP3    H153075   4.849   0.820  14.647  0.0335  0.3185 -0.8926
10528TIP3    H253076   4.937   0.703  14.609  1.2555  0.4512  1.3445
10529TIP3   OH253077   1.517   1.539  14.794 -0.6152  0.3838 -0.2852
10529TIP3    H153078   1.505   1.615  14.852  0.2216  0.9479 -0.8291
10529TIP3    H253079   1.582   1.485  14.839 -0.1317  0.7113 -0.5859
10530TIP3   OH253080   2.016   3.731  11.290  0.2385 -0.2586  0.0709
10530TIP3    H153081   2.041   3.811  11.245  0.9123 -1.1143 -1.1388
10530TIP3    H253082   1.943   3.757  11.346 -0.0358  1.0473 -0.8418
10531TIP3   OH253083   3.091   4.722   5.617  1.1877  0.6982 -0.6037
10531TIP3    H153084   3.163   4.768   5.660 -0.5606  1.2368  1.9898
10531TIP3    H253085   3.039   4.685   5.689 -0.6616 -0.4037 -2.3757
10532TIP3   OH253086   0.382   2.886  14.334  0.1790  0.7082 -0.1195
10532TIP3    H153087   0.422   2.814  14.382 -0.2455  0.2240 -0.4767
10532TIP3    H253088   0.448   2.956  14.336 -0.0264  0.8913  1.5673
10533TIP3   OH253089   0.022   6.271   6.039  0.4223 -0.3986  0.0717
10533TIP3    H153090  -0.041   6.224   6.094 -0.3735  0.6793  0.1035
10533TIP3    H253091   0.097   6.212   6.034 -0.1311 -1.2162  0.9713
10534TIP3   OH253092   0.888   4.654  13.752 -0.7305  0.0415 -1.2077
10534TIP3    H153093   0.978   4.621  13.746 -0.6754  0.1383 -0.9510
10534TIP3    H253094   0.897   4.749  13.752 -0.5012  0.1784  2.3560
10535TIP3   OH253095   2.524   6.032  15.232 -0.5397  0.1599  0.7090
10535TIP3    H153096   2.463   6.032  15.158  0.1596 -0.6013  0.1102
10535TIP3    H253097   2.601   6.079  15.199 -0.0076 -0.6639  0.7407
10536TIP3   OH253098   3.951   2.234  15.961  0.1251  0.1393 -0.2079
10536TIP3    H153099   4.029   2.197  16.002  0.2111  0.1574 -0.3545
10536TIP3    H253100   3.933   2.176  15.887 -0.8577 -0.7233  0.6734
10537TIP3   OH253101   4.677   4.693  14.830 -0.5588 -0.3521 -0.2998
10537TIP3    H153102   4.587   4.720  14.848 -0.9075 -1.0559 -0.9123
10537TIP3    H253103   4.668   4.628  14.760  0.4174 -0.5100 -0.2828
10538TIP3   OH253104   1.272   1.563  13.850  0.1660  0.9985  0.0322
10538TIP3    H153105   1.205   1.495  13.859 -0.1297  0.9505 -2.0940
10538TIP3    H253106   1.340   1.522  13.796  0.6008  1.9607 -0.1626
10539TIP3   OH253107   0.819   5.763   5.946  0.0731 -0.5797 -0.1179
10539TIP3    H153108   0.843   5.793   5.858  1.1006  0.2494  0.4130
10539TIP3    H253109   0.904   5.749   5.990 -0.4225 -0.6407  0.8443
10540TIP3   OH253110   2.550   0.307  10.695 -0.3734 -0.0532 -0.5254
10540TIP3    H153111   2.602   0.372  10.649 -0.2580 -0.8027 -1.4774
10540TIP3    H253112   2.463   0.346  10.701  0.5123  1.8152  2.3106
10541TIP3   OH253113   2.778   0.208  12.700 -0.0827 -0.6104 -0.1967
10541TIP3    H153114   2.687   0.215  12.729  0.0728  0.5422  0.0472
10541TIP3    H253115   2.775   0.140  12.633 -1.2582 -0.1420 -0.6669
10542TIP3   OH253116   3.004   3.442   3.725  0.8851 -0.0395 -0.4148
10542TIP3    H153117   3.020   3.379   3.655  0.5464  0.1095 -0.6282
10542TIP3    H253118   3.007   3.390   3.805 -2.2481 -0.9145 -0.7402
10543TIP3   OH253119   0.678   1.450   6.405  0.4546  0.3184  0.0135
10543TIP3    H153120   0.765   1.479   6.375  0.0546 -0.5922 -2.2431
10543TIP3    H253121   0.618   1.480   6.337 -1.2181  1.7988  2.0167
10544TIP3   OH253122   1.105   3.781  12.218 -0.1242 -0.5034 -0.1713
10544TIP3    H153123   1.020   3.823  12.206 -0.8496 -2.0440 -0.7111
10544TIP3    H253124   1.166   3.834  12.167 -1.5090 -1.6387 -3.2441
10545TIP3   OH253125   4.064   3.018   3.799  0.2904 -0.2088 -0.3697
10545TIP3    H153126   4.133   2.975   3.849  0.5126  1.7931  1.1369
10545TIP3    H253127   3.988   3.018   3.857  0.5509  2.1339  0.0729
10546TIP3   OH253128   2.003   6.154  14.628 -0.2197  0.4306  0.2601
10546TIP3    H153129   2.072   6.149  14.694 -0.1784 -0.5296  0.1588
10546TIP3    H253130   2.033   6.098  14.557 -0.3373  1.3310 -0.5254
10547TIP3   OH253131   0.347   1.617   2.574  0.2403  0.0257 -1.1441
10547TIP3    H153132   0.362   1.539   2.627 -0.6152  1.6363  1.6610
10547TIP3    H253133   0.256   1.611   2.547  0.3085 -0.1558 -1.3385
10548TIP3   OH253134   0.151   4.043   2.306 -0.2534 -0.3502 -0.4979
10548TIP3    H153135   0.182   4.046   2.215 -0.1626  2.5114 -0.4505
10548TIP3    H253136   0.060   4.073   2.300 -0.3796 -0.5706  0.3185
10549TIP3   OH253137   0.239   2.820   3.066 -0.3498 -0.2230  0.2726
10549TIP3    H153138   0.189   2.760   3.121  0.3387 -1.9741 -0.9283
10549TIP3    H253139   0.223   2.790   2.976 -1.1698  2.3290 -0.5254
10550TIP3   OH253140   4.108   0.877  15.758 -0.1850  0.4083 -0.5023
10550TIP3    H153141   4.064   0.798  15.726  0.6541  0.1234 -0.9966
10550TIP3    H253142   4.155   0.848  15.836 -0.9360  0.7304  0.0738
10551TIP3   OH253143   0.573   3.656   1.216  0.3565  0.2585 -0.1413
10551TIP3    H153144   0.615   3.576   1.247 -0.3050 -0.5847 -1.3470
10551TIP3    H253145   0.598   3.722   1.280 -1.5336 -1.4965  2.6067
10552TIP3   OH253146   5.138   3.971   5.523 -0.0754 -0.2894 -0.2877
10552TIP3    H153147   5.103   3.882   5.527 -2.9784  0.6507 -1.6538
10552TIP3    H253148   5.165   3.990   5.613 -2.8179 -1.3753  0.8990
10553TIP3   OH253149   4.604   5.396  15.871 -0.0447  0.4149  0.1155
10553TIP3    H153150   4.624   5.487  15.851  0.5660  0.3222  0.3042
10553TIP3    H253151   4.670   5.345  15.825 -0.0758  0.0872  0.4208
10554TIP3   OH253152   1.164   6.463   5.053 -0.5292 -0.3174  0.1009
10554TIP3    H153153   1.172   6.438   5.145 -0.4740  0.7367  0.3920
10554TIP3    H253154   1.245   6.432   5.012 -0.6742 -1.0279  0.3429
10555TIP3   OH253155   3.339   0.820   1.728  0.1654  0.4653  0.1586
10555TIP3    H153156   3.368   0.745   1.779 -0.7892 -0.4692 -0.6367
10555TIP3    H253157   3.292   0.875   1.791 -1.1629 -0.7638  0.2862
10556TIP3   OH253158   4.124   4.499   1.979  0.6114  0.2489  0.1642
10556TIP3    H153159   4.117   4.591   1.954  2.4265 -0.3461 -2.9807
10556TIP3    H253160   4.190   4.498   2.048  0.7069  1.2802  0.1018
10557TIP3   OH253161   2.969   6.602   5.744  0.2312  0.3791 -0.2855
10557TIP3    H153162   2.893   6.626   5.797 -0.1894 -0.5830 -0.4262
10557TIP3    H253163   3.043   6.607   5.804 -0.2237 -0.5691  0.3700
10558TIP3   OH253164   0.235   5.825   4.323 -0.1626  0.0716  0.1089
10558TIP3    H153165   0.163   5.842   4.262  0.2180  0.2860 -0.2800
10558TIP3    H253166   0.231   5.899   4.384  0.0070  0.3168 -0.1765
10559TIP3   OH253167   1.702   4.474   3.143 -0.0209  0.6565  0.2062
10559TIP3    H153168   1.620   4.491   3.096 -0.4949  2.5949  1.6165
10559TIP3    H253169   1.769   4.476   3.075 -0.8897  1.4207 -0.6659
10560TIP3   OH253170   3.082   6.723  15.212 -0.5854 -0.0288 -0.5231
10560TIP3    H153171   3.124   6.657  15.158 -1.6514 -0.5737 -0.7218
10560TIP3    H253172   3.107   6.701  15.302  0.6565  0.4923 -0.7173
10561TIP3   OH253173   2.294   4.694  16.682  0.5329 -0.8988 -0.3187
10561TIP3    H153174   2.243   4.684  16.762 -0.2776 -0.3325 -0.7455
10561TIP3    H253175   2.230   4.722  16.616  1.2176 -1.1528 -1.1157
10562TIP3   OH253176   4.215   4.033   3.227 -0.0922 -0.0105  0.6019
10562TIP3    H153177   4.240   4.098   3.162 -2.4022  0.0815 -0.3074
10562TIP3    H253178   4.265   3.954   3.204  0.5480  0.5850 -0.0930
10563TIP3   OH253179   3.287   6.674   2.493  0.1967  0.5450  0.5521
10563TIP3    H153180   3.382   6.678   2.502  0.2994 -1.0390  0.4792
10563TIP3    H253181   3.255   6.655   2.581  0.1556 -1.2877  0.1760
10564TIP3   OH253182   0.150   0.153  12.818 -0.2859  1.1702  0.2678
10564TIP3    H153183   0.121   0.124  12.904 -2.3086  1.1716 -0.3506
10564TIP3    H253184   0.092   0.227  12.797  0.9934  1.9757 -0.5891
10565TIP3   OH253185   4.192   3.235   3.659  0.2611  0.2470 -0.3952
10565TIP3    H153186   4.151   3.149   3.670  0.4050  0.3223  0.9236
10565TIP3    H253187   4.147   3.292   3.722 -0.9362  1.5816 -2.3476
10566TIP3   OH253188   2.531   3.029   0.280 -0.4099  0.1313  0.2293
10566TIP3    H153189   2.467   3.009   0.348  1.2129 -1.5297  1.3490
10566TIP3    H253190   2.612   2.986   0.308  1.9602  3.9842  0.0527
10567TIP3   OH253191   2.707   6.013   5.715  0.3457  0.3431 -0.1228
10567TIP3    H153192   2.673   6.062   5.640 -0.0881  1.6345  0.8776
10567TIP3    H253193   2.638   5.950   5.735  1.1023 -1.0593 -1.7027
10568TIP3   OH253194   1.558   3.427   4.110  0.1056  0.1613 -0.4584
10568TIP3    H153195   1.562   3.494   4.041 -1.1776  0.2995 -0.4234
10568TIP3    H253196   1.593   3.471   4.188 -1.4417  1.0675 -0.2432
10569TIP3   OH253197   1.358   6.814  14.964 -0.1017  0.3240 -0.6400
10569TIP3    H153198   1.430   6.857  14.918  0.4627 -1.3813 -1.4457
10569TIP3    H253199   1.295   6.884  14.981  2.1411  2.0888  1.0067
10570TIP3   OH253200   4.898   6.086  10.818  0.0884 -0.1720 -0.2512
10570TIP3    H153201   4.837   6.015  10.799 -0.9620  0.7335 -0.3357
10570TIP3    H253202   4.904   6.135  10.736  0.8496 -0.1854 -0.2113
10571TIP3   OH253203   5.796   2.756  17.009  0.0904  0.4996 -0.2794
10571TIP3    H153204   5.715   2.784  17.052  1.1139  2.0232  0.7534
10571TIP3    H253205   5.796   2.801  16.925 -0.0684  0.6084 -0.2213
10572TIP3   OH253206   4.629   6.705  15.511 -0.1579  0.1297  0.2965
10572TIP3    H153207   4.658   6.766  15.443  0.3738  0.5372  0.8781
10572TIP3    H253208   4.571   6.758  15.566 -1.2718 -0.4225 -0.3038
10573TIP3   OH253209   4.972   1.120   5.066 -0.5651  1.0709  0.0086
10573TIP3    H153210   4.994   1.027   5.066 -0.7179  1.0219 -0.9216
10573TIP3    H253211   5.036   1.160   5.006 -2.1664  1.1111 -1.7889
10574TIP3   OH253212   4.223   6.329  14.139  0.4104 -0.3209 -0.4314
10574TIP3    H153213   4.260   6.387  14.072 -0.6723  0.8791 -0.0307
10574TIP3    H253214   4.246   6.241  14.110  1.6159  0.2714 -1.3635
10575TIP3   OH253215   5.855   3.783   4.050  0.2360  0.1107 -0.3478
10575TIP3    H153216   5.927   3.732   4.013  0.1274  0.2147 -0.7046
10575TIP3    H253217   5.776   3.738   4.021  0.1361 -1.1784  1.6676
10576TIP3   OH253218   6.078   5.982   3.725 -0.5081 -0.0623 -0.4075
10576TIP3    H153219   6.050   6.047   3.661  0.6650 -0.7326 -1.6643
10576TIP3    H253220   6.026   5.904   3.704  0.6320 -0.6136 -1.2808
10577TIP3   OH253221   2.734   4.746   6.627  0.2156  0.0902 -0.2954
10577TIP3    H153222   2.734   4.660   6.585  1.5128 -0.7285  1.2832
10577TIP3    H253223   2.822   4.780   6.611  0.8394 -0.3636  1.9426
10578TIP3   OH253224   1.949   1.726   5.977  0.1204  0.2069  0.4602
10578TIP3    H153225   1.929   1.651   6.032 -0.1394 -1.1639 -1.3853
10578TIP3    H253226   2.040   1.712   5.949  0.2724  0.9061  0.5867
10579TIP3   OH253227   2.149   6.239   4.635 -0.0391 -0.4638  0.2958
10579TIP3    H153228   2.241   6.250   4.656  0.0486 -1.2702  0.3742
10579TIP3    H253229   2.116   6.178   4.701 -0.7597  0.2299  0.5912
10580TIP3   OH253230   5.416   2.042  13.255  0.7745  0.2386 -0.0358
10580TIP3    H153231   5.506   2.076  13.260  2.0242 -2.5491 -1.0036
10580TIP3    H253232   5.410   1.981  13.329  0.6096 -1.4385 -1.3784
10581TIP3   OH253233   6.549   5.608   1.096 -0.5947  0.3210  0.2821
10581TIP3    H153234   6.588   5.687   1.134  0.5186  0.1101 -0.3834
10581TIP3    H253235   6.555   5.542   1.165  1.0429  0.0564 -0.0700
10582TIP3   OH253236   6.507   2.971  13.322  0.9360  0.2059 -0.1686
10582TIP3    H153237   6.551   2.903  13.270  1.7245 -1.8106  2.8987
10582TIP3    H253238   6.572   3.042  13.328  0.4674  0.9373 -2.5844
10583TIP3   OH253239   6.274   2.316  12.078 -0.1899  0.2152  0.0242
10583TIP3    H153240   6.368   2.301  12.083  0.0508  1.8268  2.0645
10583TIP3    H253241   6.265   2.394  12.024 -0.1976  0.8304  0.8821
10584TIP3   OH253242   3.368   6.825   0.530 -0.0378  0.4645  0.3036
10584TIP3    H153243   3.369   6.772   0.610 -1.1341 -1.2681 -0.7590
10584TIP3    H253244   3.421   6.902   0.552  0.5175 -0.4186  2.3609
10585TIP3   OH253245   5.298   0.034  16.309  0.5623  0.1774 -0.1313
10585TIP3    H153246   5.312   0.104  16.246  1.3257 -0.9408 -1.2755
10585TIP3    H253247   5.381  -0.014  16.310  0.9020  0.6409  2.4121
10586TIP3   OH253248   2.276   4.993  13.778 -0.4852  0.3200 -0.0907
10586TIP3    H153249   2.243   4.927  13.717  0.1288  0.5605 -0.6970
10586TIP3    H253250   2.199   5.043  13.804 -0.6604  0.6521 -1.2179
10587TIP3   OH253251   4.475   5.732   0.438  0.3946  0.1558 -0.2818
10587TIP3    H153252   4.565   5.701   0.449  0.3828 -0.3655 -1.5027
10587TIP3    H253253   4.482   5.828   0.439  0.8963  0.1175  0.0909
10588TIP3   OH253254   0.333   6.319  15.811  0.0467 -0.5267 -0.0570
10588TIP3    H153255   0.382   6.395  15.843 -0.9570  0.6052 -1.0971
10588TIP3    H253256   0.396   6.272  15.756  0.6345 -0.3834  0.4742
10589TIP3   OH253257   0.838   1.224  11.033 -0.1225  0.0260 -0.5148
10589TIP3    H153258   0.877   1.299  10.989  0.3409 -0.6220 -1.2286
10589TIP3    H253259   0.758   1.259  11.073  0.6540  1.1452  0.1230
10590TIP3   OH253260   0.006   4.102   2.686  0.0013  0.3615 -0.2644
10590TIP3    H153261   0.098   4.077   2.673 -0.0521  0.5070 -0.9947
10590TIP3    H253262  -0.040   4.062   2.611 -0.3552  1.2046 -0.5075
10591TIP3   OH253263   4.001   1.295  16.845  0.1027  0.4945 -0.4136
10591TIP3    H153264   4.038   1.351  16.777  0.7506  1.8820  1.0147
10591TIP3    H253265   4.072   1.233  16.865  0.0532  0.3402 -0.7041
10592TIP3   OH253266   2.780   0.653  16.797 -0.1682 -0.1242  0.5845
10592TIP3    H153267   2.764   0.741  16.761 -0.3407 -0.2926  0.2470
10592TIP3    H253268   2.729   0.595  16.741 -0.5928 -0.3737  1.2272
10593TIP3   OH253269   4.580   5.920  12.419 -0.2350 -0.0091  0.9029
10593TIP3    H153270   4.603   5.848  12.361 -1.6515 -1.6682  2.2807
10593TIP3    H253271   4.631   5.904  12.499  0.7624  1.5441  0.6218
10594TIP3   OH253272   6.425   3.192  13.072  0.1990  0.6961 -0.1400
10594TIP3    H153273   6.360   3.214  13.006  0.4961  0.5983 -0.4681
10594TIP3    H253274   6.393   3.233  13.152 -0.6705 -0.0145 -0.1136
10595TIP3   OH253275   0.578   0.873  15.516  0.0374  0.3634 -0.7019
10595TIP3    H153276   0.660   0.826  15.533 -0.8061 -1.3747 -1.2002
10595TIP3    H253277   0.563   0.862  15.423 -1.0452  0.1522 -0.5170
10596TIP3   OH253278   1.580   4.166   2.215  0.1830 -0.2675 -0.5510
10596TIP3    H153279   1.666   4.184   2.252 -0.2807 -0.5844  0.7312
10596TIP3    H253280   1.545   4.252   2.192 -0.5387  0.2680  2.1643
10597TIP3   OH253281   0.312   2.350  13.671  0.1753  0.3600  0.3236
10597TIP3    H153282   0.361   2.392  13.600 -0.4437 -1.0056 -0.9696
10597TIP3    H253283   0.373   2.347  13.745  0.9083  1.6204 -0.2061
10598TIP3   OH253284   3.147   1.460  13.040 -0.5828 -0.4593 -0.5581
10598TIP3    H153285   3.191   1.386  13.082  0.4737  1.0525  1.1557
10598TIP3    H253286   3.087   1.492  13.107  0.3760  1.3841 -0.5302
10599TIP3   OH253287   3.495   4.478   5.337 -0.3887 -0.3519  0.4978
10599TIP3    H153288   3.442   4.473   5.416 -1.7314  0.8859 -0.2721
10599TIP3    H253289   3.532   4.567   5.339 -1.7041  0.2752 -0.9967
10600TIP3   OH253290   5.299   5.870  16.678 -0.1651 -0.7853  0.0699
10600TIP3    H153291   5.301   5.785  16.634  1.4008 -0.5589 -0.3595
10600TIP3    H253292   5.237   5.922  16.626 -1.0124 -1.6008  0.2447
10601TIP3   OH253293   6.259   5.136  15.195  0.2612  0.3742  0.0327
10601TIP3    H153294   6.236   5.213  15.143 -0.2297  0.2436  0.0586
10601TIP3    H253295   6.176   5.103  15.227  0.4523 -0.3004 -0.1605
10602TIP3   OH253296   2.275   5.372   5.416  0.4726 -0.2701 -0.1208
10602TIP3    H153297   2.210   5.309   5.384  0.6081 -0.6516  0.3390
10602TIP3    H253298   2.281   5.354   5.509 -1.4931  2.2844  0.5871
10603TIP3   OH253299   1.369   2.229  13.951  0.0062  0.2105 -0.0613
10603TIP3    H153300   1.436   2.297  13.944 -0.4352  0.5906 -0.6850
10603TIP3    H253301   1.415   2.147  13.934  0.9068  0.1238  2.2985
10604TIP3   OH253302   6.656   6.595   6.108  0.2768 -0.4992 -0.1145
10604TIP3    H153303   6.608   6.525   6.152  0.6314 -0.7377 -0.1012
10604TIP3    H253304   6.671   6.562   6.019 -0.6481  0.0787 -0.5021
10605TIP3   OH253305   1.778   3.800   5.331 -0.4072 -0.0721 -0.7870
10605TIP3    H153306   1.800   3.747   5.253 -2.2144  0.5905 -1.8068
10605TIP3    H253307   1.758   3.735   5.398 -2.9164 -0.8075 -2.1108
10606TIP3   OH253308   3.631   2.857  16.595  0.9304  0.3958  0.0863
10606TIP3    H153309   3.604   2.765  16.594 -0.3268  0.6771  1.8875
10606TIP3    H253310   3.673   2.871  16.511 -1.1012 -1.1618 -1.2746
10607TIP3   OH253311   5.332   0.693   5.135  0.1413  0.0764 -0.3885
10607TIP3    H153312   5.292   0.613   5.103  1.2050 -0.4241 -0.4846
10607TIP3    H253313   5.384   0.666   5.211  1.1950  0.5199 -0.9298
10608TIP3   OH253314   2.757   1.600   1.407  0.3415  0.5002 -0.5493
10608TIP3    H153315   2.780   1.597   1.315  0.5573 -0.0697 -0.4829
10608TIP3    H253316   2.841   1.605   1.453  0.2174  1.2864 -0.3994
10609TIP3   OH253317   5.587   4.322   4.406 -0.3608  0.3269 -0.5111
10609TIP3    H153318   5.630   4.315   4.491  1.7047 -0.6712 -1.5722
10609TIP3    H253319   5.622   4.403   4.368  0.9747 -0.7011 -1.5489
10610TIP3   OH253320   3.656   4.040  12.987  0.1405 -0.7480  0.2552
10610TIP3    H153321   3.649   4.101  13.061  0.2304 -0.2672 -0.1263
10610TIP3    H253322   3.600   4.078  12.919 -0.7446 -1.7134  0.4172
10611TIP3   OH253323   2.238   0.608   5.789 -0.0323  0.1321  0.3356
10611TIP3    H153324   2.259   0.675   5.854  1.8287 -0.6844  0.6501
10611TIP3    H253325   2.315   0.607   5.731 -0.7206 -0.6502 -0.5882
10612TIP3   OH253326   6.270   3.973  12.532  0.1396 -0.2180  0.3409
10612TIP3    H153327   6.264   3.993  12.626  0.6234  0.8082  0.1609
10612TIP3    H253328   6.229   3.887  12.524  0.1885 -0.3687  1.5111
10613TIP3   OH253329   3.833   5.334   4.938  0.1963  0.8777 -0.7938
10613TIP3    H153330   3.849   5.405   4.874 -1.1122 -0.9621 -3.3332
10613TIP3    H253331   3.739   5.321   4.936  0.2593  0.0331  0.7745
10614TIP3   OH253332   2.982   3.022   5.413  0.3949  0.0064 -0.6351
10614TIP3    H153333   2.997   3.114   5.434 -0.5930 -0.3088  1.6743
10614TIP3    H253334   3.058   2.977   5.449  0.5290 -0.1782 -1.1362
10615TIP3   OH253335   3.291   5.828  13.830 -0.0443 -0.0090 -0.5158
10615TIP3    H153336   3.311   5.738  13.855  0.2809  0.4820  1.1501
10615TIP3    H253337   3.228   5.820  13.759 -1.2016 -1.5616  0.6063
10616TIP3   OH253338   1.732   4.611   5.450 -0.3033  0.5393  0.5355
10616TIP3    H153339   1.738   4.531   5.502 -0.8912  1.7842  2.5843
10616TIP3    H253340   1.681   4.672   5.503 -0.6847  1.9921 -1.3755
10617TIP3   OH253341   4.118   5.023   4.954  1.0526  0.2065  0.1327
10617TIP3    H153342   4.142   4.931   4.947 -0.5810 -0.7324  4.2851
10617TIP3    H253343   4.023   5.023   4.965  1.0046  2.4014  0.2137
10618TIP3   OH253344   2.289   6.782  11.624 -0.0378 -0.1141 -0.1826
10618TIP3    H153345   2.195   6.799  11.619 -0.0942 -0.1879  0.6390
10618TIP3    H253346   2.329   6.865  11.597 -0.3277  0.9253  2.3620
10619TIP3   OH253347   5.221   2.854   6.378  1.0736  0.2656  1.1584
10619TIP3    H153348   5.162   2.894   6.442 -0.4817 -0.3524  0.1585
10619TIP3    H253349   5.221   2.761   6.401 -1.4286 -0.4081 -1.0931
10620TIP3   OH253350   3.045   1.070   1.102  0.4561 -0.5200 -0.1965
10620TIP3    H153351   3.092   1.070   1.185 -0.4074  0.4434  0.3101
10620TIP3    H253352   3.113   1.056   1.036  1.7486  2.3522  0.3690
10621TIP3   OH253353   1.057   6.274   3.591 -0.2412 -0.3582 -0.7003
10621TIP3    H153354   1.076   6.298   3.500  2.2573  0.3052 -0.0855
10621TIP3    H253355   1.089   6.349   3.642 -0.7207 -1.1309  0.7815
10622TIP3   OH253356   3.330   0.453  13.409 -0.3329  0.1747  0.1280
10622TIP3    H153357   3.275   0.452  13.331 -0.4638  0.1895  0.2203
10622TIP3    H253358   3.300   0.379  13.461 -1.7032  1.3958  1.1700
10623TIP3   OH253359   2.388   0.297   0.259 -0.1722 -0.1428  0.3343
10623TIP3    H153360   2.335   0.220   0.238 -2.4142  1.1877  0.7508
10623TIP3    H253361   2.378   0.355   0.183 -0.0200  0.4948  0.7932
10624TIP3   OH253362   0.339   5.900   0.210  0.2446 -0.1208  0.5581
10624TIP3    H153363   0.422   5.857   0.230 -0.0066 -0.5712  0.6590
10624TIP3    H253364   0.277   5.861   0.272  0.2692  1.3396  1.5525
10625TIP3   OH253365   5.286   5.871   3.562  0.1011 -0.3582  0.8764
10625TIP3    H153366   5.249   5.958   3.550 -2.0697 -1.3681 -0.5329
10625TIP3    H253367   5.375   5.877   3.527 -0.1998  1.1609  0.3253
10626TIP3   OH253368   4.182   1.550  10.705  0.2542  0.0539  0.3968
10626TIP3    H153369   4.259   1.604  10.726  0.9492  0.0140 -1.8230
10626TIP3    H253370   4.218   1.475  10.659 -1.0369 -0.5878  0.4095
10627TIP3   OH253371   0.873   1.700   1.435  0.0612 -0.2797 -0.1561
10627TIP3    H153372   0.864   1.760   1.360  1.2206 -0.3293 -0.3495
10627TIP3    H253373   0.852   1.614   1.399  1.0759 -0.3720 -0.5531
10628TIP3   OH253374   3.018   1.465   4.887  0.8123 -0.3273 -0.2907
10628TIP3    H153375   3.017   1.425   4.800  2.5022  0.2148 -0.5954
10628TIP3    H253376   3.002   1.558   4.871 -0.9875 -0.5110  0.2143
10629TIP3   OH253377   4.029   6.723  15.041 -0.4535 -0.1719 -0.3780
10629TIP3    H153378   4.048   6.629  15.042 -0.0855 -0.1264 -1.5419
10629TIP3    H253379   3.942   6.730  15.003 -0.6275 -0.0542  0.0326
10630TIP3   OH253380   0.040   5.118   0.555  0.0135  0.6611 -0.2123
10630TIP3    H153381  -0.041   5.167   0.541 -0.6488 -0.8849 -2.4121
10630TIP3    H253382   0.108   5.186   0.564 -1.4640  1.9939  1.8446
10631TIP3   OH253383   2.170   1.409   4.916  0.5280 -0.2450  0.5600
10631TIP3    H153384   2.259   1.425   4.947  0.8919 -1.8259  0.4070
10631TIP3    H253385   2.170   1.440   4.826  1.8047 -2.7596 -0.3966
10632TIP3   OH253386   0.661   2.022   5.862 -0.3572  0.5433  0.0968
10632TIP3    H153387   0.727   1.976   5.809 -3.0176 -1.1010 -2.0808
10632TIP3    H253388   0.661   2.111   5.828 -0.4711  0.0845 -1.1507
10633TIP3   OH253389   2.908   3.366  10.913  0.4844  0.0664 -0.1287
10633TIP3    H153390   2.854   3.442  10.931 -1.9548 -1.6170  0.2125
10633TIP3    H253391   2.862   3.319  10.843  1.0219 -1.8644  0.7299
10634TIP3   OH253392   0.467   1.711   2.337 -0.3067  0.6634 -0.1996
10634TIP3    H153393   0.383   1.715   2.290 -0.7140 -2.4608  0.0151
10634TIP3    H253394   0.443   1.693   2.428  0.5854  0.7095  0.0499
10635TIP3   OH253395   4.181   0.753   2.755  0.4839  0.5431  0.6693
10635TIP3    H153396   4.090   0.775   2.736  0.2980 -0.3339  0.5364
10635TIP3    H253397   4.232   0.821   2.710  0.0193 -0.5888 -1.7043
10636TIP3   OH253398   4.968   1.226  16.753  0.0582 -0.0244  0.2177
10636TIP3    H153399   5.062   1.216  16.763 -0.0027 -0.5333  0.2662
10636TIP3    H253400   4.946   1.174  16.676 -0.4690 -1.5273  1.3428
10637TIP3   OH253401   0.299   2.164   4.910  0.7914 -0.3206 -0.7071
10637TIP3    H153402   0.262   2.141   4.825  0.0200 -1.6316 -0.0460
10637TIP3    H253403   0.268   2.095   4.969  1.7305  0.2847  0.5307
10638TIP3   OH253404   1.367   0.686   2.469  0.2971 -0.4237 -0.2723
10638TIP3    H153405   1.339   0.641   2.549 -0.6357 -1.8331 -1.3506
10638TIP3    H253406   1.417   0.761   2.501 -2.2829  0.6094  1.7045
10639TIP3   OH253407   3.549   1.670  12.640 -0.0821  0.7769 -1.0825
10639TIP3    H153408   3.546   1.709  12.728  0.6938 -2.4069  0.4907
10639TIP3    H253409   3.499   1.731  12.586 -0.1865  3.1396  1.4278
10640TIP3   OH253410   2.620   6.695  14.884 -0.0655  0.0299  0.1771
10640TIP3    H153411   2.654   6.633  14.948  0.5879  2.3722  2.2220
10640TIP3    H253412   2.527   6.673  14.877  0.3305 -1.7937  0.0153
10641TIP3   OH253413   1.517   0.806   3.463 -0.3040 -0.4400  0.0590
10641TIP3    H153414   1.462   0.789   3.387  1.1759  0.3304 -1.2446
10641TIP3    H253415   1.595   0.849   3.428 -0.0522  0.9924  2.1395
10642TIP3   OH253416   2.255   2.633  11.573  0.0171  0.0223  0.7552
10642TIP3    H153417   2.191   2.695  11.538 -0.3534  0.2514  1.7997
10642TIP3    H253418   2.257   2.651  11.667  1.7751  0.1615  0.7304
10643TIP3   OH253419   3.900   6.068   2.924  0.1654  0.0367 -0.3755
10643TIP3    H153420   3.882   6.108   2.839  0.5508 -1.6460 -1.2938
10643TIP3    H253421   3.869   5.978   2.915  0.6207 -0.2973  1.1243
10644TIP3   OH253422   5.372   1.540   2.936  0.0620  0.3663  0.1245
10644TIP3    H153423   5.455   1.562   2.979  1.1316  0.9944 -2.1039
10644TIP3    H253424   5.343   1.621   2.895  0.4350 -0.6827 -2.4017
10645TIP3   OH253425   6.007   4.516   5.510 -0.3613 -0.4041  1.0691
10645TIP3    H153426   5.966   4.595   5.547  0.1682  0.0215  0.7589
10645TIP3    H253427   6.091   4.547   5.475 -0.9870 -0.7058 -0.8216
10646TIP3   OH253428   2.112   2.867  16.862 -0.6514  0.0345  0.0569
10646TIP3    H153429   2.118   2.961  16.848 -0.6417  0.4385  2.2731
10646TIP3    H253430   2.020   2.846  16.847 -1.1614  0.8766  1.7110
10647TIP3   OH253431   4.661   3.162  11.050 -0.1116 -0.2254  0.0669
10647TIP3    H153432   4.649   3.172  11.145 -0.5918 -0.1815  0.0047
10647TIP3    H253433   4.692   3.073  11.039 -0.6242 -0.4287  0.2206
10648TIP3   OH253434   4.372   5.531  11.374  0.2027  0.0530  0.3579
10648TIP3    H153435   4.315   5.466  11.415 -0.7306 -0.0730 -1.0789
10648TIP3    H253436   4.360   5.610  11.427  2.0057 -1.0832  2.6650
10649TIP3   OH253437   5.027   4.413   1.454 -0.1406 -0.1029 -0.3546
10649TIP3    H153438   4.956   4.473   1.431  0.8308  0.7288 -1.3166
10649TIP3    H253439   5.050   4.370   1.371  2.9829  2.4649 -1.0567
10650TIP3   OH253440   0.012   4.174  15.318 -0.3061 -0.2281 -0.7166
10650TIP3    H153441   0.051   4.092  15.287  0.5096  0.6214 -2.0296
10650TIP3    H253442  -0.063   4.146  15.371 -0.0388 -1.8175 -1.1231
10651TIP3   OH253443   6.140   5.322   0.452  0.2832  0.1846  0.5627
10651TIP3    H153444   6.165   5.371   0.373  0.8563  0.3734  0.8589
10651TIP3    H253445   6.066   5.268   0.424  0.5664  0.1522 -0.1395
10652TIP3   OH253446   6.155   4.760  14.578  0.1938  0.2841 -1.0004
10652TIP3    H153447   6.085   4.779  14.517 -0.6115 -0.8944 -0.4945
10652TIP3    H253448   6.234   4.793  14.536 -0.7403  2.3920 -1.2220
10653TIP3   OH253449   6.752   2.434   1.316 -0.8066  0.2491 -0.1886
10653TIP3    H153450   6.754   2.479   1.400 -2.7443  1.1169 -0.5361
10653TIP3    H253451   6.676   2.375   1.322  0.4684 -1.4903 -0.4864
10654TIP3   OH253452   2.196   0.629   2.398  0.3054  0.1015 -0.3487
10654TIP3    H153453   2.159   0.542   2.412  0.5800  0.1556  0.7763
10654TIP3    H253454   2.128   0.677   2.350  0.2783 -0.8109 -1.2548
10655TIP3   OH253455   5.181   1.830  16.730  0.5484 -0.0560 -0.2664
10655TIP3    H153456   5.272   1.808  16.709  0.6998  1.7586 -1.7970
10655TIP3    H253457   5.130   1.790  16.660  0.3451  0.3861 -0.3695
10656TIP3   OH253458   6.625   2.142   3.029 -0.2779  0.0677  0.2523
10656TIP3    H153459   6.693   2.100   2.977 -2.8302 -1.0385 -2.4980
10656TIP3    H253460   6.575   2.069   3.067 -2.4215  0.5877 -1.3522
10657TIP3   OH253461   1.215   1.803  12.663  0.6802 -0.2400 -0.7382
10657TIP3    H153462   1.308   1.812  12.682  0.8057 -2.0619 -0.2682
10657TIP3    H253463   1.186   1.891  12.639  2.7822  0.1542 -2.0774
10658TIP3   OH253464   0.534   0.273  15.076  0.4490  0.6745 -0.3312
10658TIP3    H153465   0.555   0.220  14.999  1.4833  0.0860  0.3271
10658TIP3    H253466   0.440   0.258  15.090  1.1378 -3.5166  1.5803
10659TIP3   OH253467   6.135   5.177  12.149  0.4355  0.2923 -0.4424
10659TIP3    H153468   6.220   5.219  12.165 -0.1199  0.8495  1.4036
10659TIP3    H253469   6.085   5.241  12.098  0.1553  1.2555  0.9778
10660TIP3   OH253470   4.940   3.512   0.601 -0.3724  0.4251  0.1251
10660TIP3    H153471   4.978   3.556   0.677 -1.1670  0.2012  0.6738
10660TIP3    H253472   4.892   3.581   0.555  0.6642  0.7092 -0.5722
10661TIP3   OH253473   5.019   6.531  17.180 -0.1078 -0.0842  0.0470
10661TIP3    H153474   5.039   6.624  17.164  0.5491  0.1950  2.1584
10661TIP3    H253475   5.086   6.503  17.241 -0.8587 -1.7227  0.1511
10662TIP3   OH253476   4.073   1.509  16.694 -0.3108  0.0799 -0.2291
10662TIP3    H153477   4.091   1.597  16.728  0.2254 -0.0615 -0.1409
10662TIP3    H253478   4.124   1.504  16.613 -0.8635  0.0856 -0.5825
10663TIP3   OH253479   6.787   4.432  10.730 -0.0136  0.2866 -1.1245
10663TIP3    H153480   6.780   4.455  10.637  1.8920  0.3543 -1.2855
10663TIP3    H253481   6.868   4.382  10.736 -1.6111 -2.3986  0.0159
10664TIP3   OH253482   5.142   4.870  16.426  0.7940  0.1942 -0.0533
10664TIP3    H153483   5.219   4.862  16.482  0.4490 -0.8790  0.2917
10664TIP3    H253484   5.127   4.782  16.393  1.3234  0.8993 -2.3298
10665TIP3   OH253485   4.396   1.864   5.883 -0.5772 -0.6565 -0.1801
10665TIP3    H153486   4.347   1.860   5.801 -0.6189 -0.8573 -0.1460
10665TIP3    H253487   4.488   1.854   5.856 -0.4533  0.7363 -0.3465
10666TIP3   OH253488   5.149   0.295  14.751 -0.0246  0.1494  0.0009
10666TIP3    H153489   5.141   0.329  14.662  0.7444  0.0167 -0.1302
10666TIP3    H253490   5.144   0.200  14.742  0.5714  0.1063  0.0205
10667TIP3   OH253491   1.446   2.541   1.400 -0.5383 -0.4499 -0.3935
10667TIP3    H153492   1.472   2.457   1.438 -1.0766 -0.6729 -0.5049
10667TIP3    H253493   1.371   2.569   1.452  0.5655  0.7177  0.6225
10668TIP3   OH253494   2.080   0.811   1.554  0.3103 -0.1684 -0.2491
10668TIP3    H153495   2.152   0.817   1.616  0.8747  0.2522 -0.9359
10668TIP3    H253496   2.003   0.794   1.608  0.7751  0.2935  0.5687
10669TIP3   OH253497   6.311   2.011  14.704  0.1331 -0.6011 -0.7142
10669TIP3    H153498   6.241   2.075  14.691 -2.2251 -3.1096 -1.1693
10669TIP3    H253499   6.312   1.960  14.623  2.2415 -0.9352 -0.5346
10670TIP3   OH253500   1.551   2.865   5.449 -0.5040 -0.2600  0.5513
10670TIP3    H153501   1.534   2.772   5.436 -0.3798 -0.1692 -0.3170
10670TIP3    H253502   1.614   2.868   5.520  0.2852 -0.8988 -0.1076
10671TIP3   OH253503   1.836   0.747  16.387  0.1335  0.1983  0.3827
10671TIP3    H153504   1.886   0.828  16.374 -1.7297  1.1081 -2.0088
10671TIP3    H253505   1.830   0.737  16.482  0.8950  2.5607  0.7564
10672TIP3   OH253506   6.570   6.802   5.891  0.4920  0.2204 -0.3026
10672TIP3    H153507   6.602   6.764   5.973 -0.5713  0.6500  0.3331
10672TIP3    H253508   6.576   6.896   5.905  0.4617  0.2955 -0.7857
10673TIP3   OH253509   4.873   2.765   5.100  0.6484 -0.3473 -0.3054
10673TIP3    H153510   4.952   2.721   5.132 -0.3392 -1.1732  1.1185
10673TIP3    H253511   4.879   2.757   5.005  2.4771 -0.0060 -0.2604
10674TIP3   OH253512   1.098   0.058   3.758  0.3165 -0.3577  0.3743
10674TIP3    H153513   1.190   0.040   3.775  1.0545  0.6460 -2.1696
10674TIP3    H253514   1.056  -0.029   3.760  1.5849 -0.9969  0.0946
10675TIP3   OH253515   1.034   2.728  14.271 -0.0805  0.4044  0.1780
10675TIP3    H153516   1.064   2.638  14.253 -0.0769  0.3553  0.4199
10675TIP3    H253517   1.102   2.783  14.233 -0.9150  0.3479 -1.4748
10676TIP3   OH253518   2.169   5.799   4.236  0.4554 -0.0042  0.3318
10676TIP3    H153519   2.125   5.729   4.187 -0.7009  0.8059  0.1782
10676TIP3    H253520   2.239   5.754   4.283  1.7197 -0.8077 -2.1427
10677TIP3   OH253521   1.595   6.380   0.738 -0.1174 -0.4082 -0.3514
10677TIP3    H153522   1.584   6.426   0.655 -1.0388  0.2346  0.1061
10677TIP3    H253523   1.689   6.368   0.747  0.0704  0.5326 -0.9380
10678TIP3   OH253524   0.069   5.840   2.548 -0.4105  0.0448  0.5557
10678TIP3    H153525   0.088   5.934   2.542  0.3729 -0.1164  0.4230
10678TIP3    H253526   0.151   5.797   2.525 -0.3137 -0.6695  2.1153
10679TIP3   OH253527   3.087   2.802  13.388 -0.3434 -0.5674 -0.2917
10679TIP3    H153528   3.068   2.843  13.304  2.5711 -0.8474 -1.1894
10679TIP3    H253529   3.064   2.710  13.377  2.6241 -1.2526 -1.9111
10680TIP3   OH253530   0.916   0.244   0.674 -0.0025  0.6874 -0.7454
10680TIP3    H153531   0.894   0.280   0.759 -0.4282  0.9624 -0.9731
10680TIP3    H253532   0.988   0.183   0.692 -1.4251 -0.8243  0.1334
10681TIP3   OH253533   3.961   0.072   4.206  0.1402 -0.4013  0.0313
10681TIP3    H153534   3.993   0.026   4.128 -1.6359 -0.2089 -0.8610
10681TIP3    H253535   4.017   0.040   4.277  3.3687  1.1110 -1.5994
10682TIP3   OH253536   0.745   2.780  14.189 -0.4525 -0.1069 -0.6059
10682TIP3    H153537   0.818   2.721  14.169  0.5479  1.3408 -1.4593
10682TIP3    H253538   0.708   2.801  14.103 -1.6202 -0.4705 -0.2131
10683TIP3   OH253539   4.729   1.823   0.760 -0.2844 -0.6309  0.0969
10683TIP3    H153540   4.648   1.789   0.798  0.0235 -0.2235  1.1670
10683TIP3    H253541   4.727   1.795   0.669 -1.9432 -0.0661 -0.0711
10684TIP3   OH253542   2.766   5.496   5.330  0.4379  0.4911 -0.1274
10684TIP3    H153543   2.710   5.419   5.315  0.5624  0.1370  1.1438
10684TIP3    H253544   2.735   5.532   5.413  1.3545  0.9616  0.0156
10685TIP3   OH253545   1.029   3.895  12.601 -0.4640  0.1602  0.4874
10685TIP3    H153546   0.956   3.893  12.540  0.7120 -1.8010 -0.9797
10685TIP3    H253547   1.096   3.840  12.560  0.9090 -0.1239  2.9146
10686TIP3   OH253548   4.307   5.453  14.856  0.2441  1.2988  0.1228
10686TIP3    H153549   4.285   5.391  14.925  1.6268  1.1326  0.4362
10686TIP3    H253550   4.296   5.404  14.775  0.8433  0.7775  0.3466
10687TIP3   OH253551   4.601   4.589  11.526 -0.3850  0.1867  0.1112
10687TIP3    H153552   4.619   4.623  11.438  1.3816  0.1808  0.4510
10687TIP3    H253553   4.578   4.497  11.512 -2.6963  0.8016 -0.5605
10688TIP3   OH253554   0.615   5.454  13.624 -0.5739  0.4252 -0.7305
10688TIP3    H153555   0.575   5.420  13.704  2.6392  2.3276  1.9426
10688TIP3    H253556   0.560   5.528  13.598 -0.5567  1.0837  1.0021
10689TIP3   OH253557   2.156   2.733   0.245  0.3196  0.0693  0.2475
10689TIP3    H153558   2.182   2.651   0.204 -0.8209 -0.9473  1.4709
10689TIP3    H253559   2.209   2.799   0.202  1.6765 -1.3714 -0.3862
10690TIP3   OH253560   0.716   4.802   2.450 -0.0954  0.3329 -0.3816
10690TIP3    H153561   0.689   4.790   2.541  1.1577  1.5455  0.1907
10690TIP3    H253562   0.706   4.715   2.410 -3.3957  0.3530  0.0907
10691TIP3   OH253563   3.310   0.439   1.139 -0.1378  0.4807 -0.3818
10691TIP3    H153564   3.366   0.497   1.191 -1.3577  1.5746 -0.2534
10691TIP3    H253565   3.355   0.354   1.142  1.1429  1.1487  0.2969
10692TIP3   OH253566   0.163   6.383   2.678 -0.5116  0.1715  0.3374
10692TIP3    H153567   0.148   6.473   2.707 -0.0695  0.6093 -0.7238
10692TIP3    H253568   0.212   6.392   2.596  0.4907 -1.0508  0.7508
10693TIP3   OH253569   1.036   2.575   3.564  0.5767 -0.4427  0.3283
10693TIP3    H153570   0.975   2.505   3.588 -0.4674  0.6240  0.8947
10693TIP3    H253571   1.052   2.563   3.471 -0.9016 -0.4565  0.0603
10694TIP3   OH253572   0.763   5.972  11.734  0.3447 -0.1785  0.5953
10694TIP3    H153573   0.703   5.983  11.808  0.1567 -1.3221  0.6327
10694TIP3    H253574   0.785   5.879  11.735  0.7241 -0.1146 -0.4999
10695TIP3   OH253575   2.111   5.965   2.316  0.0142  0.2938 -0.4834
10695TIP3    H153576   2.176   5.933   2.254  0.4451  0.2269 -0.0035
10695TIP3    H253577   2.161   6.017   2.379 -0.4951  0.8189 -0.5007
10696TIP3   OH253578   4.392   3.857   1.939  0.2136  0.3499 -0.1084
10696TIP3    H153579   4.396   3.796   1.865  0.5747  0.7754 -0.4470
10696TIP3    H253580   4.484   3.878   1.958  0.2125 -0.7360  1.3042
10697TIP3   OH253581   4.506   1.110  15.189  0.2836 -0.3271 -0.0553
10697TIP3    H153582   4.521   1.195  15.148 -0.1673  0.2480  0.9354
10697TIP3    H253583   4.594   1.074  15.202  0.7068  1.2999  2.1799
10698TIP3   OH253584   1.532   4.780  16.555  0.6697  0.3532 -0.0184
10698TIP3    H153585   1.482   4.701  16.574  0.7564  0.3538  0.2144
10698TIP3    H253586   1.583   4.758  16.477  1.8002 -0.3389  0.8672
10699TIP3   OH253587   5.399   1.081   0.289 -0.0038 -0.4422 -0.6358
10699TIP3    H153588   5.423   1.171   0.314 -0.0241 -0.4112 -0.7281
10699TIP3    H253589   5.352   1.047   0.365 -4.2289  1.1907 -2.2256
10700TIP3   OH253590   3.877   1.627  12.758  0.1304  0.3360  0.4543
10700TIP3    H153591   3.900   1.717  12.780 -0.8945 -0.0490  3.6331
10700TIP3    H253592   3.943   1.574  12.804  1.0449 -0.5996 -1.8138
10701TIP3   OH253593   2.011   0.550  16.744  0.0625 -0.3182  0.0257
10701TIP3    H153594   2.049   0.596  16.819 -0.8549  1.8785 -0.7650
10701TIP3    H253595   2.031   0.457  16.759  0.5202  0.1341  2.5965
10702TIP3   OH253596   1.873   2.207  16.307  0.3880 -0.2091  0.0043
10702TIP3    H153597   1.866   2.179  16.215  0.9969 -2.6254  0.6026
10702TIP3    H253598   1.957   2.171  16.336  0.7041  1.4173  1.2475
10703TIP3   OH253599   3.262   1.944  15.778  0.0583  0.0966  0.3200
10703TIP3    H153600   3.321   2.019  15.780  0.8584 -0.5212  2.2155
10703TIP3    H253601   3.216   1.946  15.861 -1.6963 -0.1745 -0.5982
10704TIP3   OH253602   5.565   6.454   5.215  0.8364  0.1707  0.4020
10704TIP3    H153603   5.555   6.540   5.174  1.9785  0.7296  1.2442
10704TIP3    H253604   5.560   6.392   5.142 -1.6180  0.7864 -0.0401
10705TIP3   OH253605   5.283   6.689  12.160  0.2099 -0.0241 -0.1025
10705TIP3    H153606   5.217   6.619  12.160 -3.1482  2.6660 -3.7181
10705TIP3    H253607   5.266   6.737  12.241  0.2863 -1.4604  0.7981
10706TIP3   OH253608   1.640   2.703   5.862 -0.3595 -0.2247  0.0059
10706TIP3    H153609   1.686   2.737   5.786 -0.9689 -2.0683 -1.2625
10706TIP3    H253610   1.681   2.618   5.879 -0.6001 -0.0847  1.4131
10707TIP3   OH253611   1.950   1.827   1.425  0.6695 -0.5538  0.1168
10707TIP3    H153612   1.858   1.808   1.405  0.0407  1.4817  0.7982
10707TIP3    H253613   1.995   1.816   1.342 -0.3460 -0.7899 -0.4239
10708TIP3   OH253614   3.306   3.754  13.700 -0.0071  0.3743 -0.6603
10708TIP3    H153615   3.307   3.746  13.796 -0.2837  0.2907 -0.6654
10708TIP3    H253616   3.342   3.841  13.683 -0.7625  0.7372 -0.4447
10709TIP3   OH253617   4.906   3.798   1.618  0.4780 -0.4222 -0.0545
10709TIP3    H153618   4.828   3.752   1.648  0.4816 -1.2141 -1.1771
10709TIP3    H253619   4.880   3.890   1.616 -0.1128 -0.5695  0.5225
10710TIP3   OH253620   2.646   4.449  14.345  0.0318  0.2339  0.0393
10710TIP3    H153621   2.740   4.433  14.355  0.2883  1.4038 -0.2677
10710TIP3    H253622   2.640   4.544  14.329 -1.2817  0.3571  1.0629
10711TIP3   OH253623   2.302   1.344  14.240  0.5771  0.4637  0.0007
10711TIP3    H153624   2.376   1.296  14.279  0.5770 -1.3467 -2.0063
10711TIP3    H253625   2.335   1.373  14.155 -1.4061 -1.8273 -1.6878
10712TIP3   OH253626   2.153   3.034  14.646 -0.0176  0.3589 -0.0432
10712TIP3    H153627   2.207   3.100  14.690 -1.5719  1.6085  0.0588
10712TIP3    H253628   2.204   2.953  14.655  1.1755  1.1909  1.2860
10713TIP3   OH253629   6.537   6.233  12.511 -0.6285  0.0357 -0.2896
10713TIP3    H153630   6.578   6.248  12.426 -0.3979  1.1178 -0.0022
10713TIP3    H253631   6.611   6.230  12.573 -0.9089  1.5375  0.1692
10714TIP3   OH253632   2.130   2.509   4.626  0.3533  0.2287  0.2985
10714TIP3    H153633   2.078   2.584   4.597  1.2889  1.5029  1.7481
10714TIP3    H253634   2.220   2.532   4.603  0.7319 -0.1276  1.3482
10715TIP3   OH253635   1.115   3.680   0.281  0.4368  0.2648  0.4598
10715TIP3    H153636   1.041   3.656   0.226 -1.0916  0.9230  2.1228
10715TIP3    H253637   1.091   3.650   0.369  2.9433 -1.0620  0.7712
10716TIP3   OH253638   3.773   0.597   6.031  0.2339  0.2336 -0.3921
10716TIP3    H153639   3.740   0.612   6.120  0.4690  1.2145 -0.4586
10716TIP3    H253640   3.702   0.624   5.974 -0.4484 -1.6992 -0.5198
10717TIP3   OH253641   0.736   4.959   4.024 -0.1795  0.2221 -0.4173
10717TIP3    H153642   0.713   5.035   4.078 -0.4698  1.1144 -1.7219
10717TIP3    H253643   0.653   4.915   4.008 -0.5355  1.4347 -2.2127
10718TIP3   OH253644   5.144   0.909   1.875  0.3541  0.6304  0.2324
10718TIP3    H153645   5.195   0.851   1.819 -1.3791 -1.8735  1.1047
10718TIP3    H253646   5.209   0.951   1.931  1.5600 -2.4932  1.3579
10719TIP3   OH253647   4.513   1.770  11.781 -0.0034 -0.2307  0.3775
10719TIP3    H153648   4.534   1.726  11.864  0.3850 -0.6343  0.0741
10719TIP3    H253649   4.531   1.862  11.797 -2.5600  0.1484  1.6021
10720TIP3   OH253650   2.691   1.496  11.865 -0.4828  0.1388  0.0612
10720TIP3    H153651   2.738   1.572  11.829 -2.2526  0.5724 -1.4923
10720TIP3    H253652   2.753   1.423  11.857  0.6885  1.1038  0.1406
10721TIP3   OH253653   0.957   3.034  12.321  0.6931 -0.1983  0.4262
10721TIP3    H153654   1.012   3.050  12.398  0.1832 -1.1868  1.0151
10721TIP3    H253655   0.873   3.006  12.356  0.0910  0.3807 -0.4851
10722TIP3   OH253656   6.630   2.796   0.501  0.0674  0.6155  0.1020
10722TIP3    H153657   6.587   2.873   0.465  0.4644  0.7531 -0.0831
10722TIP3    H253658   6.567   2.725   0.489  0.0373  0.7407 -0.4979
10723TIP3   OH253659   1.059   1.641  10.507  0.6078  0.0340 -0.5745
10723TIP3    H153660   0.966   1.637  10.532  0.9599 -0.3860  0.7387
10723TIP3    H253661   1.071   1.731  10.477 -0.0048  0.3815  0.1826
10724TIP3   OH253662   4.641   3.459  14.739  0.2785 -0.5671 -0.1934
10724TIP3    H153663   4.577   3.412  14.792 -0.0599  0.6378  0.5116
10724TIP3    H253664   4.686   3.391  14.690 -0.7104 -1.5463  0.2139
10725TIP3   OH253665   0.672   5.028  11.994 -0.0197  0.3745 -0.2161
10725TIP3    H153666   0.713   4.948  11.960 -0.0152  0.8395 -1.3748
10725TIP3    H253667   0.735   5.097  11.975 -0.1391  0.7015  0.5314
10726TIP3   OH253668   1.992   5.294   2.606  0.4742  0.1931 -0.2260
10726TIP3    H153669   2.009   5.200   2.608  2.1786  0.4685  1.0656
10726TIP3    H253670   2.051   5.327   2.538 -1.9508  0.0791 -2.5001
10727TIP3   OH253671   0.360   6.369   5.220  0.2137 -0.3113  0.5152
10727TIP3    H153672   0.267   6.354   5.206  0.5354 -0.3991 -2.2097
10727TIP3    H253673   0.365   6.417   5.302 -2.3446  0.8953  0.0725
10728TIP3   OH253674   2.765   4.883   5.941  0.0914 -0.1471 -0.5310
10728TIP3    H153675   2.775   4.973   5.910  1.0399 -0.1622 -0.3130
10728TIP3    H253676   2.740   4.893   6.033  0.9868 -0.0841 -0.2772
10729TIP3   OH253677   1.722   0.753  15.159  0.6943 -0.3774  0.2059
10729TIP3    H153678   1.815   0.737  15.174  0.5164 -1.5830  0.0926
10729TIP3    H253679   1.678   0.685  15.210 -0.1041 -0.3286 -0.4092
10730TIP3   OH253680   3.594   0.080   1.689  0.3088 -0.0491  0.1437
10730TIP3    H153681   3.683   0.055   1.663 -0.6704 -1.0284 -2.6496
10730TIP3    H253682   3.558   0.003   1.731  0.7242  0.3222  1.2062
10731TIP3   OH253683   1.504   6.319   4.491 -0.2482 -0.7909 -0.0356
10731TIP3    H153684   1.575   6.269   4.532  0.6740 -1.0837 -1.8560
10731TIP3    H253685   1.432   6.257   4.483 -0.0282 -1.0595  0.0664
10732TIP3   OH253686   1.345   0.622  15.724  0.0393  0.0205  0.2280
10732TIP3    H153687   1.409   0.581  15.666  0.1602  0.0122  0.3654
10732TIP3    H253688   1.277   0.657  15.665  0.0119 -0.2446  0.1035
10733TIP3   OH253689   4.911   0.027  14.980 -0.3902 -0.0631  0.5480
10733TIP3    H153690   4.945   0.065  15.061  0.5655 -0.6107  0.4198
10733TIP3    H253691   4.891  -0.064  15.003 -1.6462  0.2015  0.5759
10734TIP3   OH253692   5.681   2.145   4.236  0.3471 -0.6405 -0.2170
10734TIP3    H153693   5.756   2.108   4.189 -0.1786 -1.0682 -0.7275
10734TIP3    H253694   5.661   2.080   4.303  0.2750 -0.6401 -0.2390
10735TIP3   OH253695   1.586   5.478   4.603 -0.4167 -0.1199  0.7366
10735TIP3    H153696   1.505   5.445   4.642 -0.3803  0.0775  0.9786
10735TIP3    H253697   1.570   5.571   4.589 -0.1748 -0.0455  0.9369
10736TIP3   OH253698   4.334   1.334  13.894 -0.2585  0.4741 -0.2224
10736TIP3    H153699   4.349   1.315  13.986 -0.6064  1.2602  0.0034
10736TIP3    H253700   4.422   1.343  13.856 -0.0111 -2.6110 -0.6001
10737TIP3   OH253701   0.080   4.917   2.227 -1.0064  0.0836  0.6206
10737TIP3    H153702   0.141   4.844   2.218  0.3734  0.7640  3.3053
10737TIP3    H253703   0.100   4.974   2.152  1.9611  0.4213  1.5320
10738TIP3   OH253704   2.991   4.257   0.690  0.1215 -0.0115  0.4515
10738TIP3    H153705   3.020   4.190   0.752 -2.1752 -0.8838  0.6829
10738TIP3    H253706   2.896   4.262   0.703  0.0659  2.4044 -0.4664
10739TIP3   OH253707   6.318   0.135   2.167 -0.0970  0.0585  0.0106
10739TIP3    H153708   6.314   0.197   2.094 -1.4502  2.8189  2.2300
10739TIP3    H253709   6.227   0.108   2.181  0.2142 -0.8412  0.3887
10740TIP3   OH253710   4.920   0.789  15.149 -0.6142  0.2325 -0.1521
10740TIP3    H153711   4.868   0.766  15.072 -1.1971 -1.5829  0.7297
10740TIP3    H253712   5.010   0.786  15.119 -0.8880  1.9214 -1.3216
10741TIP3   OH253713   4.211   1.236   2.768 -0.0444  0.2713 -0.4367
10741TIP3    H153714   4.187   1.328   2.780 -0.4016  0.4109 -2.0028
10741TIP3    H253715   4.157   1.207   2.694 -1.7664 -1.9237  1.5277
10742TIP3   OH253716   3.144   0.607  13.527 -0.3647  0.0227 -0.0446
10742TIP3    H153717   3.201   0.563  13.465 -0.2795  0.0791 -0.0060
10742TIP3    H253718   3.164   0.566  13.612  0.4065  0.7926  0.1600
10743TIP3   OH253719   3.286   2.619  11.693 -0.6710  0.2974  0.1079
10743TIP3    H153720   3.282   2.525  11.676  0.3466  0.0424  1.1047
10743TIP3    H253721   3.319   2.657  11.612 -0.3926 -0.2926 -0.0648
10744TIP3   OH253722   6.715   0.050   6.359 -0.3066  0.1508 -0.9704
10744TIP3    H153723   6.752   0.134   6.333  0.7902 -0.0048 -0.0188
10744TIP3    H253724   6.759  -0.014   6.302  3.1880 -0.3527  1.9584
10745TIP3   OH253725   4.016   1.887  12.117 -0.0654 -0.1711 -0.1254
10745TIP3    H153726   4.004   1.981  12.128 -0.8146 -0.2595 -0.1061
10745TIP3    H253727   4.033   1.875  12.024  0.3429  0.0135 -0.0738
10746TIP3   OH253728   3.939   0.667  15.968 -0.3484  0.1630  0.3299
10746TIP3    H153729   3.954   0.652  16.061 -0.3092 -0.9899  0.1449
10746TIP3    H253730   3.899   0.755  15.965  0.6287  0.6711  1.3257
10747TIP3   OH253731   4.520   1.517  15.811  0.3601 -0.3979  0.0218
10747TIP3    H153732   4.614   1.510  15.794  0.6568 -3.0595  1.9232
10747TIP3    H253733   4.479   1.480  15.734  0.9355 -0.2667 -0.3550
10748TIP3   OH253734   2.988   6.311  12.117  0.1734  0.6061 -0.1104
10748TIP3    H153735   2.962   6.301  12.209  0.0941  1.6345 -0.0110
10748TIP3    H253736   3.009   6.403  12.108 -1.6784  0.9492 -1.6027
10749TIP3   OH253737   2.294   2.448  11.827  0.2219 -0.1700 -0.4937
10749TIP3    H153738   2.208   2.408  11.840 -0.4398  1.6371  1.4259
10749TIP3    H253739   2.279   2.541  11.844  2.4072  0.3191 -0.9599
10750TIP3   OH253740   4.445   6.624  11.503  0.2642 -0.0578  0.1691
10750TIP3    H153741   4.403   6.558  11.448 -0.4198  1.4214 -1.2024
10750TIP3    H253742   4.529   6.640  11.461  0.3850  0.0007  0.4358
10751TIP3   OH253743   5.764   1.747  15.401  0.1211  0.1620 -1.0033
10751TIP3    H153744   5.808   1.695  15.469  0.7101 -0.2026 -1.6395
10751TIP3    H253745   5.692   1.692  15.372 -0.3332  0.4592 -0.4478
10752TIP3   OH253746   3.011   2.496   1.488 -0.2764 -0.4883  0.1061
10752TIP3    H153747   3.018   2.565   1.554  2.7720 -0.1772 -0.3971
10752TIP3    H253748   2.947   2.434   1.525 -3.0472  2.4218  0.6220
10753TIP3   OH253749   2.809   0.968  13.131 -0.0044 -0.3811 -0.1665
10753TIP3    H153750   2.754   1.003  13.201  0.1619  1.2806 -0.8246
10753TIP3    H253751   2.895   1.010  13.145  0.5469 -1.4301 -0.3061
10754TIP3   OH253752   3.299   1.879  14.421 -0.0989  0.2159  0.7419
10754TIP3    H153753   3.367   1.814  14.405 -0.7826 -0.4279  0.4203
10754TIP3    H253754   3.253   1.887  14.338 -0.3406  0.7359  0.9225
10755TIP3   OH253755   3.579   0.144   5.352  0.2090 -0.1906 -0.2697
10755TIP3    H153756   3.660   0.194   5.356  0.1961 -0.0425 -1.4301
10755TIP3    H253757   3.537   0.173   5.270  0.5076 -2.5591 -1.3346
10756TIP3   OH253758   0.142   5.891   3.675 -0.2972  0.0660 -0.5832
10756TIP3    H153759   0.161   5.982   3.652  2.0555 -0.8787 -2.8656
10756TIP3    H253760   0.057   5.874   3.635 -0.1127  0.8814 -1.3477
10757TIP3   OH253761   2.602   1.668  15.485  0.3037  0.0284 -0.4824
10757TIP3    H153762   2.530   1.643  15.544 -0.6114 -1.3198 -2.0690
10757TIP3    H253763   2.616   1.591  15.431  2.4767  0.5387 -0.7333
10758TIP3   OH253764   4.530   2.053  15.092 -0.1279 -0.2237 -0.3015
10758TIP3    H153765   4.505   1.971  15.049 -1.8918 -0.6193  1.3777
10758TIP3    H253766   4.451   2.082  15.137  0.2189  2.8343 -1.4196
10759TIP3   OH253767   6.106   0.882  12.413  0.3890  0.0942 -0.0074
10759TIP3    H153768   6.119   0.917  12.501  0.9868 -1.7601  0.6919
10759TIP3    H253769   6.050   0.946  12.370  0.0341  1.0276  1.7411
10760TIP3   OH253770   2.014   3.835   4.442  0.0872 -0.2368  0.3026
10760TIP3    H153771   2.040   3.920   4.408  0.3063 -0.3297  0.2325
10760TIP3    H253772   1.940   3.809   4.387 -0.0847 -0.0208  0.4291
10761TIP3   OH253773   1.941   3.146   5.373 -0.2647  0.2176  0.0038
10761TIP3    H153774   1.977   3.098   5.299  0.6056  1.4190 -0.3923
10761TIP3    H253775   2.014   3.156   5.433 -0.2707  1.4737 -0.1685
10762TIP3   OH253776   6.780   2.423  16.463 -0.7094 -0.7020 -0.5576
10762TIP3    H153777   6.728   2.344  16.469 -0.4818 -0.7392  2.3691
10762TIP3    H253778   6.792   2.452  16.554  1.4371  1.2164 -1.3251
10763TIP3   OH253779   0.213   3.212   0.535  0.0237  0.5206 -0.1292
10763TIP3    H153780   0.130   3.216   0.581 -0.1736  0.9471 -0.5167
10763TIP3    H253781   0.279   3.224   0.603 -0.2450  0.6153  0.1174
10764TIP3   OH253782   2.318   0.973   6.475 -0.0683  0.5605  0.1659
10764TIP3    H153783   2.228   0.941   6.470 -0.8855  2.7488 -0.4561
10764TIP3    H253784   2.327   1.006   6.565 -0.4943  1.9090 -0.2709
10765TIP3   OH253785   6.243   2.496   4.338  0.2375 -0.4489  0.2487
10765TIP3    H153786   6.236   2.414   4.288 -3.9723 -1.6959  2.4470
10765TIP3    H253787   6.296   2.472   4.415  2.5916  0.1859 -1.0694
10766TIP3   OH253788   6.249   4.992  13.033 -0.4338  0.1317 -0.3282
10766TIP3    H153789   6.278   5.028  12.949 -2.1662  0.2350 -0.9150
10766TIP3    H253790   6.159   4.963  13.017 -1.0703  0.8247  1.6760
10767TIP3   OH253791   2.973   2.327  12.141  0.0887 -0.2127  0.5554
10767TIP3    H153792   3.040   2.260  12.158 -0.3055 -0.4484  1.2392
10767TIP3    H253793   2.895   2.277  12.116  0.3049  0.0835 -0.8070
10768TIP3   OH253794   4.879   2.856   2.020  0.1959  0.5632 -0.6906
10768TIP3    H153795   4.913   2.835   1.933  2.0332 -0.9150  0.3277
10768TIP3    H253796   4.864   2.771   2.062 -1.5551  1.2276  0.1620
10769TIP3   OH253797   4.516   3.530  14.153 -0.1775 -0.9457  0.6620
10769TIP3    H153798   4.532   3.585  14.076 -1.6769 -0.7355  0.4700
10769TIP3    H253799   4.603   3.500  14.179  0.5347  0.3518 -0.0918
10770TIP3   OH253800   3.350   2.676  13.396  0.6179 -0.3448  0.2730
10770TIP3    H153801   3.410   2.728  13.451  0.4758  0.8005 -0.6201
10770TIP3    H253802   3.269   2.726  13.396  1.5034  1.4490 -3.4825
10771TIP3   OH253803   5.251   5.337  12.804 -0.1390  0.1307  0.8131
10771TIP3    H153804   5.178   5.276  12.818 -2.7279  3.0437  1.2009
10771TIP3    H253805   5.234   5.373  12.716  0.7801  0.9320  0.9597
10772TIP3   OH253806   2.725   5.177   5.263  0.0982 -0.1749 -0.2718
10772TIP3    H153807   2.653   5.170   5.326  1.0376 -3.0070  0.6089
10772TIP3    H253808   2.803   5.188   5.317  0.7578 -1.0838 -1.0138
10773TIP3   OH253809   4.842   0.137  17.142 -0.1934 -0.6533  0.3792
10773TIP3    H153810   4.881   0.206  17.196 -0.1220 -0.4250  0.0395
10773TIP3    H253811   4.757   0.171  17.117  0.3694 -0.1071 -0.8861
10774TIP3   OH253812   6.368   2.121   1.095 -0.1040 -0.1344  0.2519
10774TIP3    H153813   6.427   2.152   1.026  0.9084  0.1607  1.2226
10774TIP3    H253814   6.290   2.177   1.087  0.1009  0.0668 -0.4692
10775TIP3   OH253815   5.359   2.667  10.859  0.0981 -0.5079 -0.1897
10775TIP3    H153816   5.283   2.655  10.802 -0.2601 -0.1612  0.2067
10775TIP3    H253817   5.379   2.761  10.854  0.8640 -0.6860 -0.7416
10776TIP3   OH253818   0.867   4.694   4.615  0.2192 -0.0797  0.0393
10776TIP3    H153819   0.803   4.749   4.660  0.2592 -1.1169  1.4447
10776TIP3    H253820   0.918   4.756   4.562 -0.6494  1.0290  0.4392
10777TIP3   OH253821   4.491   6.785  15.968  0.0480 -0.1740 -0.2435
10777TIP3    H153822   4.554   6.855  15.983  0.2891 -0.6487  1.2115
10777TIP3    H253823   4.413   6.812  16.016 -0.9804  0.5296 -2.2519
10778TIP3   OH253824   5.402   3.343   2.148  0.0223  0.0441  0.2465
10778TIP3    H153825   5.491   3.376   2.134  0.4820 -1.1229  0.3059
10778TIP3    H253826   5.387   3.283   2.075 -0.7834  0.3506  0.1516
10779TIP3   OH253827   2.958   6.757  14.369 -0.0522 -0.0274 -0.0060
10779TIP3    H153828   2.923   6.842  14.396  0.0736  0.1892 -0.5152
10779TIP3    H253829   3.000   6.723  14.448  0.8132  0.8560 -0.0555
10780TIP3   OH253830   5.666   0.901   3.094  0.3990 -0.0114  0.3265
10780TIP3    H153831   5.699   0.832   3.151 -1.3105 -1.5760 -0.4703
10780TIP3    H253832   5.600   0.946   3.147 -0.3767 -0.7307 -0.0083
10781TIP3   OH253833   4.003   6.255  16.409 -0.4596 -0.1299  0.0726
10781TIP3    H153834   3.911   6.240  16.430 -0.4143  0.7012  0.9228
10781TIP3    H253835   4.045   6.170  16.424 -0.4424  0.3446  3.4110
10782TIP3   OH253836   3.253   0.946  15.528 -0.2484 -0.0123  0.0043
10782TIP3    H153837   3.168   0.919  15.495 -1.4247  1.3227  1.7389
10782TIP3    H253838   3.299   0.865  15.548 -1.1062 -0.7502 -0.9353
10783TIP3   OH253839   5.744   0.075  13.985 -0.4218  0.3106  0.4122
10783TIP3    H153840   5.744   0.132  14.062 -1.6193 -0.9333  1.3782
10783TIP3    H253841   5.777  -0.008  14.017  1.8015  0.5344 -1.1023
10784TIP3   OH253842   1.207   5.669  11.770 -0.5169 -0.1001  0.0952
10784TIP3    H153843   1.205   5.611  11.846  1.2255 -0.6314 -0.2311
10784TIP3    H253844   1.261   5.623  11.706 -0.7407  1.0112 -0.9219
10785TIP3   OH253845   2.455   5.315   4.556  0.4220  0.0314  0.5565
10785TIP3    H153846   2.521   5.368   4.600  0.9740  0.7627 -1.0492
10785TIP3    H253847   2.404   5.378   4.504  2.5938 -1.0383 -3.3179
10786TIP3   OH253848   6.419   0.548  16.120 -0.6041 -0.5092 -0.2636
10786TIP3    H153849   6.386   0.578  16.205  0.4558 -2.2750  0.8384
10786TIP3    H253850   6.513   0.536  16.134 -0.3797 -0.6677 -1.7548
10787TIP3   OH253851   3.553   6.124  13.417  0.1584  0.8252  0.0018
10787TIP3    H153852   3.603   6.172  13.351  0.9283  1.2824  0.9053
10787TIP3    H253853   3.616   6.065  13.458 -0.3630  0.3850  0.1890
10788TIP3   OH253854   1.575   0.558  15.549  0.1703  0.2144  0.2568
10788TIP3    H153855   1.508   0.543  15.482 -2.1675 -0.0580  2.4631
10788TIP3    H253856   1.653   0.512  15.517 -0.9352 -0.1703 -2.0697
10789TIP3   OH253857   2.112   4.025   2.709 -0.2713 -0.2495  0.3353
10789TIP3    H153858   2.072   3.938   2.708  0.0720 -0.5165 -2.8234
10789TIP3    H253859   2.185   4.017   2.770 -1.1017 -1.7158  1.2037
10790TIP3   OH253860   1.554   1.025   5.113  0.0956  0.2808  0.3448
10790TIP3    H153861   1.517   1.050   5.198 -0.2383  1.0528 -0.0147
10790TIP3    H253862   1.545   1.103   5.059 -2.5152 -1.0119 -1.3549
10791TIP3   OH253863   0.126   4.926   1.285 -0.3293 -0.1033  0.4924
10791TIP3    H153864   0.064   4.890   1.348 -0.6289  0.5345  0.5674
10791TIP3    H253865   0.118   5.021   1.295 -1.0097  0.0393 -1.0958
10792TIP3   OH253866   0.134   1.187  16.487  0.0843  0.1456  0.2178
10792TIP3    H153867   0.228   1.170  16.483 -0.3507 -2.6091 -0.6633
10792TIP3    H253868   0.109   1.198  16.395 -0.5425  0.3470  0.4127
10793TIP3   OH253869   1.022   1.644  15.863 -0.4081  0.3328 -0.2685
10793TIP3    H153870   1.048   1.587  15.791  0.5730 -0.7968  0.9326
10793TIP3    H253871   1.104   1.664  15.909 -0.9835  1.2162  0.4142
10794TIP3   OH253872   0.206   4.314  10.675 -0.6281 -0.5589 -1.0314
10794TIP3    H153873   0.198   4.381  10.607  1.2446  1.1879  0.3754
10794TIP3    H253874   0.227   4.234  10.626  2.0117  0.9080 -2.5617
10795TIP3   OH253875   4.247   4.396   4.334 -0.2978  0.2225  0.5216
10795TIP3    H153876   4.207   4.325   4.283 -0.6764 -0.3456  1.5776
10795TIP3    H253877   4.268   4.463   4.269  1.4932 -1.4574 -0.7328
10796TIP3   OH253878   1.233   5.928   3.457 -0.2833 -0.2558 -0.1719
10796TIP3    H153879   1.220   5.978   3.377  1.4222 -0.3300 -0.5353
10796TIP3    H253880   1.171   5.855   3.449 -1.2335  0.5786 -0.6663
10797TIP3   OH253881   1.806   0.827  14.154 -0.3557  0.1793  0.1636
10797TIP3    H153882   1.860   0.865  14.224  0.4763 -0.5066 -0.0795
10797TIP3    H253883   1.834   0.872  14.075  0.4477 -0.7209 -0.0853
10798TIP3   OH253884   5.925   1.056  15.584  0.0302  0.2045 -0.0144
10798TIP3    H153885   5.844   1.019  15.620 -0.1410  0.3782 -0.2178
10798TIP3    H253886   5.988   0.984  15.589 -0.3491 -0.1729 -0.5735
10799TIP3   OH253887   5.372   3.308   6.534 -0.4112  0.3123 -0.7758
10799TIP3    H153888   5.420   3.337   6.457 -1.1007  2.5699 -0.4583
10799TIP3    H253889   5.319   3.385   6.558  1.8595  0.8071  3.5959
10800TIP3   OH253890   0.894   1.564   5.371 -0.1640 -0.4457 -0.0531
10800TIP3    H153891   0.803   1.547   5.349  0.4655 -0.7438 -2.7988
10800TIP3    H253892   0.931   1.607   5.294  2.3504 -1.5360  0.4166
10801TIP3   OH253893   6.132   6.617  14.461 -0.2339 -0.2417  0.2854
10801TIP3    H153894   6.198   6.683  14.484 -0.0694 -0.6258  0.9611
10801TIP3    H253895   6.183   6.539  14.439 -0.4083  0.0204 -1.1000
10802TIP3   OH253896   1.453   3.761  12.551 -0.4991  0.3973 -0.6366
10802TIP3    H153897   1.365   3.726  12.543 -0.7643  0.3973  1.6892
10802TIP3    H253898   1.505   3.687  12.583 -0.6937  1.5295  2.5857
10803TIP3   OH253899   1.801   4.987  15.408 -0.8853  0.2939 -0.2139
10803TIP3    H153900   1.706   4.976  15.404 -0.8320  0.1075 -1.4566
10803TIP3    H253901   1.833   4.948  15.327  0.1835  1.1338 -0.2256
10804TIP3   OH253902   1.322   0.041  12.827 -0.0868  0.2351  0.6285
10804TIP3    H153903   1.233   0.054  12.793 -0.5688 -1.5794  1.1013
10804TIP3    H253904   1.327   0.100  12.903 -0.7268  0.6900  0.3258
10805TIP3   OH253905   6.231   5.835  11.585 -0.0267  0.5649 -0.2756
10805TIP3    H153906   6.218   5.929  11.594  2.3864  0.8995  0.4670
10805TIP3    H253907   6.326   5.824  11.579 -0.2794 -1.7564 -1.4374
10806TIP3   OH253908   4.374   5.689   4.357 -0.2207 -0.2824 -0.0034
10806TIP3    H153909   4.442   5.632   4.320  2.2592  1.8165  1.0233
10806TIP3    H253910   4.378   5.672   4.451 -0.0134  0.9773  0.2240
10807TIP3   OH253911   5.812   1.378   0.527  0.5505 -0.0960 -0.3725
10807TIP3    H153912   5.811   1.404   0.435 -1.4708  0.6630 -0.1849
10807TIP3    H253913   5.769   1.292   0.528 -1.3062  0.7821  0.0336
10808TIP3   OH253914   6.782   3.555   4.146  0.0702 -0.0363 -0.1526
10808TIP3    H153915   6.804   3.594   4.062  1.8441  0.2616  0.4101
10808TIP3    H253916   6.743   3.626   4.196  1.7624  0.6221  0.2883
10809TIP3   OH253917   5.546   6.120  11.658  0.0715 -1.0186  0.2507
10809TIP3    H153918   5.475   6.112  11.722 -0.5678  0.3492 -0.2285
10809TIP3    H253919   5.501   6.128  11.574  0.9152 -3.5553 -0.5311
10810TIP3   OH253920   5.733   2.397   2.764 -0.2436  0.2300  0.0318
10810TIP3    H153921   5.811   2.438   2.726 -0.3127 -2.0973 -2.9940
10810TIP3    H253922   5.662   2.458   2.744  0.4857  1.5838  1.3466
10811TIP3   OH253923   6.309   1.512  13.341  0.0817 -0.1199  0.5228
10811TIP3    H153924   6.247   1.444  13.315  1.6272 -1.0921 -0.8606
10811TIP3    H253925   6.307   1.576  13.271  1.6305 -0.9087 -0.3137
10812TIP3   OH253926   1.777   4.375  15.098 -0.1313  0.7201 -0.7151
10812TIP3    H153927   1.779   4.434  15.022  0.3369  0.8821 -0.5738
10812TIP3    H253928   1.698   4.322  15.084 -0.7265  1.5769 -0.6873
10813TIP3   OH253929   0.905   4.247  11.570 -0.7609 -0.2714  0.0690
10813TIP3    H153930   0.856   4.329  11.576  0.4527  0.4115  1.4177
10813TIP3    H253931   0.888   4.215  11.481 -2.1488  0.8584 -0.1037
10814TIP3   OH253932   0.683   3.257  15.402 -0.1181 -0.0800  0.2032
10814TIP3    H153933   0.694   3.297  15.315  2.1096  0.9405  0.8842
10814TIP3    H253934   0.724   3.171  15.394 -0.7970 -0.3964  0.0074
10815TIP3   OH253935   0.509   0.998   5.555 -0.0959  0.8264  0.1841
10815TIP3    H153936   0.531   0.926   5.496 -2.7309  0.8145 -0.9062
10815TIP3    H253937   0.510   1.076   5.500 -0.4505  1.1498  0.6258
10816TIP3   OH253938   1.251   5.736   1.519  0.6556 -1.0363  0.1173
10816TIP3    H153939   1.205   5.749   1.602 -1.8888 -1.5178 -1.1303
10816TIP3    H253940   1.288   5.648   1.525  1.0102 -0.8352  0.9589
10817TIP3   OH253941   1.392   5.204   0.447  0.1313  0.4160  0.1746
10817TIP3    H153942   1.343   5.129   0.413  0.7310 -0.2174  0.6859
10817TIP3    H253943   1.325   5.272   0.460 -0.2322  0.4232 -1.4937
10818TIP3   OH253944   4.877   4.541   1.926  0.4800 -0.3371  0.2942
10818TIP3    H153945   4.840   4.555   1.839  2.0021 -2.9225 -0.8960
10818TIP3    H253946   4.954   4.487   1.911  2.6807  1.7401  2.9922
10819TIP3   OH253947   6.172   0.729  12.163 -0.4343 -0.5342  0.0723
10819TIP3    H153948   6.149   0.749  12.254  2.3442  0.1449  0.7220
10819TIP3    H253949   6.180   0.634  12.160  0.0796 -0.5205  0.7420
10820TIP3   OH253950   0.269   1.462   0.203  0.3641  0.5343 -0.8884
10820TIP3    H153951   0.333   1.520   0.162  1.8247 -0.8896 -0.7415
10820TIP3    H253952   0.201   1.450   0.137  1.9459 -0.5602 -2.4373
10821TIP3   OH253953   1.684   0.281  15.754  0.2890 -0.6428 -0.3880
10821TIP3    H153954   1.703   0.190  15.777 -0.4093 -0.8117 -0.4712
10821TIP3    H253955   1.595   0.279  15.720 -0.8774  0.4959  2.2917
10822TIP3   OH253956   1.398   4.354  14.057 -0.0987  0.8765  0.0417
10822TIP3    H153957   1.461   4.417  14.092  0.5176  0.1988  0.1710
10822TIP3    H253958   1.450   4.299  13.998 -0.7093  0.7285 -0.3643
10823TIP3   OH253959   5.266   4.069  13.632 -0.4705 -0.4659 -0.0065
10823TIP3    H153960   5.189   4.102  13.585  0.5103  0.5327 -0.9930
10823TIP3    H253961   5.329   4.051  13.562  1.4878  2.2173  0.8941
10824TIP3   OH253962   1.475   1.206  15.622 -0.0979  0.5366  0.4087
10824TIP3    H153963   1.518   1.257  15.691 -1.7724  1.9460  0.5002
10824TIP3    H253964   1.512   1.239  15.540  1.3042 -0.5640  0.5773
10825TIP3   OH253965   2.733   1.402   4.574  0.6578 -0.3572 -0.7867
10825TIP3    H153966   2.827   1.383   4.577  0.6768 -0.1799 -0.1460
10825TIP3    H253967   2.713   1.408   4.481  1.7103  1.7852 -0.9220
10826TIP3   OH253968   1.876   0.288  14.319  0.3441 -0.0403  0.5176
10826TIP3    H153969   1.791   0.256  14.351  0.5481 -0.0323  1.0855
10826TIP3    H253970   1.890   0.370  14.366 -0.8957  1.7708 -2.0513
10827TIP3   OH253971   6.426   2.219  14.524  0.2122  0.3746 -0.1301
10827TIP3    H153972   6.483   2.203  14.448 -0.5928 -2.3117 -0.2537
10827TIP3    H253973   6.369   2.142  14.528  1.3361 -0.4818  4.2043
10828TIP3   OH253974   2.320   1.537   5.852 -0.2032  0.5952  0.2145
10828TIP3    H153975   2.232   1.508   5.826  0.3119  0.3394 -1.3427
10828TIP3    H253976   2.350   1.471   5.914  0.0923 -1.0654 -1.6053
10829TIP3   OH253977   4.590   4.485   2.013 -0.1360  0.4302 -0.1825
10829TIP3    H153978   4.605   4.559   2.072 -0.4080  1.2625 -1.1248
10829TIP3    H253979   4.654   4.497   1.943 -1.3862  0.8193 -1.2873
10830TIP3   OH253980   4.440   4.410  16.473 -0.1671 -0.2173 -0.6232
10830TIP3    H153981   4.440   4.500  16.440  1.1937 -0.1693 -0.5309
10830TIP3    H253982   4.451   4.420  16.568  0.5355 -0.4868 -0.6706
10831TIP3   OH253983   6.172   2.813  11.337 -0.4800  0.2483  0.9472
10831TIP3    H153984   6.104   2.750  11.357  0.2625 -1.4939 -1.4958
10831TIP3    H253985   6.131   2.874  11.276 -0.0486 -0.5568 -0.1935
10832TIP3   OH253986   3.229   6.107  13.361 -0.4379 -0.8678  0.0644
10832TIP3    H153987   3.193   6.019  13.350  2.4850 -2.1898  0.1636
10832TIP3    H253988   3.153   6.161  13.385 -2.3648 -3.2783 -0.1718
10833TIP3   OH253989   2.579   6.739  11.451  0.2038  0.1135 -0.3667
10833TIP3    H153990   2.538   6.760  11.367  1.4367  1.5877 -0.6534
10833TIP3    H253991   2.651   6.802  11.458  0.6798 -0.5826  1.3830
10834TIP3   OH253992   2.022   4.112  14.624  0.5207  0.7069  0.1714
10834TIP3    H153993   2.051   4.031  14.665 -0.3957  0.3003  0.0597
10834TIP3    H253994   1.971   4.156  14.692 -1.5674 -0.2816 -0.6557
10835TIP3   OH253995   3.429   2.992   5.182 -0.4798 -0.8441 -0.1429
10835TIP3    H153996   3.486   3.036   5.244 -1.1328 -0.5601  0.2654
10835TIP3    H253997   3.412   2.906   5.222 -2.0217 -0.1528  0.7837
10836TIP3   OH253998   3.636   5.309   2.415  0.1508  0.2055 -0.4968
10836TIP3    H153999   3.618   5.215   2.414 -0.4880  0.3277 -0.3624
10836TIP3    H254000   3.615   5.337   2.503  1.4104  0.2795 -0.1994
10837TIP3   OH254001   6.565   0.926   3.645  0.0698  0.2690 -0.5194
10837TIP3    H154002   6.505   0.922   3.571  1.5337 -0.7104 -1.7145
10837TIP3    H254003   6.624   0.999   3.624  0.3095  0.1814 -0.1691
10838TIP3   OH254004   4.067   6.392  14.693 -0.5665 -0.2157  0.2298
10838TIP3    H154005   3.973   6.383  14.683 -0.3500 -1.0397 -1.3591
10838TIP3    H254006   4.094   6.315  14.742 -0.7475  0.1959  0.9897
10839TIP3   OH254007   4.264   3.935  16.982 -0.2062  0.2603  0.6573
10839TIP3    H154008   4.229   3.872  16.919 -0.7389  0.0394  1.1602
10839TIP3    H254009   4.187   3.983  17.013  0.0933  0.5987  0.8859
10840TIP3   OH254010   2.781   4.045  12.371 -0.6352  0.4456  0.0664
10840TIP3    H154011   2.848   4.102  12.407 -0.5941  0.5876 -0.2343
10840TIP3    H254012   2.819   4.012  12.289 -0.4485 -0.4128  0.4856
10841TIP3   OH254013   5.901   2.567  10.819  0.3815 -0.4447  0.0797
10841TIP3    H154014   5.806   2.576  10.830  0.4934  0.2982  0.4672
10841TIP3    H254015   5.916   2.580  10.725  0.1673  0.0549  0.1135
10842TIP3   OH254016   6.230   4.463   4.631 -1.3005 -0.0514  0.0691
10842TIP3    H154017   6.175   4.407   4.686  0.0198 -0.5626  0.9321
10842TIP3    H254018   6.230   4.548   4.675  0.4707 -0.6970  1.4371
10843TIP3   OH254019   0.608   3.420   2.129 -0.4606 -0.1240  0.2216
10843TIP3    H154020   0.588   3.344   2.182  0.8184 -1.3740 -1.0026
10843TIP3    H254021   0.561   3.492   2.171  0.3682 -1.0553  2.9520
10844TIP3   OH254022   0.194   6.337  14.552  0.6567 -0.3387  0.0662
10844TIP3    H154023   0.268   6.313  14.607 -1.0631 -0.1525  2.6454
10844TIP3    H254024   0.155   6.254  14.525  0.2114 -0.4497  1.0317
10845TIP3   OH254025   0.900   1.948  11.332 -0.0343 -0.7824 -0.0433
10845TIP3    H154026   0.958   2.024  11.340 -0.6310 -0.4587  1.6226
10845TIP3    H254027   0.834   1.975  11.268 -0.0615 -0.0019  0.2974
10846TIP3   OH254028   2.309   3.979  14.210  0.1827 -0.7466  0.0980
10846TIP3    H154029   2.263   3.896  14.222  0.5469 -0.8041  1.2779
10846TIP3    H254030   2.242   4.041  14.184 -0.0955 -1.4062 -0.7823
10847TIP3   OH254031   0.646   1.865  14.527  0.5276 -0.4730 -0.5285
10847TIP3    H154032   0.707   1.809  14.575 -1.6953 -1.8109  0.9140
10847TIP3    H254033   0.631   1.939  14.586  0.0579 -0.6355 -0.4377
10848TIP3   OH254034   3.982   0.750   5.908 -0.1619  0.3823  0.2626
10848TIP3    H154035   3.917   0.695   5.950 -2.2549  1.0686 -1.9065
10848TIP3    H254036   3.999   0.708   5.824  3.4725 -0.6243  1.3176
10849TIP3   OH254037   4.406   1.787  12.735  0.5370  0.1329 -0.0805
10849TIP3    H154038   4.457   1.839  12.672 -0.2412 -0.7073 -1.4687
10849TIP3    H254039   4.435   1.818  12.820  2.8446  0.2076 -0.8065
10850TIP3   OH254040   3.342   1.514  14.003 -0.7290 -0.0972  0.6581
10850TIP3    H154041   3.357   1.513  13.909  0.3395 -0.4765  0.8242
10850TIP3    H254042   3.341   1.607  14.026  2.2401  0.0105  0.7283
10851TIP3   OH254043   4.494   4.344   6.198  0.0226  0.3434 -0.1168
10851TIP3    H154044   4.464   4.408   6.263 -0.8463 -0.4192  0.2557
10851TIP3    H254045   4.419   4.332   6.140  0.2798 -0.1271 -0.3537
10852TIP3   OH254046   5.573   0.209  13.237  0.5167 -0.5485  0.2714
10852TIP3    H154047   5.545   0.187  13.326 -0.9679  0.4585  0.0986
10852TIP3    H254048   5.510   0.275  13.207  1.3809 -0.3586 -1.2872
10853TIP3   OH254049   1.265   2.333  15.818 -0.2114  0.7350  0.2913
10853TIP3    H154050   1.300   2.246  15.836  1.5748  0.7924 -2.3860
10853TIP3    H254051   1.334   2.393  15.848 -0.5861  1.1644  0.3105
10854TIP3   OH254052   3.307   4.570   3.925 -0.0777 -0.4772  0.0256
10854TIP3    H154053   3.327   4.510   3.997 -0.3662  2.0186  2.3297
10854TIP3    H254054   3.215   4.594   3.938  0.3365  1.3348 -0.0850
10855TIP3   OH254055   1.589   4.594  13.730 -0.3523 -0.1776  0.0259
10855TIP3    H154056   1.585   4.499  13.723 -0.7553 -0.2272  0.8042
10855TIP3    H254057   1.570   4.626  13.642  1.2883 -0.8367 -0.6083
10856TIP3   OH254058   5.896   6.113   2.952  0.1297 -0.0680  0.1948
10856TIP3    H154059   5.903   6.167   2.874 -1.2176  2.0204  1.4371
10856TIP3    H254060   5.821   6.056   2.936  0.8553 -0.8052 -0.6614
10857TIP3   OH254061   6.432   1.315  14.469 -0.0881  0.7089  0.0325
10857TIP3    H154062   6.435   1.385  14.404 -0.1737 -0.4630 -1.2877
10857TIP3    H254063   6.415   1.236  14.418  2.6648 -0.7209  1.0915
10858TIP3   OH254064   2.406   0.963   3.334  0.6332  0.5245  0.1505
10858TIP3    H154065   2.459   0.886   3.317 -0.1047 -0.3479  1.6206
10858TIP3    H254066   2.319   0.929   3.354  0.6237  1.5943  2.2627
10859TIP3   OH254067   3.770   3.028   3.412 -0.0469 -0.0959 -0.6867
10859TIP3    H154068   3.864   3.025   3.429 -0.2933 -1.5942  0.6480
10859TIP3    H254069   3.734   3.073   3.489 -0.3694  1.1445 -1.5426
10860TIP3   OH254070   3.063   6.155  15.591  0.2365  0.1220 -0.1319
10860TIP3    H154071   3.056   6.062  15.614 -0.8532  0.0887 -0.5732
10860TIP3    H254072   3.144   6.183  15.633  0.2287 -0.8595  0.5799
10861TIP3   OH254073   6.595   4.812   2.589  0.3162  0.0208 -0.6833
10861TIP3    H154074   6.589   4.885   2.527 -0.8552 -0.0870 -0.7267
10861TIP3    H254075   6.669   4.834   2.645  1.9522 -0.2759 -2.6220
10862TIP3   OH254076   5.607   1.510  15.350  0.0190  0.2127  0.5110
10862TIP3    H154077   5.573   1.472  15.431  0.1955 -1.5115 -0.1826
10862TIP3    H254078   5.530   1.546  15.307  0.0929  2.3071  1.9777
10863TIP3   OH254079   4.276   2.394  16.327  0.3998 -0.3707  0.0475
10863TIP3    H154080   4.268   2.464  16.392  2.7916 -0.4236  0.5207
10863TIP3    H254081   4.340   2.334  16.365 -1.1953 -2.5780 -0.5887
10864TIP3   OH254082   6.052   1.378  17.065  0.0949 -0.1461 -0.1009
10864TIP3    H154083   6.074   1.299  17.113 -0.5744 -0.9424 -1.0606
10864TIP3    H254084   6.043   1.349  16.974 -0.5197  0.9582 -0.4072
10865TIP3   OH254085   3.470   0.792  12.786 -0.0044 -0.2691  0.0005
10865TIP3    H154086   3.522   0.795  12.866  0.2892  0.4512 -0.2070
10865TIP3    H254087   3.493   0.873  12.739 -2.6232  1.0454  0.7649
10866TIP3   OH254088   1.103   4.552  13.166  0.4509 -0.1845 -0.2003
10866TIP3    H154089   1.100   4.646  13.147  0.1208  0.1788  1.5117
10866TIP3    H254090   1.102   4.510  13.079 -1.4805  1.3339 -0.9997
10867TIP3   OH254091   0.249   4.247   2.758  0.1118  0.6593  0.3505
10867TIP3    H154092   0.310   4.320   2.773  0.6801  0.0525  1.0458
10867TIP3    H254093   0.188   4.251   2.831  0.2081  0.3844  0.4493
10868TIP3   OH254094   5.624   3.844  12.405  0.4089  0.5341 -0.3261
10868TIP3    H154095   5.580   3.877  12.327 -0.8638  0.2439  0.2424
10868TIP3    H254096   5.683   3.776  12.372 -0.8305 -0.2742 -0.9545
10869TIP3   OH254097   5.936   0.283  13.187  0.2486  0.2717 -0.2651
10869TIP3    H154098   5.976   0.213  13.135 -0.3163 -0.8932  0.7955
10869TIP3    H254099   6.004   0.306  13.251 -0.0405 -0.3045  0.2648
10870TIP3   OH254100   4.307   6.131  15.955  0.3546 -0.5853  0.0265
10870TIP3    H154101   4.212   6.133  15.946  0.2336 -3.4945 -0.3228
10870TIP3    H254102   4.322   6.144  16.049 -0.2464  1.3968 -0.1159
10871TIP3   OH254103   2.066   4.941  13.992 -0.1331 -0.6616  0.2836
10871TIP3    H154104   2.074   4.853  13.955 -0.4434 -0.2187 -0.8651
10871TIP3    H254105   1.989   4.978  13.949  0.7141  0.6196 -0.1796
10872TIP3   OH254106   5.566   3.278  12.845  0.4352  0.3881  0.7138
10872TIP3    H154107   5.603   3.340  12.908  0.2065 -1.2743  2.5586
10872TIP3    H254108   5.548   3.200  12.896  0.7543 -1.2523 -1.5443
10873TIP3   OH254109   6.267   6.628   5.236 -0.0721  0.1007 -0.1979
10873TIP3    H154110   6.297   6.543   5.268  1.7598  1.0118  0.6441
10873TIP3    H254111   6.216   6.665   5.309 -1.0117 -0.3038 -0.6244
10874TIP3   OH254112   2.257   5.969  14.138 -0.1187 -0.1711  0.0837
10874TIP3    H154113   2.279   5.987  14.229 -0.6866 -0.1987  0.2317
10874TIP3    H254114   2.167   5.936  14.141  0.5236 -2.0541 -0.2833
10875TIP3   OH254115   1.298   3.489  15.510  0.4154  0.2087 -0.0059
10875TIP3    H154116   1.372   3.486  15.450  0.5851 -0.6624  0.2318
10875TIP3    H254117   1.336   3.519  15.593  0.3718  0.4352 -0.0683
10876TIP3   OH254118   3.578   2.299   1.986 -0.1018  0.6960  0.3690
10876TIP3    H154119   3.638   2.234   2.023 -0.3347  0.3997  0.2269
10876TIP3    H254120   3.629   2.342   1.918 -1.0876 -1.9583 -2.2597
10877TIP3   OH254121   3.945   4.694   5.252 -0.0998  0.0851  1.1409
10877TIP3    H154122   3.896   4.774   5.270 -1.5888 -0.7441  0.9036
10877TIP3    H254123   3.938   4.682   5.158  0.3192 -0.2046  1.1450
10878TIP3   OH254124   4.854   0.370   4.715 -0.2805 -0.2363 -0.3838
10878TIP3    H154125   4.836   0.296   4.773  0.1273  0.8977  1.2593
10878TIP3    H254126   4.947   0.361   4.692  0.0297  0.2975  0.6287
10879TIP3   OH254127   6.234   0.882  14.919 -0.5354  0.4914  0.7955
10879TIP3    H154128   6.245   0.955  14.857 -0.7203  0.8177  1.1447
10879TIP3    H254129   6.291   0.905  14.992 -1.3951  0.8151  1.3822
10880TIP3   OH254130   3.364   0.742  13.179  0.6612  0.1011  0.2636
10880TIP3    H154131   3.329   0.814  13.231 -0.4207  0.2940 -0.6864
10880TIP3    H254132   3.335   0.663  13.224  0.7491  0.2564  0.5954
10881TIP3   OH254133   5.005   5.577   3.068 -0.2716 -0.0373  0.0793
10881TIP3    H154134   5.032   5.660   3.029 -2.1788  0.5493 -0.0988
10881TIP3    H254135   4.961   5.602   3.149  0.1223 -0.9700  0.6002
10882TIP3   OH254136   5.478   0.558   5.343  0.1343 -0.1324  0.1156
10882TIP3    H154137   5.447   0.496   5.409 -0.4874 -0.0248 -0.0631
10882TIP3    H254138   5.549   0.606   5.386 -1.1551  0.8982  1.2228
10883TIP3   OH254139   5.958   3.851  11.977 -0.6538 -0.0757  0.0214
10883TIP3    H154140   6.033   3.910  11.973 -0.5081 -0.2812 -3.4862
10883TIP3    H254141   5.991   3.774  12.024  0.8506  0.4398 -0.1306
10884TIP3   OH254142   2.949   4.065  11.897  0.2395  0.1090 -0.0103
10884TIP3    H154143   2.860   4.080  11.864 -1.0620 -2.1276  2.0860
10884TIP3    H254144   3.003   4.059  11.819 -1.7295  0.1136 -1.4477
10885TIP3   OH254145   2.046   4.318   4.513 -0.9292  0.6036  0.1157
10885TIP3    H154146   2.046   4.401   4.465 -0.6299  1.6217  1.7910
10885TIP3    H254147   1.990   4.335   4.589 -0.5379 -0.6051  0.6874
10886TIP3   OH254148   6.055   1.139  15.052 -0.7044  0.1072  0.2378
10886TIP3    H154149   5.974   1.139  15.002 -0.6387  0.4867  0.1299
10886TIP3    H254150   6.088   1.049  15.044  0.5553  0.7066 -2.4766
10887TIP3   OH254151   5.903   0.091   0.941 -0.0651 -0.3006 -0.2174
10887TIP3    H154152   5.951   0.048   0.871 -1.0084 -0.0320 -1.0528
10887TIP3    H254153   5.835   0.141   0.896  0.4564  1.3677  0.7798
10888TIP3   OH254154   1.891   5.527  15.006  0.0083  0.9316 -0.0258
10888TIP3    H154155   1.815   5.572  14.968 -1.1510 -2.3455 -1.9553
10888TIP3    H254156   1.958   5.532  14.937 -0.1484 -0.2630 -0.2746
10889TIP3   OH254157   4.429   2.930  10.988  0.0416  0.6914 -0.3843
10889TIP3    H154158   4.500   2.869  11.005  0.0933  0.3405 -1.8070
10889TIP3    H254159   4.459   2.982  10.913 -0.7391  1.2918 -0.2941
10890TIP3   OH254160   0.270   6.776   2.824  0.4418  0.2162  0.0720
10890TIP3    H154161   0.240   6.864   2.847 -0.0364  0.3299 -0.9264
10890TIP3    H254162   0.299   6.785   2.733 -2.2488 -1.2827 -1.0134
10891TIP3   OH254163   2.830   5.092   4.430  0.0638  0.2493 -0.6352
10891TIP3    H154164   2.860   5.183   4.433  0.1499  0.1981  2.2941
10891TIP3    H254165   2.734   5.099   4.428  0.0705  0.3507 -1.9176
10892TIP3   OH254166   2.656   1.862  15.723 -0.2792  0.1890  0.2220
10892TIP3    H154167   2.665   1.790  15.661  2.7318 -0.1835  0.9058
10892TIP3    H254168   2.674   1.822  15.808 -1.9110  1.1575  1.0692
10893TIP3   OH254169   2.580   3.921  16.167 -0.0913 -0.1917  0.3096
10893TIP3    H154170   2.667   3.923  16.127  0.8921  0.2574  2.3523
10893TIP3    H254171   2.579   3.840  16.218 -0.8232 -0.1116  0.4305
10894TIP3   OH254172   1.530   6.248   1.604  0.5676 -0.1565  0.2125
10894TIP3    H154173   1.466   6.319   1.606  1.4177  0.6071  1.2774
10894TIP3    H254174   1.488   6.179   1.552 -1.2234  0.2134  1.0938
10895TIP3   OH254175   2.099   4.792   3.481 -0.3398 -0.4626 -0.2737
10895TIP3    H154176   2.188   4.820   3.503 -0.5259  1.0645 -1.2835
10895TIP3    H254177   2.107   4.699   3.461  1.3477 -0.0162 -1.9043
10896TIP3   OH254178   1.725   1.925  17.097 -0.5036 -0.2141 -0.0557
10896TIP3    H154179   1.657   1.955  17.157 -0.1319  0.8680 -0.1503
10896TIP3    H254180   1.703   1.834  17.079 -1.6031 -0.0442  0.3613
10897TIP3   OH254181   0.114   0.986   2.153 -0.0825  0.0007  0.1953
10897TIP3    H154182   0.134   0.899   2.188 -1.2408 -0.5629 -0.5063
10897TIP3    H254183   0.155   0.987   2.066 -2.3882 -0.9330 -0.9918
10898TIP3   OH254184   0.795   5.565  12.361  0.3274 -0.3510 -0.5870
10898TIP3    H154185   0.789   5.497  12.293 -0.4980 -0.4061 -0.4719
10898TIP3    H254186   0.800   5.516  12.443  1.9560 -0.2958 -0.6244
10899TIP3   OH254187   1.112   1.146  14.085  0.2166  0.4165  0.3474
10899TIP3    H154188   1.086   1.235  14.065  0.1018  0.3288  0.1015
10899TIP3    H254189   1.039   1.109  14.135  0.7098  0.7902  1.3713
10900TIP3   OH254190   4.138   1.898   1.113  0.3745  0.0219 -0.4575
10900TIP3    H154191   4.119   1.913   1.021 -1.7739  0.3602 -0.0135
10900TIP3    H254192   4.220   1.944   1.129 -0.0120  1.2479 -1.8574
10901TIP3   OH254193   5.503   3.960  16.816  0.0956 -0.2290 -0.6371
10901TIP3    H154194   5.514   3.953  16.721 -1.3231 -0.0114 -0.8374
10901TIP3    H254195   5.512   3.870  16.847  0.6703 -0.2892 -0.9596
10902TIP3   OH254196   6.445   6.098  12.800  0.1686 -0.6176 -0.0810
10902TIP3    H154197   6.352   6.100  12.825  0.2003 -0.7680  0.0502
10902TIP3    H254198   6.489   6.060  12.876  0.6261  1.4973  0.8018
10903TIP3   OH254199   3.109   2.664   3.031 -0.0550  0.3781  0.4542
10903TIP3    H154200   3.029   2.706   3.000  0.0225  0.8266  0.8560
10903TIP3    H254201   3.084   2.621   3.112 -0.1916 -0.5671 -0.0770
10904TIP3   OH254202   5.398   3.639  13.598 -0.4641  0.1482 -0.8326
10904TIP3    H154203   5.380   3.697  13.524  0.7392  1.2518 -0.2913
10904TIP3    H254204   5.419   3.698  13.671  0.6116 -0.9510 -0.2092
10905TIP3   OH254205   0.430   1.971   5.521 -0.2657  0.0427 -0.4985
10905TIP3    H154206   0.515   1.990   5.559 -0.2090  0.3059 -0.7487
10905TIP3    H254207   0.449   1.944   5.431 -0.5344  1.6376 -1.0718
10906TIP3   OH254208   6.478   1.834  13.972  0.0581 -0.0175 -0.2198
10906TIP3    H154209   6.529   1.908  13.937 -2.5856  2.7227  1.2519
10906TIP3    H254210   6.400   1.832  13.917 -1.0400 -0.0631  1.3090
10907TIP3   OH254211   4.132   0.929   1.881 -0.1116 -0.3069  0.1211
10907TIP3    H154212   4.096   1.015   1.901  1.3329  0.0085  1.5685
10907TIP3    H254213   4.075   0.894   1.812 -2.0023  0.9013  1.0071
10908TIP3   OH254214   6.785   0.128  12.129 -0.6376  0.1588  0.1314
10908TIP3    H154215   6.721   0.154  12.196  0.4270  0.6082  0.9898
10908TIP3    H254216   6.869   0.132  12.173 -0.1980 -3.0283 -0.2021
10909TIP3   OH254217   1.969   6.587   4.443 -0.4088 -0.2744 -0.1454
10909TIP3    H154218   1.882   6.622   4.423  0.0432 -0.0952 -1.9663
10909TIP3    H254219   2.029   6.650   4.403  0.4670 -2.0156 -1.6794
10910TIP3   OH254220   2.774   3.961   4.203 -0.2241  0.2151  0.1551
10910TIP3    H154221   2.796   3.880   4.249  1.1805  0.6446  0.2876
10910TIP3    H254222   2.779   3.937   4.110 -1.0520 -0.1546  0.2056
10911TIP3   OH254223   2.190   3.172   1.514 -0.1145 -0.1141 -0.0627
10911TIP3    H154224   2.203   3.082   1.484 -0.3939 -0.3551  0.5236
10911TIP3    H254225   2.273   3.195   1.556  0.3386  0.2825 -1.1327
10912TIP3   OH254226   3.886   0.146  14.778  0.4828 -0.1237 -0.5545
10912TIP3    H154227   3.944   0.138  14.702  0.9222  0.8924 -0.3416
10912TIP3    H254228   3.898   0.236  14.808 -1.3775  0.2137 -0.6517
10913TIP3   OH254229   5.987   2.900  13.386 -0.1087  0.2535 -0.3382
10913TIP3    H154230   5.986   2.995  13.377 -0.4066  0.4713  1.6617
10913TIP3    H254231   6.076   2.875  13.364  0.0851  1.0406 -0.4772
10914TIP3   OH254232   5.999   1.782  11.748 -0.1268  0.6017 -0.2435
10914TIP3    H154233   5.982   1.693  11.716 -2.2198  1.0510 -0.5334
10914TIP3    H254234   6.080   1.808  11.704 -1.0708 -0.0803 -2.5538
10915TIP3   OH254235   1.660   1.233  14.643  0.3290  0.4156  0.1449
10915TIP3    H154236   1.683   1.243  14.735 -0.8476 -1.3343  0.6923
10915TIP3    H254237   1.744   1.235  14.597  1.2353 -1.3146  1.5647
10916TIP3   OH254238   2.569   0.934   5.396 -0.0178 -0.0780 -0.6073
10916TIP3    H154239   2.653   0.891   5.377  0.5257 -0.1075  1.5967
10916TIP3    H254240   2.507   0.863   5.406  0.5107 -0.3287  1.3055
10917TIP3   OH254241   5.775   5.329  13.770  0.3866  0.3970 -0.3736
10917TIP3    H154242   5.724   5.402  13.806 -0.6325 -0.5551  0.1761
10917TIP3    H254243   5.853   5.324  13.824 -0.6235 -0.3402  1.0759
10918TIP3   OH254244   5.503   5.863  15.599 -0.3963  1.0652 -0.0994
10918TIP3    H154245   5.536   5.785  15.642 -1.0887 -0.6443 -2.4499
10918TIP3    H254246   5.415   5.840  15.570  0.2796  1.7340 -3.0343
10919TIP3   OH254247   0.098   5.262  15.043  0.6301  0.2325 -0.6142
10919TIP3    H154248   0.098   5.183  14.989 -0.8000 -1.7197  2.0059
10919TIP3    H254249   0.147   5.237  15.122 -2.7540  0.6196  1.8285
10920TIP3   OH254250   4.294   3.782   6.455  0.5168 -0.1349  0.0675
10920TIP3    H154251   4.334   3.813   6.537  1.1280  0.5823 -0.4921
10920TIP3    H254252   4.239   3.708   6.482  0.6759  0.1184  1.1329
10921TIP3   OH254253   3.817   2.979   0.423  0.5220  0.1821 -0.5430
10921TIP3    H154254   3.827   3.022   0.338  2.8501 -0.5217 -0.7153
10921TIP3    H254255   3.803   2.887   0.401 -0.4016  0.2278 -0.1601
10922TIP3   OH254256   6.050   2.293  15.934 -0.2653 -0.0946 -0.0791
10922TIP3    H154257   6.067   2.383  15.961  3.0029 -0.7254  0.4272
10922TIP3    H254258   6.136   2.258  15.911 -1.6691 -2.5294 -2.2033
10923TIP3   OH254259   0.222   5.631  16.037  0.7564 -0.4265 -0.5176
10923TIP3    H154260   0.274   5.698  16.081  1.5317 -0.9427 -0.6211
10923TIP3    H254261   0.140   5.628  16.086  1.1548 -0.1897  0.1775
10924TIP3   OH254262   4.775   6.110  16.681 -0.1142 -0.3709 -0.1075
10924TIP3    H154263   4.816   6.027  16.704  0.6745  0.3471  1.2091
10924TIP3    H254264   4.695   6.114  16.735 -0.6969 -0.7165 -0.9271
10925TIP3   OH254265   2.112   2.704   1.617 -0.4033  0.9324  0.0169
10925TIP3    H154266   2.204   2.727   1.601 -0.4311  1.1433  0.1587
10925TIP3    H254267   2.093   2.738   1.704  0.3213 -1.9113  1.4244
10926TIP3   OH254268   1.605   6.266  12.965  0.1576 -0.3489  0.2880
10926TIP3    H154269   1.576   6.325  13.033 -0.5720  0.9278 -1.0873
10926TIP3    H254270   1.564   6.298  12.885  0.7201 -1.9885 -0.7171
10927TIP3   OH254271   5.757   1.802   3.641 -0.0371  0.7493  0.3705
10927TIP3    H154272   5.727   1.891   3.620 -2.8219 -0.1752  0.0850
10927TIP3    H254273   5.827   1.785   3.578 -1.3868  1.7546 -1.4859
10928TIP3   OH254274   5.221   3.166  14.055  0.3399  0.0418 -0.2102
10928TIP3    H154275   5.296   3.111  14.034  1.1875  0.7078  0.9074
10928TIP3    H254276   5.230   3.242  13.997 -1.7526 -1.6445 -2.9462
10929TIP3   OH254277   4.785   0.133   2.629  0.5206  0.1914  0.0813
10929TIP3    H154278   4.824   0.057   2.586  1.1458  0.4967  0.0992
10929TIP3    H254279   4.708   0.153   2.577  0.1685 -0.6501  0.2639
10930TIP3   OH254280   6.710   5.714   2.392  0.2064  0.0842  0.0876
10930TIP3    H154281   6.750   5.731   2.477  0.3911 -2.8235  0.6853
10930TIP3    H254282   6.780   5.676   2.340 -0.1260  1.0790 -1.1412
10931TIP3   OH254283   6.450   1.344   2.379  0.4650  0.1252 -0.2018
10931TIP3    H154284   6.480   1.260   2.414 -0.1073  0.6928  1.8179
10931TIP3    H254285   6.493   1.351   2.294  0.3368 -2.3004 -0.5417
10932TIP3   OH254286   5.503   2.594  13.634  0.2210  0.3890 -0.1756
10932TIP3    H154287   5.409   2.606  13.649  0.2507  0.7612 -0.2721
10932TIP3    H254288   5.545   2.636  13.709  0.2845 -1.0417  0.6218
10933TIP3   OH254289   6.434   6.451   4.411  0.9354  0.0500  0.2224
10933TIP3    H154290   6.432   6.357   4.431 -0.5387 -0.0759 -0.3585
10933TIP3    H254291   6.480   6.457   4.327  0.3819 -0.2463 -0.1093
10934TIP3   OH254292   2.166   2.796  12.121 -0.0619 -0.0947 -0.0678
10934TIP3    H154293   2.235   2.803  12.187  0.5950 -1.6207 -0.5374
10934TIP3    H254294   2.177   2.708  12.085 -1.3819  0.1495 -1.1353
10935TIP3   OH254295   4.862   1.936  13.859 -0.6349  0.6562 -0.2442
10935TIP3    H154296   4.923   1.890  13.917 -0.5507  0.8660 -0.1662
10935TIP3    H254297   4.778   1.932  13.903 -0.8096 -0.1392 -0.6193
10936TIP3   OH254298   5.238   1.335  11.134  0.1433  0.0304  0.0008
10936TIP3    H154299   5.329   1.336  11.104  0.1130 -0.4080 -0.1052
10936TIP3    H254300   5.205   1.421  11.110  0.1280 -0.2956 -1.2009
10937TIP3   OH254301   5.970   3.403  11.499  0.0122 -0.5027 -0.0311
10937TIP3    H154302   5.930   3.476  11.547 -2.9428 -1.5475 -0.7157
10937TIP3    H254303   6.001   3.442  11.418  0.2309  0.3061  0.4275
10938TIP3   OH254304   5.771   5.190   0.921 -0.6465 -0.4865  0.1596
10938TIP3    H154305   5.715   5.212   0.847 -0.5882 -0.7693  0.0261
10938TIP3    H254306   5.735   5.107   0.955 -0.7112 -0.3280  0.4866
10939TIP3   OH254307   5.423   4.277  16.899 -0.0968  0.1081 -0.0106
10939TIP3    H154308   5.466   4.355  16.865  1.0637 -0.8413 -0.7886
10939TIP3    H254309   5.471   4.256  16.979  0.8638 -0.9069 -0.8366
10940TIP3   OH254310   4.165   6.370   4.819  0.5859  0.2023 -0.4791
10940TIP3    H154311   4.088   6.314   4.829 -0.2345  1.4178  0.2002
10940TIP3    H254312   4.219   6.324   4.755 -0.9346 -0.4292 -1.3729
10941TIP3   OH254313   4.896   2.095   0.087  0.2076 -0.6121 -0.3248
10941TIP3    H154314   4.943   2.174   0.112 -1.1472  0.2684 -0.4618
10941TIP3    H254315   4.943   2.062   0.010  0.7366  0.0920 -0.3047
10942TIP3   OH254316   6.744   6.648  14.108 -0.5260 -0.0371  0.0802
10942TIP3    H154317   6.701   6.667  14.024 -0.6859  0.0545  0.1844
10942TIP3    H254318   6.811   6.716  14.116  0.3615 -0.8021 -0.5984
10943TIP3   OH254319   1.599   5.859   2.409  0.2981 -0.1675 -0.2514
10943TIP3    H154320   1.594   5.814   2.493 -0.6470  0.4961  0.0578
10943TIP3    H254321   1.667   5.925   2.421 -1.5672  1.6676  0.8774
10944TIP3   OH254322   0.163   3.703  12.449  0.1277  0.8083 -0.1050
10944TIP3    H154323   0.236   3.642  12.450  0.4724  1.2181  0.8664
10944TIP3    H254324   0.183   3.763  12.376  1.0810  1.2803  0.5199
10945TIP3   OH254325   4.588   0.037  15.720 -0.4368  0.5695  0.1950
10945TIP3    H154326   4.682   0.021  15.718 -0.7224 -1.3806 -1.5527
10945TIP3    H254327   4.555  -0.022  15.787 -0.3291  2.3744  1.9422
10946TIP3   OH254328   6.298   2.922   5.259  0.0697  0.2998  0.3026
10946TIP3    H154329   6.266   2.997   5.209  0.1604  0.0105 -0.1907
10946TIP3    H254330   6.260   2.846   5.215 -0.8737  0.0926  1.4070
10947TIP3   OH254331   4.907   3.005   2.711 -0.0166 -0.2227  0.0264
10947TIP3    H154332   4.867   3.090   2.698  0.8048  0.5945  2.3610
10947TIP3    H254333   5.001   3.023   2.721  0.1096 -1.2993  1.1098
10948TIP3   OH254334   4.867   5.517   4.121 -0.4242  0.1003 -0.5010
10948TIP3    H154335   4.916   5.574   4.180 -0.8214  0.6742 -0.7121
10948TIP3    H254336   4.854   5.436   4.170 -0.2092  0.3453 -0.0370
10949TIP3   OH254337   0.281   6.420   0.837 -0.4103 -0.1773  0.2419
10949TIP3    H154338   0.286   6.401   0.931  0.4994 -1.3432 -0.0236
10949TIP3    H254339   0.188   6.411   0.816 -0.5413 -0.4457  0.9158
10950TIP3   OH254340   4.700   4.771  12.760 -0.0669  0.2521 -0.4200
10950TIP3    H154341   4.707   4.857  12.801 -1.2935 -0.2880  1.0112
10950TIP3    H254342   4.649   4.786  12.680 -0.9633  0.7469  0.2280
10951TIP3   OH254343   0.659   3.675  11.512  0.3266  0.0404 -0.3513
10951TIP3    H154344   0.637   3.582  11.518 -1.3219  0.4483  0.6375
10951TIP3    H254345   0.734   3.678  11.453 -0.1059 -1.8354 -1.0826
10952TIP3   OH254346   2.409   3.797   0.929 -0.1077  0.0114  0.3349
10952TIP3    H154347   2.489   3.841   0.901 -0.0071  0.5794  1.4658
10952TIP3    H254348   2.385   3.742   0.855  0.9417  0.3648 -0.2885
10953TIP3   OH254349   5.131   4.430   2.967  0.6153  0.2609 -0.5251
10953TIP3    H154350   5.133   4.525   2.983 -1.8328  0.0556  1.7626
10953TIP3    H254351   5.089   4.421   2.882 -0.0323  1.2474 -0.3304
10954TIP3   OH254352   4.717   6.513   5.153 -0.0644  0.8438 -0.3432
10954TIP3    H154353   4.677   6.479   5.073 -1.0588  2.0049 -0.3569
10954TIP3    H254354   4.740   6.603   5.133 -0.8294  1.3284  0.8493
10955TIP3   OH254355   5.631   5.896   5.932  0.0201  0.1122 -0.6596
10955TIP3    H154356   5.714   5.848   5.926  0.5056  0.8359 -0.0331
10955TIP3    H254357   5.563   5.829   5.923  0.6743 -0.5790 -0.5438
10956TIP3   OH254358   5.571   4.295  13.372  0.3273 -0.1900 -0.2326
10956TIP3    H154359   5.542   4.377  13.412  0.5982 -0.9813  1.7342
10956TIP3    H254360   5.564   4.310  13.278  0.7848  2.2293  0.0391
10957TIP3   OH254361   5.259   4.205   1.481 -0.8037 -0.4690  0.1987
10957TIP3    H154362   5.301   4.290   1.471  0.1043 -0.9765 -0.4442
10957TIP3    H254363   5.172   4.225   1.517 -0.5654  0.7076  0.1555
10958TIP3   OH254364   3.824   0.773  11.063 -0.1866  0.2075 -0.1340
10958TIP3    H154365   3.789   0.857  11.034  0.5884  0.5489 -0.0951
10958TIP3    H254366   3.761   0.709  11.030 -1.7679  0.8953  1.3482
10959TIP3   OH254367   0.119   4.492   5.335 -0.1579 -0.1136  0.2944
10959TIP3    H154368   0.076   4.476   5.250  0.0711  1.6599 -0.1976
10959TIP3    H254369   0.122   4.406   5.376 -1.3323 -0.8306 -0.9998
10960TIP3   OH254370   6.681   1.946   1.748  0.9748 -0.5326  0.0051
10960TIP3    H154371   6.714   1.959   1.837 -0.6592 -1.5596  0.8206
10960TIP3    H254372   6.700   1.854   1.729 -0.8961 -1.0245  0.3216
10961TIP3   OH254373   6.267   3.220   4.520  0.0026  0.3184  0.9484
10961TIP3    H154374   6.237   3.238   4.609 -0.4278  0.9492  0.6818
10961TIP3    H254375   6.200   3.258   4.464 -1.3539 -2.7077  0.3231
10962TIP3   OH254376   4.876   5.819  12.790 -0.0347  0.3709  0.0186
10962TIP3    H154377   4.810   5.878  12.825 -0.8138 -0.6140  0.2446
10962TIP3    H254378   4.948   5.877  12.763  0.0924  1.2624  2.0878
10963TIP3   OH254379   1.751   3.367   1.555 -0.6741  0.0395 -0.0609
10963TIP3    H154380   1.740   3.379   1.650 -0.7490  2.0259 -0.2815
10963TIP3    H254381   1.790   3.280   1.547  0.0245  0.1163  1.8454
10964TIP3   OH254382   5.468   3.198   0.486  0.4069  0.1482  0.4851
10964TIP3    H154383   5.444   3.285   0.453 -0.8342 -0.3400  0.0367
10964TIP3    H254384   5.387   3.147   0.480  1.0325 -0.9491  1.0575
10965TIP3   OH254385   0.938   1.197  11.876 -0.0550 -0.7728 -0.0628
10965TIP3    H154386   0.979   1.172  11.794 -1.2357  2.3185 -1.7752
10965TIP3    H254387   1.006   1.246  11.923  0.4696 -2.1443  0.6914
10966TIP3   OH254388   5.058   0.154  16.595  0.7074  0.2378  0.8583
10966TIP3    H154389   5.009   0.189  16.669  0.7833  0.4739  0.7973
10966TIP3    H254390   5.146   0.137  16.631  0.2706 -1.3294  1.2900
10967TIP3   OH254391   2.852   0.244  15.879  0.2353  0.2575 -0.2886
10967TIP3    H154392   2.818   0.210  15.796 -1.5185 -0.0801  0.5320
10967TIP3    H254393   2.820   0.182  15.945  0.6139  1.1585  0.7739
10968TIP3   OH254394   1.066   0.655   5.427 -0.3795  0.8223  0.3187
10968TIP3    H154395   1.087   0.626   5.516 -2.7975 -2.4953 -0.0038
10968TIP3    H254396   1.135   0.617   5.372 -0.6950  0.0363  0.4569
10969TIP3   OH254397   0.307   1.287   5.790  0.0730 -0.0334 -0.1556
10969TIP3    H154398   0.269   1.284   5.702  1.4088 -1.3290 -0.7327
10969TIP3    H254399   0.340   1.376   5.800  2.0398 -0.5051 -1.9467
10970TIP3   OH254400   5.622   4.639  13.664 -0.4666 -0.2971 -0.1365
10970TIP3    H154401   5.626   4.722  13.712  0.1919 -1.0518  1.1643
10970TIP3    H254402   5.711   4.604  13.668 -0.9575 -1.5475  0.2080
10971TIP3   OH254403   4.404   3.251  13.005 -0.1485  0.3687  0.2590
10971TIP3    H154404   4.409   3.157  13.016  3.3827  0.4500  0.6643
10971TIP3    H254405   4.495   3.280  13.003 -1.0664  3.8818  1.0233
10972TIP3   OH254406   0.536   3.404  11.451  0.1364 -0.6206 -0.0254
10972TIP3    H154407   0.589   3.391  11.373 -0.8752  0.0058 -0.8301
10972TIP3    H254408   0.448   3.421  11.419 -0.3585 -0.5990  1.2578
10973TIP3   OH254409   0.165   2.425  14.589 -0.0362  0.4929  0.7678
10973TIP3    H154410   0.179   2.507  14.637 -0.5742 -0.4374  2.6080
10973TIP3    H254411   0.153   2.453  14.498 -3.7203  2.8560  1.7411
10974TIP3   OH254412   1.530   0.071   4.974  0.4134 -0.0720 -0.0214
10974TIP3    H154413   1.504   0.135   5.041  2.6668  0.7892  0.1281
10974TIP3    H254414   1.504   0.111   4.891 -0.3168 -0.0845  0.1915
10975TIP3   OH254415   2.936   5.704   5.599 -0.2830 -0.2111  0.4149
10975TIP3    H154416   2.972   5.678   5.514 -0.2350  0.8807  0.0797
10975TIP3    H254417   2.846   5.671   5.598  0.5765 -2.8001  1.1827
10976TIP3   OH254418   3.793   4.557   2.000 -0.1588 -0.1488 -0.1471
10976TIP3    H154419   3.780   4.647   1.969 -2.2516 -0.3284  0.0778
10976TIP3    H254420   3.728   4.506   1.952  1.1670 -1.6086 -0.4491
10977TIP3   OH254421   1.538   2.452   5.171 -0.2222  0.3637 -0.0020
10977TIP3    H154422   1.485   2.521   5.130 -0.4826  0.2378  0.1196
10977TIP3    H254423   1.560   2.488   5.257 -1.7328 -0.3516  0.7201
10978TIP3   OH254424   0.160   3.950  13.246  0.0899 -0.2132 -0.3614
10978TIP3    H154425   0.098   3.950  13.320 -0.3063  0.5035 -0.6840
10978TIP3    H254426   0.128   4.020  13.189  0.8345 -0.2676 -0.8446
10979TIP3   OH254427   2.511   3.391  15.186  1.0144 -0.3612 -0.1053
10979TIP3    H154428   2.544   3.480  15.199 -0.3959  0.0686  0.6625
10979TIP3    H254429   2.489   3.361  15.274 -1.4619 -0.2984 -0.6547
10980TIP3   OH254430   6.452   6.731   2.790  0.1504 -0.0133  0.0177
10980TIP3    H154431   6.527   6.710   2.845  0.9516  0.2769 -0.9220
10980TIP3    H254432   6.377   6.732   2.849  0.8824 -0.3591  0.9661
10981TIP3   OH254433   3.173   1.881  16.733  0.6188  0.6333 -0.1425
10981TIP3    H154434   3.265   1.898  16.757  0.1524  1.6247  1.0593
10981TIP3    H254435   3.145   1.962  16.690 -0.1626  1.0082  1.0269
10982TIP3   OH254436   2.794   3.000   3.502 -0.1744  0.3198  0.2868
10982TIP3    H154437   2.780   3.085   3.459 -2.1618 -0.0396  0.1524
10982TIP3    H254438   2.708   2.975   3.535  0.8401 -0.4859  2.5540
10983TIP3   OH254439   1.925   2.242  11.185  0.7176 -0.2241  0.2237
10983TIP3    H154440   1.861   2.172  11.194  0.1892  0.2678  0.3520
10983TIP3    H254441   2.006   2.198  11.160  1.2343 -1.2565  3.3231
10984TIP3   OH254442   0.424   0.645  13.218  0.1384 -0.4756 -0.6424
10984TIP3    H154443   0.397   0.599  13.297  1.4189 -1.1891 -0.5877
10984TIP3    H254444   0.352   0.632  13.156  1.0898 -4.1194 -1.2363
10985TIP3   OH254445   0.399   4.282   5.276  0.0130  0.0166  0.4701
10985TIP3    H154446   0.313   4.240   5.280 -1.3537  2.5533 -0.1446
10985TIP3    H254447   0.438   4.251   5.195 -0.0684 -1.5180  0.9803
10986TIP3   OH254448   1.056   5.535   5.643 -0.3421 -0.3258 -0.3785
10986TIP3    H154449   1.052   5.530   5.739  1.8762 -0.7673 -0.2581
10986TIP3    H254450   1.023   5.622   5.622  0.5387  0.3535  0.9280
10987TIP3   OH254451   6.162   5.902   3.211 -0.1746 -0.5799 -0.3869
10987TIP3    H154452   6.149   5.972   3.147 -0.4513  1.0807  1.3726
10987TIP3    H254453   6.255   5.906   3.233 -0.1298 -0.9678 -0.5070
10988TIP3   OH254454   1.742   5.686   2.645  0.8334 -0.0585  0.4599
10988TIP3    H154455   1.795   5.628   2.700 -0.0583 -1.7279 -0.3685
10988TIP3    H254456   1.804   5.726   2.585  1.6403  0.8388  1.8295
10989TIP3   OH254457   4.308   4.450  13.359 -0.1526 -0.8660  0.5516
10989TIP3    H154458   4.347   4.444  13.272 -1.8743  0.6423 -0.3852
10989TIP3    H254459   4.355   4.385  13.411  3.1992  0.4128 -0.6028
10990TIP3   OH254460   6.786   2.191  10.830  0.3844  0.1667 -0.2851
10990TIP3    H154461   6.704   2.141  10.832  1.2016 -1.1643  0.6019
10990TIP3    H254462   6.825   2.170  10.745  0.2224  0.1461 -0.3548
10991TIP3   OH254463   3.291   2.039  15.074  0.5641 -0.3564  0.0838
10991TIP3    H154464   3.268   1.973  15.008 -1.4825 -1.6167  1.9293
10991TIP3    H254465   3.343   1.992  15.138  2.2483  0.7811 -0.3977
10992TIP3   OH254466   6.566   0.463  13.916  0.4458 -0.0213 -0.6619
10992TIP3    H154467   6.612   0.391  13.872  0.1637 -0.8556  0.3746
10992TIP3    H254468   6.549   0.527  13.846  0.7652 -0.9178 -1.5832
10993TIP3   OH254469   2.306   5.397  12.803 -0.9713 -0.1048 -0.8202
10993TIP3    H154470   2.217   5.374  12.832 -0.7437 -0.5124 -0.4324
10993TIP3    H254471   2.327   5.330  12.737  0.0737 -1.6891  1.0157
10994TIP3   OH254472   2.454   4.399   1.502  0.2196  0.6142 -0.0714
10994TIP3    H154473   2.447   4.316   1.455  1.4050  0.3744  0.1421
10994TIP3    H254474   2.364   4.421   1.525 -0.0444 -1.2652  0.9802
10995TIP3   OH254475   5.121   1.859  11.081 -0.4278  0.1464 -0.1770
10995TIP3    H154476   5.059   1.930  11.096 -1.2112 -0.2710 -1.3151
10995TIP3    H254477   5.074   1.798  11.024  1.6038  0.6611 -2.5617
10996TIP3   OH254478   3.714   4.000  15.710  0.2057 -0.3059 -0.2022
10996TIP3    H154479   3.777   4.011  15.639  0.5107 -0.4765  0.0383
10996TIP3    H254480   3.748   3.925  15.761  0.6968  0.5991  0.8587
10997TIP3   OH254481   6.035   0.709   2.209  0.1414  0.2538 -0.3257
10997TIP3    H154482   6.044   0.794   2.251 -1.2661  1.3190 -2.0388
10997TIP3    H254483   5.969   0.663   2.261  0.9019  0.1880  0.5977
10998TIP3   OH254484   2.783   0.222  11.707  0.1631  0.5219  0.1839
10998TIP3    H154485   2.866   0.270  11.705  0.0231  0.7703  0.3680
10998TIP3    H254486   2.741   0.249  11.788 -0.6814  1.3785 -0.5158
10999TIP3   OH254487   3.848   4.108  14.649 -0.3130  0.0847  0.0045
10999TIP3    H154488   3.810   4.022  14.669  0.5897  0.0187  1.5393
10999TIP3    H254489   3.936   4.089  14.618 -1.0730  0.3104 -2.5301
11000TIP3   OH254490   6.712   5.763  16.761 -0.2364 -0.0024  0.1816
11000TIP3    H154491   6.748   5.741  16.847 -0.9221  2.8820  1.3538
11000TIP3    H254492   6.620   5.736  16.766 -0.2492  0.0657  0.3204
11001TIP3   OH254493   5.880   2.191  13.729 -0.1281 -0.0694  0.0802
11001TIP3    H154494   5.940   2.233  13.790 -0.8769  1.0746  0.0574
11001TIP3    H254495   5.850   2.262  13.671 -0.4985 -0.8599 -0.7347
11002TIP3   OH254496   2.522   6.262  12.000  0.1412  0.2814 -0.4344
11002TIP3    H154497   2.437   6.302  11.983  0.6032  1.4402 -0.0865
11002TIP3    H254498   2.501   6.172  12.026 -0.9081  0.2512 -1.3150
11003TIP3   OH254499   6.152   1.534  15.349  0.4502 -0.8057 -0.3356
11003TIP3    H154500   6.150   1.494  15.262 -1.0388 -0.2430 -0.5979
11003TIP3    H254501   6.063   1.521  15.384 -0.6752  3.2966 -1.0060
11004TIP3   OH254502   5.851   0.462   1.645 -0.0011 -0.0770 -0.2978
11004TIP3    H154503   5.910   0.520   1.597  0.8891 -2.1562 -1.8795
11004TIP3    H254504   5.902   0.382   1.658 -0.8879 -0.2957  2.5262
11005TIP3   OH254505   4.778   1.169  16.952  0.4804 -0.0331 -0.3381
11005TIP3    H154506   4.717   1.243  16.956  0.1628 -0.1759 -1.9488
11005TIP3    H254507   4.822   1.179  16.868  0.5289 -1.5971 -0.5263
11006TIP3   OH254508   2.784   3.610   1.866  0.3747  0.7582 -0.0983
11006TIP3    H154509   2.780   3.558   1.785 -1.5000  1.5123 -0.5307
11006TIP3    H254510   2.698   3.651   1.873  1.2822  2.5999  1.0393
11007TIP3   OH254511   5.186   4.053  16.078 -0.0070 -0.2732  0.1285
11007TIP3    H154512   5.259   4.004  16.042 -1.7980 -2.0369 -1.3673
11007TIP3    H254513   5.116   4.045  16.013 -2.2155 -0.4063  2.3275
11008TIP3   OH254514   4.594   2.928  13.644 -0.5851  0.3105  0.2084
11008TIP3    H154515   4.515   2.920  13.590 -0.4347  0.1829  0.0051
11008TIP3    H254516   4.650   2.987  13.594 -0.4131  0.1299  0.1896
11009TIP3   OH254517   1.055   3.880  12.859  0.0929 -0.0564  0.2624
11009TIP3    H154518   1.038   3.875  12.764 -0.4309 -1.0542  0.3927
11009TIP3    H254519   0.979   3.927  12.893  0.7231  1.1294  0.0976
11010TIP3   OH254520   4.396   2.002  16.239  0.4585 -0.5791  0.4285
11010TIP3    H154521   4.452   2.054  16.181  0.8268 -2.2169 -0.7391
11010TIP3    H254522   4.457   1.949  16.290  0.0494 -0.9697  0.5201
11011TIP3   OH254523   3.426   4.803   3.811  0.3927 -0.4079 -0.6207
11011TIP3    H154524   3.356   4.749   3.847  0.0037  0.7692  0.4283
11011TIP3    H254525   3.506   4.757   3.836  0.0860 -0.2567  0.7466
11012TIP3   OH254526   4.418   4.768  14.873 -0.6754 -0.4571  0.2225
11012TIP3    H154527   4.363   4.723  14.809 -0.4463  0.6152 -0.7693
11012TIP3    H254528   4.371   4.850  14.891  0.2932  0.2232 -0.2250
11013TIP3   OH254529   2.611   2.280  16.293 -0.9500  0.5036  0.1759
11013TIP3    H154530   2.611   2.185  16.310 -0.6314  0.7735  1.8412
11013TIP3    H254531   2.648   2.318  16.373  1.5755  1.8576 -1.4945
11014TIP3   OH254532   1.979   5.941   5.441 -0.6751  0.1719 -0.2047
11014TIP3    H154533   2.035   5.869   5.469  0.1893  1.0971  0.5294
11014TIP3    H254534   1.970   5.996   5.518 -3.2496 -0.2938 -0.0540
11015TIP3   OH254535   6.229   3.251  12.270 -0.3379 -0.6432  0.6269
11015TIP3    H154536   6.150   3.287  12.310 -2.4433 -1.1780 -2.6519
11015TIP3    H254537   6.280   3.327  12.244 -0.4064 -0.2717  1.5391
11016TIP3   OH254538   4.543   3.335  12.739  0.0615 -0.2781  0.1133
11016TIP3    H154539   4.501   3.360  12.821  0.3681 -0.7094  0.4025
11016TIP3    H254540   4.572   3.418  12.701  0.5464 -0.1321  0.7855
11017TIP3   OH254541   2.164   4.739  13.229  0.8930 -0.0588 -0.1911
11017TIP3    H154542   2.192   4.662  13.179  0.0142 -1.1637  0.9514
11017TIP3    H254543   2.078   4.761  13.194  0.5978 -0.3816  0.3167
11018TIP3   OH254544   5.981   4.887   6.205 -0.7066 -0.1317  0.4308
11018TIP3    H154545   5.933   4.844   6.135  0.1029  1.7823 -1.3959
11018TIP3    H254546   6.009   4.815   6.262 -1.6790 -1.7205 -0.9935
11019TIP3   OH254547   6.483   3.809  14.214 -0.0569  0.0984 -0.1028
11019TIP3    H154548   6.563   3.855  14.187  0.2715  0.3877  1.2924
11019TIP3    H254549   6.424   3.878  14.241 -0.6702 -0.1401 -0.8037
11020TIP3   OH254550   6.498   1.566   6.122  0.0263 -0.4693  0.2846
11020TIP3    H154551   6.505   1.478   6.083  1.2704 -0.1288 -0.3017
11020TIP3    H254552   6.463   1.550   6.210 -0.2743 -1.5023 -0.0096
11021TIP3   OH254553   2.802   5.740   6.826 -0.2520  0.1473 -0.2337
11021TIP3    H154554   2.880   5.704   6.868 -1.1958 -1.0065  0.5629
11021TIP3    H254555   2.790   5.686   6.748 -1.3337 -0.9408  0.6561
11022TIP3   OH254556   2.824   2.248   5.043  0.0126 -0.1983 -0.8022
11022TIP3    H154557   2.845   2.201   5.123 -0.5491  0.4635 -0.2500
11022TIP3    H254558   2.757   2.194   5.001  1.8848 -1.7225 -2.0021
11023TIP3   OH254559   4.334   6.567  10.883 -0.2951 -0.6011  0.1404
11023TIP3    H154560   4.369   6.498  10.827 -0.4560 -1.1315  0.6808
11023TIP3    H254561   4.403   6.633  10.886 -0.6532 -0.1213 -1.4331
11024TIP3   OH254562   5.569   5.551  16.966 -0.3420  0.2712 -0.1494
11024TIP3    H154563   5.563   5.544  17.061 -0.1394 -0.0522 -0.1574
11024TIP3    H254564   5.529   5.635  16.945  2.8700  2.1074  0.5520
11025TIP3   OH254565   5.914   2.486   5.787 -0.7759 -0.0723  0.2047
11025TIP3    H154566   5.966   2.411   5.759 -1.1964 -0.2632 -0.0794
11025TIP3    H254567   5.823   2.457   5.778 -0.9486  0.5626 -0.1614
11026TIP3   OH254568   4.806   2.492   4.379 -0.0202 -0.5644  0.1251
11026TIP3    H154569   4.794   2.587   4.383  1.6336 -0.2909 -0.3579
11026TIP3    H254570   4.885   2.480   4.326 -1.3244 -2.3282 -1.5211
11027TIP3   OH254571   2.069   5.690   4.716 -0.9585 -0.7377  0.9951
11027TIP3    H154572   2.120   5.762   4.753 -0.9614 -0.4543  0.4490
11027TIP3    H254573   2.042   5.721   4.630  1.3103 -2.4067 -0.4063
11028TIP3   OH254574   1.761   3.618   0.958 -0.2409  0.2140 -0.1881
11028TIP3    H154575   1.745   3.661   0.874 -0.5732 -0.0907 -0.2897
11028TIP3    H254576   1.706   3.539   0.954  0.2681 -0.1549  0.0350
11029TIP3   OH254577   2.398   1.198   4.482  0.0493  0.0520  0.1643
11029TIP3    H154578   2.329   1.133   4.465  0.1369 -0.6673  2.2758
11029TIP3    H254579   2.448   1.162   4.556  0.2270  2.3996  1.2968
11030TIP3   OH254580   1.241   1.636   2.209  0.1348 -0.6430  0.5826
11030TIP3    H154581   1.165   1.659   2.155 -0.2113 -0.7453  1.0229
11030TIP3    H254582   1.316   1.656   2.153 -0.2281 -2.0968 -0.4784
11031TIP3   OH254583   5.521   3.220   5.442  0.0096 -0.0980  0.4734
11031TIP3    H154584   5.496   3.180   5.359  0.7148 -0.4989  0.4444
11031TIP3    H254585   5.558   3.149   5.494 -0.6367  0.1003  1.2324
11032TIP3   OH254586   4.280   5.097  14.717 -0.2194  0.4267 -0.2363
11032TIP3    H154587   4.230   5.097  14.636 -0.3064  1.2332 -0.1906
11032TIP3    H254588   4.218   5.071  14.785 -1.1855  3.3508  0.1492
11033TIP3   OH254589   0.268   5.433   2.119  0.2136  0.1919 -0.2338
11033TIP3    H154590   0.177   5.411   2.098  0.1287 -1.3202  1.4910
11033TIP3    H254591   0.282   5.519   2.078 -1.8942  0.3445 -0.7560
11034TIP3   OH254592   0.639   4.330  15.060 -0.2834  0.5503 -0.4388
11034TIP3    H154593   0.697   4.260  15.091  2.2079  3.5927  2.6270
11034TIP3    H254594   0.689   4.373  14.990  0.1013  1.6599  0.4872
11035TIP3   OH254595   2.555   2.449   5.101 -0.6048  0.1044 -0.0983
11035TIP3    H154596   2.643   2.414   5.117 -0.2026  1.7440  1.8032
11035TIP3    H254597   2.498   2.373   5.099  0.9696 -1.1378 -2.8402
11036TIP3   OH254598   5.241   0.694   0.594  0.5127 -0.3471  0.0851
11036TIP3    H154599   5.152   0.676   0.562 -0.0568 -0.2446  1.5313
11036TIP3    H254600   5.240   0.787   0.617  0.8805 -0.4227  0.4308
11037TIP3   OH254601   2.745   5.646  13.488 -0.2512 -0.0642 -0.5577
11037TIP3    H154602   2.819   5.587  13.503 -1.4137 -0.9320  2.5950
11037TIP3    H254603   2.668   5.588  13.490 -1.3340  1.3158  1.4580
11038TIP3   OH254604   6.390   0.878   3.433 -0.7670 -0.3365 -0.2659
11038TIP3    H154605   6.441   0.863   3.353  0.1431 -1.5830  0.5056
11038TIP3    H254606   6.327   0.806   3.435 -0.3923 -0.6600  0.4139
11039TIP3   OH254607   6.834   0.663  16.997  0.0005  0.5700 -0.5214
11039TIP3    H154608   6.833   0.701  16.909 -0.3542 -0.5774 -1.0247
11039TIP3    H254609   6.799   0.733  17.053 -0.3996  1.0835 -1.3834
11040TIP3   OH254610   3.483   6.431  10.680  0.4995 -0.2629  0.0201
11040TIP3    H154611   3.478   6.388  10.595  1.1533 -1.1507  0.4172
11040TIP3    H254612   3.577   6.441  10.696  0.3650  1.0706  0.0687
11041TIP3   OH254613   1.248   1.788   1.026 -0.4197  0.6612  0.0926
11041TIP3    H154614   1.289   1.875   1.033 -0.2498  0.6056 -0.1740
11041TIP3    H254615   1.165   1.804   0.981 -0.7844  0.8017  0.8156
11042TIP3   OH254616   1.114   6.194   1.539 -0.0725  0.9400  0.5777
11042TIP3    H154617   1.111   6.214   1.632 -2.5200 -2.0800  1.3100
11042TIP3    H254618   1.175   6.121   1.532  0.5742  1.5465 -0.3259
11043TIP3   OH254619   2.954   1.781   6.528 -0.6598  0.1163 -0.7846
11043TIP3    H154620   2.977   1.698   6.486 -0.6433 -0.7803  0.9063
11043TIP3    H254621   2.861   1.792   6.510 -1.0500 -1.1276  0.3178
11044TIP3   OH254622   1.171   4.521   5.520  0.3841 -0.5227 -0.0216
11044TIP3    H154623   1.185   4.518   5.615  0.5427 -1.9417 -0.0702
11044TIP3    H254624   1.081   4.491   5.509  0.6075 -1.0898 -0.3535
11045TIP3   OH254625   1.874   4.169  16.659  0.2270  0.2638  0.3254
11045TIP3    H154626   1.925   4.170  16.578  1.3109 -0.2899  0.9790
11045TIP3    H254627   1.806   4.235  16.645  0.6809  0.5136 -0.8443
11046TIP3   OH254628   4.725   3.150  12.531 -0.0273 -0.1332  0.0790
11046TIP3    H154629   4.782   3.225  12.551 -0.4512  0.3530 -0.4945
11046TIP3    H254630   4.747   3.128  12.440 -0.9971  0.2881 -0.2707
11047TIP3   OH254631   6.188   2.720   1.064  0.2925  0.0264  0.8689
11047TIP3    H154632   6.213   2.812   1.069 -1.7966  0.7311 -0.1133
11047TIP3    H254633   6.161   2.708   0.972 -2.0169 -0.7939  1.5833
11048TIP3   OH254634   0.464   4.549  14.029 -0.7178 -0.3898  0.1948
11048TIP3    H154635   0.464   4.472  14.086 -0.2930  0.8044  1.9177
11048TIP3    H254636   0.557   4.562  14.008 -0.5814  0.5272  1.2462
11049TIP3   OH254637   4.367   3.379   5.494 -0.0760 -0.0677 -0.1324
11049TIP3    H154638   4.409   3.426   5.422 -1.0527  1.4804  0.2535
11049TIP3    H254639   4.405   3.291   5.491 -0.3432 -0.1622 -2.7299
11050TIP3   OH254640   0.173   1.447   4.205 -0.0594  0.3644  0.1045
11050TIP3    H154641   0.129   1.382   4.150  0.9004 -0.2981  0.1034
11050TIP3    H254642   0.142   1.427   4.294  0.8044 -0.5996  0.2085
11051TIP3   OH254643   6.230   0.895  16.170  0.6607  0.2113 -0.0876
11051TIP3    H154644   6.204   0.876  16.260 -0.9734  0.0112 -0.5624
11051TIP3    H254645   6.325   0.899  16.172  0.6496  0.1182  1.6253
11052TIP3   OH254646   6.444   3.637   0.044  0.0130  0.3580  0.2775
11052TIP3    H154647   6.431   3.605   0.133 -0.3961 -0.7663 -0.1682
11052TIP3    H254648   6.539   3.635   0.032  0.2638  2.5065  1.3654
11053TIP3   OH254649   6.677   3.493  13.052 -0.3129  0.6109 -0.3063
11053TIP3    H154650   6.606   3.557  13.050  0.2949  1.2841 -2.0108
11053TIP3    H254651   6.675   3.452  12.966  1.1799  0.4474 -0.2959
11054TIP3   OH254652   1.546   3.741   5.747  0.2645 -0.0094  0.1557
11054TIP3    H154653   1.547   3.650   5.777  1.0083  0.1591  0.6772
11054TIP3    H254654   1.503   3.789   5.819  0.6132  0.1683  0.2468
11055TIP3   OH254655   4.691   6.640   4.892 -0.0145 -0.1566  0.3506
11055TIP3    H154656   4.726   6.616   4.806 -0.9322  2.4463 -0.8549
11055TIP3    H254657   4.608   6.592   4.899  0.9726 -1.8945  0.7058
11056TIP3   OH254658   4.142   1.379  15.889  0.6256 -0.6132  0.4917
11056TIP3    H154659   4.125   1.339  15.804  2.3158 -2.1643  0.8084
11056TIP3    H254660   4.076   1.448  15.897 -1.2279 -2.1125 -0.9255
11057TIP3   OH254661   6.573   4.165   4.215  0.0553 -0.4413 -0.0735
11057TIP3    H154662   6.568   4.246   4.165 -0.8468 -1.0604 -1.0181
11057TIP3    H254663   6.487   4.158   4.257 -0.0123 -1.1032 -0.3167
11058TIP3   OH254664   3.309   0.257   2.187 -0.1552 -0.1143  0.2722
11058TIP3    H154665   3.239   0.300   2.136  1.8444  0.5064 -2.1477
11058TIP3    H254666   3.358   0.207   2.122  4.2160  2.8623  0.8492
11059TIP3   OH254667   5.183   6.733  14.274  0.1083 -0.3170  0.1265
11059TIP3    H154668   5.109   6.687  14.314  0.1506  0.4320  1.1183
11059TIP3    H254669   5.204   6.802  14.337  0.4773  0.6244 -0.9958
11060TIP3   OH254670   3.853   2.354   2.759 -0.0127  0.1580  0.4088
11060TIP3    H154671   3.863   2.324   2.669 -0.8976 -0.7594  0.5982
11060TIP3    H254672   3.758   2.360   2.772  0.0968  0.0489  1.3471
11061TIP3   OH254673   3.653   2.576  10.818 -0.7321 -0.2482  0.1600
11061TIP3    H154674   3.706   2.656  10.817 -0.1884 -0.5857 -1.3310
11061TIP3    H254675   3.702   2.516  10.874 -0.1818 -0.1175 -0.1611
11062TIP3   OH254676   4.338   2.355   1.824  0.0227  0.1080 -0.0599
11062TIP3    H154677   4.304   2.383   1.910 -0.0984  3.5643 -1.0662
11062TIP3    H254678   4.433   2.353   1.836 -0.0073  0.3177  0.2220
11063TIP3   OH254679   2.532   6.044  12.981 -0.6414 -0.0543 -0.0244
11063TIP3    H154680   2.551   6.114  12.919 -0.5285 -0.2659 -0.2334
11063TIP3    H254681   2.457   5.999  12.943 -1.1414  0.3648  0.4547
11064TIP3   OH254682   0.902   4.564  12.304  0.9718 -0.0379 -0.5230
11064TIP3    H154683   0.894   4.498  12.373  0.7676  1.0212  0.4861
11064TIP3    H254684   0.954   4.634  12.343 -0.1712  1.1284 -1.0086
11065TIP3   OH254685   3.416   1.947   3.357 -0.8595 -0.6283 -0.0950
11065TIP3    H154686   3.438   1.855   3.366  0.4510 -0.3635 -0.2925
11065TIP3    H254687   3.347   1.950   3.290 -0.5414 -1.4187 -0.4591
11066TIP3   OH254688   4.792   0.139  11.748 -0.0694  0.3901 -0.5122
11066TIP3    H154689   4.700   0.149  11.771 -0.0849  1.1748 -0.8677
11066TIP3    H254690   4.812   0.216  11.694  0.7375  0.1247 -0.6142
11067TIP3   OH254691   4.528   5.622  14.242  0.0431  0.3489 -0.8937
11067TIP3    H154692   4.557   5.713  14.240  1.1590  0.0415 -0.0202
11067TIP3    H254693   4.467   5.619  14.316 -0.7690  0.5835 -1.5398
11068TIP3   OH254694   5.938   3.552  10.859  0.2830  0.0039 -0.2169
11068TIP3    H154695   5.922   3.537  10.766 -2.6477  1.3790 -0.0215
11068TIP3    H254696   5.921   3.467  10.900 -1.1903  0.0643 -0.6652
11069TIP3   OH254697   2.020   4.768   2.018  0.0866 -0.3206  0.1397
11069TIP3    H154698   2.102   4.735   2.057  2.5807  2.4640 -2.2401
11069TIP3    H254699   2.015   4.725   1.933 -1.1111 -0.6679  0.3786
11070TIP3   OH254700   4.450   2.021   0.912  0.0371  0.2539  0.1732
11070TIP3    H154701   4.516   1.958   0.882  0.9255  1.7333 -1.1484
11070TIP3    H254702   4.457   2.019   1.007 -0.3303 -1.9895  0.1938
11071TIP3   OH254703   2.314   3.228   4.038  0.3338  0.1786  0.5738
11071TIP3    H154704   2.358   3.299   3.993 -0.1532  0.0558 -0.0983
11071TIP3    H254705   2.366   3.150   4.017  0.0766  0.1127  0.1809
11072TIP3   OH254706   1.066   4.054  14.998 -0.4821  0.3884 -0.6508
11072TIP3    H154707   1.062   3.959  14.992 -1.0677  0.2996  0.8168
11072TIP3    H254708   1.117   4.071  15.077 -2.0650  1.2561  0.2171
11073TIP3   OH254709   2.903   0.439  11.249  0.2750 -0.0741 -0.8076
11073TIP3    H154710   2.921   0.461  11.158  3.0824 -0.8660 -0.5193
11073TIP3    H254711   2.924   0.346  11.256  2.5474  0.5065  1.1658
11074TIP3   OH254712   0.417   2.854  16.055  0.0337  0.2970  0.0974
11074TIP3    H154713   0.462   2.785  16.006 -1.4849 -0.2165 -0.6223
11074TIP3    H254714   0.382   2.811  16.132 -0.9238  0.2283 -0.3570
11075TIP3   OH254715   4.285   5.373   2.072 -0.3597 -0.0661  0.6584
11075TIP3    H154716   4.234   5.451   2.093  0.9122  0.3231  2.5301
11075TIP3    H254717   4.348   5.365   2.144 -0.5646 -2.9174  0.6317
11076TIP3   OH254718   2.957   3.458  16.386 -0.4512  0.2059  0.3312
11076TIP3    H154719   3.017   3.481  16.457 -0.3153 -0.5712  0.4699
11076TIP3    H254720   2.875   3.435  16.431 -1.1370  2.0018  0.1146
11077TIP3   OH254721   0.396   4.471   4.384  0.4987 -0.4370  0.2875
11077TIP3    H154722   0.479   4.518   4.380  2.7877 -3.9287  1.6264
11077TIP3    H254723   0.376   4.466   4.478  0.3516 -2.0473  0.2017
11078TIP3   OH254724   6.248   0.898  15.490 -0.0777  0.2917  0.0701
11078TIP3    H154725   6.271   0.935  15.405  0.8810 -0.8917 -0.2214
11078TIP3    H254726   6.226   0.807  15.470 -0.8799  0.2894  0.9536
11079TIP3   OH254727   4.427   3.356   1.790  0.3089  0.0377  0.3508
11079TIP3    H154728   4.471   3.324   1.869 -0.1758  0.6341  0.8664
11079TIP3    H254729   4.341   3.316   1.793  0.6526 -0.7932 -0.4432
11080TIP3   OH254730   3.618   2.635  14.444  0.3041  0.2746 -0.4886
11080TIP3    H154731   3.713   2.644  14.436  0.5030 -0.7868  0.5008
11080TIP3    H254732   3.586   2.648  14.354  1.5278 -0.8962 -1.1446
11081TIP3   OH254733   2.186   0.985  14.933  0.7346  0.2311 -0.1786
11081TIP3    H154734   2.264   0.933  14.917 -0.0687 -1.0953  0.0901
11081TIP3    H254735   2.120   0.951  14.873  0.0623  0.6446  0.2977
11082TIP3   OH254736   6.000   3.910  17.032  0.4603 -0.4210  0.4347
11082TIP3    H154737   5.993   3.947  16.944 -2.0777 -1.7070 -0.0009
11082TIP3    H254738   6.063   3.839  17.024 -0.2135 -0.9268 -0.5183
11083TIP3   OH254739   2.065   1.393  16.312 -0.8259 -0.3504  0.6804
11083TIP3    H154740   2.122   1.387  16.236  1.2675  0.9305  2.0436
11083TIP3    H254741   1.981   1.421  16.277 -0.1032 -0.4262 -1.2199
11084TIP3   OH254742   2.896   0.802  13.668  0.5175 -0.0267  0.4426
11084TIP3    H154743   2.985   0.775  13.647  0.6992  0.9922 -0.1882
11084TIP3    H254744   2.849   0.797  13.585  0.3938  0.8986  0.4455
11085TIP3   OH254745   2.071   3.316   0.894  0.1032 -0.2757 -0.3634
11085TIP3    H154746   2.001   3.255   0.917 -0.0755 -0.6599 -1.8142
11085TIP3    H254747   2.131   3.264   0.841 -0.2425  0.8731 -1.9537
11086TIP3   OH254748   0.543   0.992   3.500 -0.3450 -0.3878  0.2171
11086TIP3    H154749   0.493   1.073   3.507 -0.8999 -0.7686  0.7496
11086TIP3    H254750   0.547   0.958   3.589  0.4859 -0.5947  0.1058
11087TIP3   OH254751   6.846   2.389   2.130  0.3588  0.9822  0.1519
11087TIP3    H154752   6.940   2.371   2.137  0.0963 -1.0588 -0.8185
11087TIP3    H254753   6.805   2.321   2.183 -0.5805  2.1177  0.9213
11088TIP3   OH254754   4.855   1.922   1.114  0.6268 -0.0922  0.6775
11088TIP3    H154755   4.807   1.990   1.160  1.9629  0.1128  1.8409
11088TIP3    H254756   4.903   1.875   1.182 -0.8550 -2.7646  0.0145
11089TIP3   OH254757   1.398   0.527  14.009  0.8302  0.0837  0.0257
11089TIP3    H154758   1.369   0.596  13.949  0.0079  1.2868  1.7259
11089TIP3    H254759   1.494   0.527  14.001  1.0133  2.5348  1.0455
11090TIP3   OH254760   1.334   2.608  13.388 -0.3916  0.3431  0.0446
11090TIP3    H154761   1.388   2.630  13.312 -0.7450  2.2124  0.3010
11090TIP3    H254762   1.385   2.638  13.463 -0.1103 -1.3631  0.5871
11091TIP3   OH254763   3.623   1.969  11.717 -0.0498 -0.6324 -0.8094
11091TIP3    H154764   3.648   1.879  11.735  0.1861 -1.2011 -3.5163
11091TIP3    H254765   3.537   1.962  11.674  0.3411  0.3139 -1.8022
11092TIP3   OH254766   2.442   2.086  10.758  0.2251  0.2493  0.0343
11092TIP3    H154767   2.424   2.153  10.692 -0.8976 -1.5770 -1.6152
11092TIP3    H254768   2.356   2.061  10.792  0.3335 -1.9561 -1.1003
11093TIP3   OH254769   3.014   1.680   2.007  0.0421 -0.4887  0.2399
11093TIP3    H154770   2.952   1.607   2.002 -0.3978 -0.1654  0.8704
11093TIP3    H254771   3.002   1.716   2.095 -1.1643  1.5976 -0.6977
11094TIP3   OH254772   3.279   6.837   6.592  0.1327 -0.2318  0.0808
11094TIP3    H154773   3.262   6.760   6.538 -1.2271  0.7161 -0.9256
11094TIP3    H254774   3.345   6.886   6.543 -1.1897  0.6885 -0.8409
11095TIP3   OH254775   1.662   5.437  15.294 -0.0299  0.2616  0.2834
11095TIP3    H154776   1.634   5.407  15.207  0.3472 -1.4876  0.7316
11095TIP3    H254777   1.757   5.443  15.288  0.1955 -1.8137  1.1105
11096TIP3   OH254778   6.093   2.254  11.176 -0.3335 -0.3173  0.0878
11096TIP3    H154779   6.088   2.328  11.236 -1.0047  1.1300 -1.6615
11096TIP3    H254780   6.045   2.283  11.098  1.8184 -1.4721 -1.7908
11097TIP3   OH254781   1.583   2.823   2.798  0.4758  0.6761  0.3383
11097TIP3    H154782   1.606   2.898   2.853  0.3627  1.6630 -0.9044
11097TIP3    H254783   1.543   2.862   2.720 -2.8537 -0.8014  1.1292
11098TIP3   OH254784   1.910   1.744   4.745 -0.0718 -0.1957 -0.1966
11098TIP3    H154785   1.850   1.819   4.751 -0.0137 -0.1379 -0.3524
11098TIP3    H254786   1.984   1.776   4.695 -0.8889 -0.8974 -1.9405
11099TIP3   OH254787   1.739   4.005  15.728  0.6690 -0.6330  0.2608
11099TIP3    H154788   1.758   4.032  15.818 -0.3913  0.8144  0.0964
11099TIP3    H254789   1.769   4.080  15.675 -1.4264 -0.1525 -0.3184
11100TIP3   OH254790   3.616   1.409   2.494 -0.3233 -0.0098 -0.0583
11100TIP3    H154791   3.646   1.404   2.585  0.2396 -1.9215 -0.2955
11100TIP3    H254792   3.651   1.330   2.454 -0.1843  1.0258 -2.0728
11101TIP3   OH254793   3.389   1.363  11.350 -0.9341  0.0454  0.4019
11101TIP3    H154794   3.450   1.417  11.300 -1.1922  0.4519  0.5207
11101TIP3    H254795   3.357   1.298  11.287 -0.2394 -0.2863  0.3914
11102TIP3   OH254796   6.488   3.863   3.917 -0.6973 -0.1954 -0.2501
11102TIP3    H154797   6.573   3.897   3.941 -0.0044 -1.0439 -1.3721
11102TIP3    H254798   6.425   3.923   3.957  0.3982  0.0685  1.1512
11103TIP3   OH254799   6.731   4.124   2.198  0.2944 -0.2405 -0.5318
11103TIP3    H154800   6.732   4.136   2.103 -1.7119 -0.7826 -0.6571
11103TIP3    H254801   6.726   4.212   2.234  0.8735 -0.0442 -0.9173
11104TIP3   OH254802   5.348   3.301  14.247 -0.2685 -0.8073 -0.2253
11104TIP3    H154803   5.277   3.255  14.201 -0.8762 -0.0497 -0.0573
11104TIP3    H254804   5.392   3.351  14.178 -1.8580  1.1927  0.1494
11105TIP3   OH254805   5.243   4.915  11.474  0.6489  0.0412  0.4033
11105TIP3    H154806   5.150   4.907  11.494  0.3236  0.7977 -0.6634
11105TIP3    H254807   5.282   4.952  11.553 -0.2182  1.0539  0.3832
11106TIP3   OH254808   0.828   0.496  13.131  0.3290 -0.0887  0.3906
11106TIP3    H154809   0.776   0.569  13.167 -0.2705 -0.3879  0.1518
11106TIP3    H254810   0.919   0.522  13.145  0.1430  1.1145 -0.4796
11107TIP3   OH254811   1.734   1.789  14.792 -0.0774  0.2540  0.6467
11107TIP3    H154812   1.785   1.710  14.775 -0.7262 -0.4035  1.6231
11107TIP3    H254813   1.746   1.843  14.714  1.3264 -0.2890  0.4568
11108TIP3   OH254814   2.091   1.122  13.007  0.4891 -0.2034  0.2324
11108TIP3    H154815   2.110   1.093  13.097  0.1593  1.5874  0.9251
11108TIP3    H254816   2.028   1.058  12.975 -0.3827 -0.1845  1.7749
11109TIP3   OH254817   4.400   4.015  12.533 -0.0353  0.1893 -0.0741
11109TIP3    H154818   4.406   3.986  12.442  1.6083  0.4172 -0.0815
11109TIP3    H254819   4.308   4.037  12.546 -0.5561 -1.1109 -1.2785
11110TIP3   OH254820   6.277   1.870   0.991 -0.3733 -0.9036 -0.0972
11110TIP3    H154821   6.308   1.949   1.036  0.5701 -1.4637  0.2555
11110TIP3    H254822   6.350   1.845   0.934  0.5507 -3.1001  1.8431
11111TIP3   OH254823   4.807   1.533  12.824 -0.1476  0.1040  0.0912
11111TIP3    H154824   4.726   1.493  12.857 -0.5687  1.2295  0.4774
11111TIP3    H254825   4.877   1.482  12.865 -0.6681  0.8839  2.0658
11112TIP3   OH254826   5.843   2.115  15.424  0.4219  0.4776  0.2938
11112TIP3    H154827   5.806   2.178  15.362 -0.4681  0.5402  0.8723
11112TIP3    H254828   5.907   2.066  15.372  0.3502  1.1320 -0.4377
11113TIP3   OH254829   2.792   1.507   2.914  0.1192 -0.1864  0.2094
11113TIP3    H154830   2.754   1.594   2.908 -0.1839 -0.2485  1.0822
11113TIP3    H254831   2.810   1.495   3.007 -0.3159 -1.2537  0.1710
11114TIP3   OH254832   4.131   6.188  14.882 -0.3070 -0.0347  0.4866
11114TIP3    H154833   4.182   6.205  14.962  1.2076 -0.9402 -0.2524
11114TIP3    H254834   4.070   6.119  14.907 -1.2051  1.0455  1.3799
11115TIP3   OH254835   5.388   2.682   1.258 -0.2077 -0.1616 -0.8018
11115TIP3    H154836   5.461   2.727   1.216 -0.3373  1.0013  0.1599
11115TIP3    H254837   5.310   2.724   1.222 -0.3207  0.7671  0.4410
11116TIP3   OH254838   6.711   2.806   1.693 -0.5045 -0.2888  0.0517
11116TIP3    H154839   6.806   2.810   1.683 -0.5858 -0.7870 -1.1476
11116TIP3    H254840   6.679   2.781   1.606 -1.8092  0.9079  0.1484
11117TIP3   OH254841   3.898   0.863  14.059  0.0247  0.5509 -0.1772
11117TIP3    H154842   3.904   0.934  14.124  0.6986 -1.6006  2.2696
11117TIP3    H254843   3.972   0.879  14.000 -1.4191  3.3714 -1.4136
11118TIP3   OH254844   0.509   0.394   5.504  0.2604  0.1556 -0.0824
11118TIP3    H154845   0.491   0.487   5.491  0.4410 -0.0295 -1.8565
11118TIP3    H254846   0.511   0.357   5.416  0.2047 -1.5365  0.5920
11119TIP3   OH254847   6.062   6.335  17.008 -0.3117 -0.5318 -0.0093
11119TIP3    H154848   6.027   6.419  16.980 -1.6220 -0.1613  2.4900
11119TIP3    H254849   6.156   6.341  16.990 -0.5076  1.1230 -0.6513
11120TIP3   OH254850   4.456   1.558   4.593 -0.0330  0.3526 -0.3031
11120TIP3    H154851   4.471   1.653   4.588  0.5019  0.2261 -1.7087
11120TIP3    H254852   4.496   1.532   4.676  2.9316  0.8779 -1.4307
11121TIP3   OH254853   3.059   3.804  12.414 -0.6546 -0.4786  0.3794
11121TIP3    H154854   3.086   3.895  12.423 -1.0666 -0.4252  1.2220
11121TIP3    H254855   3.082   3.764  12.499 -0.8313 -1.0636  0.1582
11122TIP3   OH254856   4.569   5.532  14.950  0.3960 -0.1162  0.4229
11122TIP3    H154857   4.487   5.523  14.901 -0.6980 -2.4661  2.4426
11122TIP3    H254858   4.560   5.614  14.998  0.0912  0.6014 -0.8177
11123TIP3   OH254859   2.281   0.169   6.568  0.3048  0.3807 -0.9618
11123TIP3    H154860   2.327   0.106   6.623 -0.6454  0.2154 -0.3499
11123TIP3    H254861   2.198   0.127   6.547 -0.1661  1.2540 -0.8967
11124TIP3   OH254862   0.706   5.324  11.797 -0.4377 -0.0483 -0.2004
11124TIP3    H154863   0.633   5.263  11.800 -0.0531 -0.6117 -1.5905
11124TIP3    H254864   0.776   5.280  11.846 -0.5873 -0.1337 -0.0646
11125TIP3   OH254865   1.973   4.430   1.711  0.6640  0.1343  0.2809
11125TIP3    H154866   1.929   4.361   1.760 -1.5644  1.3165  0.0525
11125TIP3    H254867   1.989   4.499   1.776 -0.2600  0.7864 -0.1685
11126TIP3   OH254868   4.787   2.534  16.724  0.0706 -0.1092  0.0074
11126TIP3    H154869   4.743   2.609  16.765 -0.1016  0.1904 -0.7132
11126TIP3    H254870   4.847   2.573  16.661  2.0988 -0.4535  1.5987
11127TIP3   OH254871   3.827   3.669   4.340  0.2300 -0.5219  0.4723
11127TIP3    H154872   3.789   3.603   4.283 -0.7736  1.1164 -0.8659
11127TIP3    H254873   3.914   3.686   4.302 -0.2710  0.2608 -0.3855
11128TIP3   OH254874   4.057   0.201  14.567  0.3919 -0.5382  0.4597
11128TIP3    H154875   4.105   0.277  14.601 -1.5626  1.5418 -1.0704
11128TIP3    H254876   4.041   0.223  14.475 -2.6207 -1.4842  0.6726
11129TIP3   OH254877   6.152   4.351  14.148 -0.1652 -0.0851 -0.1278
11129TIP3    H154878   6.217   4.421  14.154 -1.0776  0.7943 -0.1625
11129TIP3    H254879   6.069   4.394  14.167 -0.8051 -1.0753 -0.5799
11130TIP3   OH254880   3.204   3.768  15.417 -0.5530 -0.0454  0.6598
11130TIP3    H154881   3.298   3.763  15.400 -0.2663 -2.2622  2.5040
11130TIP3    H254882   3.168   3.810  15.338  1.9582  1.1253  0.0297
11131TIP3   OH254883   0.396   5.934   2.904 -0.0614  0.0613 -0.7367
11131TIP3    H154884   0.442   5.853   2.879  1.4326  1.0729 -1.4215
11131TIP3    H254885   0.311   5.928   2.860 -0.1855 -1.3561 -0.3601
11132TIP3   OH254886   0.650   2.874  16.265  0.3728 -0.2332  0.4130
11132TIP3    H154887   0.740   2.841  16.266  0.2505 -0.6500 -0.6768
11132TIP3    H254888   0.631   2.888  16.172 -0.1349  1.4226  0.7281
11133TIP3   OH254889   4.412   2.407  13.004 -0.6550 -0.2467 -0.2441
11133TIP3    H154890   4.445   2.436  12.919  1.2430 -1.3209  0.0620
11133TIP3    H254891   4.461   2.326  13.022 -2.5307 -1.1921  0.9262
11134TIP3   OH254892   3.168   1.711   2.394 -0.0386 -0.0645  0.2179
11134TIP3    H154893   3.159   1.756   2.479 -0.0839  1.1135 -0.3829
11134TIP3    H254894   3.257   1.676   2.395 -0.4736 -1.2095  1.2759
11135TIP3   OH254895   0.171   0.133  15.620  0.6307  0.3138  0.1081
11135TIP3    H154896   0.080   0.104  15.610  0.7889 -0.1455 -0.0229
11135TIP3    H254897   0.222   0.068  15.571  0.9030  1.4359 -1.1338
11136TIP3   OH254898   0.097   3.406  12.828 -0.0129  0.1869 -0.6051
11136TIP3    H154899   0.019   3.352  12.841  2.2291 -3.0526  0.7798
11136TIP3    H254900   0.113   3.445  12.914  0.6322 -0.3157 -0.4899
11137TIP3   OH254901   6.071   0.990   2.913 -0.2044 -0.0078  0.1343
11137TIP3    H154902   6.060   1.023   2.823 -0.7769 -1.4759 -0.3636
11137TIP3    H254903   6.147   0.933   2.908  0.5670  0.9154  0.9104
11138TIP3   OH254904   0.427   5.882   5.609 -0.7827  0.7720 -0.2643
11138TIP3    H154905   0.447   5.955   5.666 -2.0792  0.6352  0.4073
11138TIP3    H254906   0.339   5.855   5.635 -0.8643 -0.1529 -1.4217
11139TIP3   OH254907   4.651   6.742   1.487  0.1780  0.2439 -0.5364
11139TIP3    H154908   4.684   6.670   1.432 -0.9080  1.0408 -2.3338
11139TIP3    H254909   4.587   6.787   1.431 -0.1874  1.7790  1.0348
11140TIP3   OH254910   1.644   2.462   4.056  0.1117 -0.0432 -0.4242
11140TIP3    H154911   1.555   2.426   4.056  0.0859  0.0083 -1.0946
11140TIP3    H254912   1.671   2.459   4.148 -0.4682 -0.3400 -0.2577
11141TIP3   OH254913   4.570   1.491   4.864 -0.2719  0.1686  0.3126
11141TIP3    H154914   4.529   1.467   4.947  0.9258 -1.9963  0.3370
11141TIP3    H254915   4.653   1.445   4.864 -0.2612  0.0838 -2.1037
11142TIP3   OH254916   4.560   5.336  10.451  1.0424 -0.0907 -0.1793
11142TIP3    H154917   4.546   5.282  10.373 -1.3422  0.2942 -0.0912
11142TIP3    H254918   4.475   5.335  10.496  1.8651  1.1317  1.4982
11143TIP3   OH254919   5.033   4.041  14.726 -0.0874 -0.3703 -0.3448
11143TIP3    H154920   5.114   4.019  14.681 -0.4258 -0.2865 -1.0052
11143TIP3    H254921   5.059   4.105  14.792  0.5352 -1.0768  0.1109
11144TIP3   OH254922   6.737   1.193   2.021 -0.7505  0.6156 -0.7347
11144TIP3    H154923   6.759   1.106   1.987 -0.8122  0.4697 -0.4063
11144TIP3    H254924   6.644   1.188   2.040 -0.7271  0.7141 -0.5950
11145TIP3   OH254925   0.866   1.949  16.553  0.5414  0.4266  0.2059
11145TIP3    H154926   0.775   1.975  16.540  0.0971 -1.0415  0.1357
11145TIP3    H254927   0.918   2.014  16.506 -0.4926  1.0427 -0.0975
11146TIP3   OH254928   1.725   5.342   2.467 -0.5265  0.7555  0.1892
11146TIP3    H154929   1.707   5.277   2.535  0.8391  0.0846 -0.0540
11146TIP3    H254930   1.820   5.354   2.469 -0.7761  3.2044  0.5995
11147TIP3   OH254931   4.834   5.399  16.836 -0.1864 -0.0036 -0.1394
11147TIP3    H154932   4.744   5.367  16.840 -0.3694  0.4044 -0.8321
11147TIP3    H254933   4.848   5.442  16.920  0.3131 -2.4801  1.1615
11148TIP3   OH254934   3.034   6.502  15.440  0.6287 -0.6446 -0.0254
11148TIP3    H154935   3.027   6.483  15.346  0.4251 -1.5481  0.1591
11148TIP3    H254936   3.128   6.509  15.456  0.6723 -0.6605 -0.2680
11149TIP3   OH254937   6.387   0.076   5.704 -0.2088 -0.3337 -0.0052
11149TIP3    H154938   6.471   0.112   5.675  0.3769 -0.3134  1.5703
11149TIP3    H254939   6.405  -0.017   5.718 -0.4238 -0.3216  0.3674
11150TIP3   OH254940   4.966   5.128   6.351  0.3816 -0.0595  0.0351
11150TIP3    H154941   4.962   5.042   6.392  0.3051  0.5401  1.3562
11150TIP3    H254942   5.032   5.176   6.402  0.6821  0.5590 -0.8951
11151TIP3   OH254943   5.096   6.481   1.654 -0.7547 -0.0513  0.4429
11151TIP3    H154944   5.191   6.492   1.643 -0.6454  0.1438  1.4282
11151TIP3    H254945   5.063   6.462   1.566  0.4785 -2.2007  0.3799
11152TIP3   OH254946   0.182   0.170  11.550  0.0137  0.2953  0.3313
11152TIP3    H154947   0.133   0.245  11.517  1.6740  1.4481  0.3581
11152TIP3    H254948   0.274   0.194  11.539  0.6377 -2.2339 -0.7612
11153TIP3   OH254949   5.744   1.276  12.226 -0.4901  0.2983  0.4007
11153TIP3    H154950   5.766   1.356  12.274  1.0774 -0.6811  1.4311
11153TIP3    H254951   5.760   1.298  12.134 -1.5071  1.5753  0.4932
11154TIP3   OH254952   6.542   2.144   5.008  0.4981 -0.0811 -0.1897
11154TIP3    H154953   6.586   2.108   5.086  0.1942 -1.7895 -0.7684
11154TIP3    H254954   6.528   2.068   4.952 -1.5172  0.7187 -0.8394
11155TIP3   OH254955   0.521   3.363  16.438  0.5104  0.2462  0.0057
11155TIP3    H154956   0.491   3.390  16.351  1.4010 -2.2066 -1.1450
11155TIP3    H254957   0.615   3.383  16.438  0.6280 -0.2892  0.1638
11156TIP3   OH254958   3.595   5.345   2.130 -0.3802 -0.0898 -0.9717
11156TIP3    H154959   3.562   5.259   2.107 -1.5991 -0.3450  1.4035
11156TIP3    H254960   3.600   5.344   2.225 -1.5326  2.8055 -0.7738
11157TIP3   OH254961   2.545   1.237  14.339  0.2887 -0.3006  0.2883
11157TIP3    H154962   2.625   1.251  14.390  2.1132 -1.0640 -2.1777
11157TIP3    H254963   2.567   1.166  14.279 -1.3000  1.2725 -2.3280
11158TIP3   OH254964   4.138   4.253  17.102 -0.2002 -0.0651  0.1681
11158TIP3    H154965   4.075   4.324  17.107 -0.0041  0.2700 -1.4743
11158TIP3    H254966   4.202   4.272  17.170 -0.0331  1.4629 -0.3905
11159TIP3   OH254967   5.290   3.089   1.723  0.0786 -0.0513 -0.2808
11159TIP3    H154968   5.263   2.997   1.712  0.7924 -0.1707 -1.0784
11159TIP3    H254969   5.301   3.122   1.634 -1.2416  1.1474 -0.0425
11160TIP3   OH254970   4.925   0.421  13.985  0.1831 -0.0915 -0.1777
11160TIP3    H154971   4.878   0.385  14.060 -0.3084  1.9499  0.5608
11160TIP3    H254972   5.003   0.461  14.022  0.7357 -0.3818 -0.9753
11161TIP3   OH254973   2.064   3.125   3.894 -0.7109 -0.3890 -1.4479
11161TIP3    H154974   2.131   3.070   3.934 -1.4668 -0.2109  0.1497
11161TIP3    H254975   2.113   3.196   3.852  0.1489  1.1766  1.8190
11162TIP3   OH254976   3.352   4.595  15.628 -0.1837 -0.3285  0.6772
11162TIP3    H154977   3.414   4.654  15.669 -0.0787  0.7516 -0.9533
11162TIP3    H254978   3.288   4.652  15.586 -0.9576 -1.3914  0.3531
11163TIP3   OH254979   5.086   1.989   3.118 -0.7229 -0.0220 -0.0013
11163TIP3    H154980   5.088   1.996   3.213  0.6647 -1.2159  0.1036
11163TIP3    H254981   5.136   2.064   3.086 -0.2026 -0.2516  0.2720
11164TIP3   OH254982   4.697   3.889  16.057 -0.3353  0.7583 -0.2104
11164TIP3    H154983   4.724   3.961  16.000 -1.0957 -0.0166 -1.5873
11164TIP3    H254984   4.779   3.846  16.081 -0.1089 -0.3384 -2.6892
11165TIP3   OH254985   5.350   4.030   1.773  0.6921  0.1700 -0.1014
11165TIP3    H154986   5.255   4.034   1.786  0.4900 -1.0379 -1.0589
11165TIP3    H254987   5.362   4.040   1.679  1.5840  0.9093  0.0685
11166TIP3   OH254988   2.852   0.520  16.035  0.2018 -0.3312  0.0701
11166TIP3    H154989   2.855   0.470  15.953 -0.4783 -0.2240 -0.0254
11166TIP3    H254990   2.846   0.454  16.104 -0.3194 -0.3913 -0.0335
11167TIP3   OH254991   2.804   4.771  15.251  0.3336 -0.6169 -0.5065
11167TIP3    H154992   2.773   4.704  15.190  2.3088 -2.2425  0.1792
11167TIP3    H254993   2.783   4.736  15.337 -0.2320  0.5287 -0.1622
11168TIP3   OH254994   2.110   4.006  11.256 -0.7130  0.1924 -0.7333
11168TIP3    H154995   2.061   4.065  11.198 -0.9033  0.3186 -0.4465
11168TIP3    H254996   2.196   4.047  11.264 -0.4576 -0.1728 -1.4617
11169TIP3   OH254997   2.542   5.472  15.623  0.2224 -0.2809  0.0267
11169TIP3    H154998   2.564   5.382  15.647  0.6007 -1.5261 -4.1266
11169TIP3    H254999   2.448   5.479  15.636  0.4858 -0.4388  2.4626
11170TIP3   OH255000   3.229   6.687  12.600  0.2615 -0.5964 -0.5804
11170TIP3    H155001   3.208   6.772  12.639 -0.3414 -0.5194 -1.0432
11170TIP3    H255002   3.169   6.626  12.643 -0.5465 -0.4776 -1.4956
11171TIP3   OH255003   0.584   0.693  12.912  0.7883 -0.1768  0.4726
11171TIP3    H155004   0.629   0.645  12.982  1.2207  0.3068  0.5350
11171TIP3    H255005   0.498   0.653  12.907  1.4597 -1.6069 -0.1450
11172TIP3   OH255006   4.680   6.242  13.994 -0.1755  0.4605 -0.1897
11172TIP3    H155007   4.628   6.265  13.917 -0.0861  0.5385 -0.2280
11172TIP3    H255008   4.677   6.320  14.049 -1.2527 -0.0185  0.4556
11173TIP3   OH255009   6.536   1.890   0.320  0.2518  0.9215  0.3223
11173TIP3    H155010   6.583   1.940   0.254  0.9078 -1.2957 -0.9966
11173TIP3    H255011   6.582   1.907   0.402 -0.3228  3.3876  0.2122
11174TIP3   OH255012   1.396   1.230  16.986 -0.4373 -0.4174  0.1196
11174TIP3    H155013   1.458   1.203  16.918 -1.4557 -1.2605 -0.4893
11174TIP3    H255014   1.385   1.153  17.041 -1.3890 -0.4600 -0.1142
11175TIP3   OH255015   1.233   2.483  11.584  0.0607 -0.3051 -0.4828
11175TIP3    H155016   1.138   2.481  11.579  0.0213 -1.5172  0.3791
11175TIP3    H255017   1.255   2.431  11.661  1.3706  1.2426  0.2702
11176TIP3   OH255018   2.902   5.671   1.144 -0.0918  0.1873 -0.1785
11176TIP3    H155019   2.938   5.662   1.232 -0.1972  0.0693 -0.1460
11176TIP3    H255020   2.889   5.580   1.115  2.0006  0.1421 -1.1732
11177TIP3   OH255021   5.269   4.686  13.784 -0.4294 -0.4306  0.2404
11177TIP3    H155022   5.228   4.606  13.815 -0.4685  0.1025  1.6270
11177TIP3    H255023   5.305   4.727  13.863  2.2966 -0.5839 -0.8335
11178TIP3   OH255024   5.015   2.226   1.472 -0.2954 -0.2897 -0.1193
11178TIP3    H155025   5.099   2.183   1.489 -0.7625 -1.3532 -0.4175
11178TIP3    H255026   5.026   2.265   1.385 -0.1500 -0.5287 -0.2097
11179TIP3   OH255027   3.669   6.294  13.189 -0.3755 -0.1768  0.3570
11179TIP3    H155028   3.685   6.387  13.208  0.7890 -0.3767  0.4727
11179TIP3    H255029   3.734   6.272  13.123 -0.7534 -0.8749  0.2135
11180TIP3   OH255030   2.892   1.507  14.968  0.4396  0.8580  0.3086
11180TIP3    H155031   2.800   1.487  14.985  0.0447 -0.2058 -2.5110
11180TIP3    H255032   2.895   1.602  14.957 -0.7908  0.7221 -1.6365
11181TIP3   OH255033   4.471   3.772   0.587 -0.0319  0.5992 -0.3028
11181TIP3    H155034   4.544   3.711   0.579  0.0649  0.9365 -2.9055
11181TIP3    H255035   4.398   3.718   0.618  0.7328 -0.2213  0.1292
11182TIP3   OH255036   3.988   2.030   1.851  0.1615  0.3795  0.0215
11182TIP3    H155037   3.972   1.987   1.767 -0.0826  1.7068 -0.6238
11182TIP3    H255038   4.082   2.044   1.853  0.1894  0.1981  0.0548
11183TIP3   OH255039   6.757   4.117   2.979 -0.9700 -0.1105  0.3289
11183TIP3    H155040   6.806   4.109   2.898 -0.3583  0.3306  0.6509
11183TIP3    H255041   6.742   4.027   3.007 -1.0599 -0.2603 -0.1954
11184TIP3   OH255042   2.925   2.009   2.016  0.1065 -0.1618 -0.1208
11184TIP3    H155043   2.952   1.931   2.065 -1.2857 -1.4768 -1.3310
11184TIP3    H255044   2.943   2.082   2.075 -3.8355 -1.7385  3.6078
11185TIP3   OH255045   6.731   5.655   6.402  0.3365  0.2575  0.7730
11185TIP3    H155046   6.739   5.730   6.462  1.3155  0.3097  0.5928
11185TIP3    H255047   6.726   5.579   6.460  2.1786  0.2282  0.9339
11186TIP3   OH255048   4.913   5.797  13.837  0.3767  0.8925  0.6114
11186TIP3    H155049   4.971   5.730  13.873  0.3503  0.4271 -0.1968
11186TIP3    H255050   4.884   5.762  13.753 -0.7297  1.3138  0.8009
11187TIP3   OH255051   1.296   0.682  12.448 -0.4895 -0.6128 -0.1863
11187TIP3    H155052   1.236   0.664  12.521  0.0535 -1.0070  0.1748
11187TIP3    H255053   1.245   0.663  12.370 -0.6367 -1.6054  0.1329
11188TIP3   OH255054   2.886   5.424   1.343  0.0944 -0.1230  0.2605
11188TIP3    H155055   2.821   5.473   1.392  0.8120  1.5194 -0.3442
11188TIP3    H255056   2.964   5.426   1.399 -0.2693 -1.8342  0.8603
11189TIP3   OH255057   3.788   3.784  11.785  0.1149 -0.8104  0.0760
11189TIP3    H155058   3.814   3.841  11.857  1.6992 -1.0510 -0.2639
11189TIP3    H255059   3.715   3.829  11.743 -0.5861 -0.4917  1.5956
11190TIP3   OH255060   2.328   3.473  12.661  0.7329 -0.3977 -0.4506
11190TIP3    H155061   2.319   3.434  12.574 -1.8309 -2.9697  0.7883
11190TIP3    H255062   2.355   3.400  12.717  1.3653  0.9629  1.0870
11191TIP3   OH255063   3.712   4.241  15.286 -0.5993  0.6661 -0.0750
11191TIP3    H155064   3.685   4.193  15.364  0.7356  1.3469  0.8575
11191TIP3    H255065   3.753   4.321  15.320  1.7881  0.0855 -1.3471
11192TIP3   OH255066   0.124   2.950  16.091  0.6057 -0.1385  0.1981
11192TIP3    H155067   0.090   2.916  16.008 -1.5983 -1.3670  1.5077
11192TIP3    H255068   0.208   2.905  16.102  1.1456  0.3545 -1.5048
11193TIP3   OH255069   1.701   2.056   1.102  0.0961  0.3390  0.5081
11193TIP3    H155070   1.702   1.970   1.146  0.6450  0.0380 -0.0839
11193TIP3    H255071   1.635   2.106   1.151  1.5040  0.4237  2.4367
11194TIP3   OH255072   1.230   1.345   1.771 -0.5496  0.0600  0.1500
11194TIP3    H155073   1.207   1.366   1.681 -1.6124  1.5706  0.7364
11194TIP3    H255074   1.159   1.381   1.823  0.5983  0.2239  1.6756
11195TIP3   OH255075   1.556   0.473   1.344  0.9204  0.1796  0.9304
11195TIP3    H155076   1.494   0.420   1.394  1.0880  0.1879  1.1451
11195TIP3    H255077   1.509   0.495   1.263  0.7296 -0.0124  0.9895
11196TIP3   OH255078   3.151   6.403  14.268  0.5785  0.2653 -0.4144
11196TIP3    H155079   3.127   6.464  14.198 -1.4776 -1.7812 -1.6383
11196TIP3    H255080   3.222   6.351  14.231  1.1918  0.8114 -0.0119
11197TIP3   OH255081   5.502   1.629   5.721 -0.6255 -0.0934  0.5581
11197TIP3    H155082   5.587   1.627   5.678  0.0886 -1.1046  1.9377
11197TIP3    H255083   5.521   1.657   5.810 -1.3671 -2.4454  1.5508
11198TIP3   OH255084   4.222   4.119  14.421 -0.2491 -0.2992  0.5888
11198TIP3    H155085   4.229   4.026  14.401  1.5788 -0.4584  1.7539
11198TIP3    H255086   4.146   4.126  14.478 -0.0102 -1.1835  1.0310
11199TIP3   OH255087   0.177   2.599  16.956  0.0930  0.3687  0.2218
11199TIP3    H155088   0.222   2.518  16.931 -2.1263 -1.4427  1.6505
11199TIP3    H255089   0.190   2.658  16.882  2.6574 -0.8812 -0.4404
11200TIP3   OH255090   4.213   3.923  12.864  0.4172 -0.2907 -0.1546
11200TIP3    H155091   4.187   4.015  12.856  2.1172  0.3626  1.2558
11200TIP3    H255092   4.145   3.875  12.817 -2.3907  1.3996  1.8918
11201TIP3   OH255093   6.712   0.663   5.367 -0.0668  0.2273  0.3718
11201TIP3    H155094   6.671   0.731   5.313  0.4941  0.2282 -0.0640
11201TIP3    H255095   6.714   0.586   5.311  1.0170  0.3751  0.1765
11202TIP3   OH255096   5.704   3.295  16.070  0.0067 -0.0036 -0.2389
11202TIP3    H155097   5.664   3.222  16.116  2.0471 -1.2691 -0.3338
11202TIP3    H255098   5.797   3.271  16.063  0.4550  1.8855 -1.6709
11203TIP3   OH255099   4.613   2.044  14.370  0.3546 -0.3599  0.3287
11203TIP3    H155100   4.707   2.025  14.361  0.0314 -1.9844  0.0455
11203TIP3    H255101   4.601   2.126  14.323  1.7756  0.3110  1.0708
11204TIP3   OH255102   3.305   1.256  13.383 -0.5161 -0.0466  0.4455
11204TIP3    H155103   3.271   1.193  13.446  0.3499  0.8459  1.8614
11204TIP3    H255104   3.228   1.306  13.356 -0.9216 -0.5327  0.6856
11205TIP3   OH255105   4.533   5.244   4.490  0.2272  0.2689 -0.0582
11205TIP3    H155106   4.557   5.292   4.569  0.1307 -0.3271  0.3446
11205TIP3    H255107   4.443   5.271   4.472 -0.9161 -1.8927  1.8615
11206TIP3   OH255108   2.696   4.197   2.847  0.1089 -0.4019 -0.0055
11206TIP3    H155109   2.721   4.264   2.911 -2.1177  0.0874  0.4475
11206TIP3    H255110   2.777   4.151   2.828  1.0665  0.1328  2.3715
11207TIP3   OH255111   1.567   3.666  16.045  0.1054  0.4253  0.2730
11207TIP3    H155112   1.506   3.597  16.070 -0.5682  0.5154 -1.0328
11207TIP3    H255113   1.587   3.711  16.127 -0.4656 -0.4955  0.9429
11208TIP3   OH255114   3.316   5.732  16.899 -0.3369 -0.5046 -0.6444
11208TIP3    H155115   3.253   5.792  16.938  1.4567  0.6545  0.6220
11208TIP3    H255116   3.286   5.645  16.925 -0.4340  0.1263  1.4988
11209TIP3   OH255117   0.118   2.337  11.184  0.6687  0.0122  0.4305
11209TIP3    H155118   0.213   2.338  11.176  0.8808  1.7385  2.2161
11209TIP3    H255119   0.098   2.416  11.234 -1.7682 -0.0214 -0.3643
11210TIP3   OH255120   5.182   1.419  11.521  0.4394  0.1390  0.4114
11210TIP3    H155121   5.106   1.457  11.565 -1.7031 -1.9262 -1.2401
11210TIP3    H255122   5.225   1.493  11.478 -1.5151  1.1941  0.1757
11211TIP3   OH255123   3.676   0.006   6.598  0.8689  0.1350 -0.2308
11211TIP3    H155124   3.772  -0.000   6.603  0.9608  1.5955  0.4614
11211TIP3    H255125   3.654   0.077   6.659 -0.3594  1.8688 -2.5168
11212TIP3   OH255126   2.765   1.706   1.770  0.3555  0.0917  0.1456
11212TIP3    H155127   2.839   1.650   1.745 -0.0241 -0.1812 -0.3946
11212TIP3    H255128   2.801   1.795   1.771  0.7766 -0.0779  0.2385
11213TIP3   OH255129   0.935   5.434   0.044  0.4768  0.3215  0.0333
11213TIP3    H155130   0.997   5.505   0.025  1.3768  0.0488  1.7703
11213TIP3    H255131   0.851   5.479   0.058  0.7179  0.8893 -0.2966
11214TIP3   OH255132   1.997   1.542  12.890  0.0142  0.0081  0.4522
11214TIP3    H155133   1.954   1.498  12.963 -0.0163  0.5769  0.7809
11214TIP3    H255134   2.079   1.494  12.877 -0.0577 -0.1957  0.7449
11215TIP3   OH255135   4.324   0.233  14.140  0.2110  0.2810  0.2667
11215TIP3    H155136   4.409   0.227  14.097  0.6265 -0.7766  1.1933
11215TIP3    H255137   4.345   0.242  14.233 -0.6409  3.5692  0.2809
11216TIP3   OH255138   5.307   1.831   4.285  0.2280 -0.0223 -0.0536
11216TIP3    H155139   5.277   1.757   4.337  1.7636 -0.6447 -0.0030
11216TIP3    H255140   5.261   1.821   4.201 -1.0523  0.1078  0.5957
11217TIP3   OH255141   6.195   6.138  11.646 -0.0158  0.4845  0.2712
11217TIP3    H155142   6.239   6.215  11.683  2.0919 -0.0903 -0.8823
11217TIP3    H255143   6.180   6.081  11.722 -0.0085  1.2750  0.8894
11218TIP3   OH255144   1.088   2.234   2.407 -0.0788 -0.4058 -0.3357
11218TIP3    H155145   1.139   2.172   2.459  0.3869  1.0767  1.0508
11218TIP3    H255146   1.152   2.295   2.371 -0.6662  0.3282 -0.1808
11219TIP3   OH255147   2.120   6.515   2.268  0.1373  0.2144 -0.0246
11219TIP3    H155148   2.137   6.605   2.240 -0.3643 -0.4205 -2.6248
11219TIP3    H255149   2.039   6.491   2.223 -1.4174 -0.6354  2.9448
11220TIP3   OH255150   4.147   1.485   3.611  0.1664 -0.3631 -0.5933
11220TIP3    H155151   4.235   1.474   3.574  2.0399  0.7863  3.0787
11220TIP3    H255152   4.158   1.548   3.682 -3.1967 -1.8053  1.4620
11221TIP3   OH255153   6.810   1.692  11.434  0.1784  0.3481 -0.1628
11221TIP3    H155154   6.716   1.681  11.419 -0.2717  0.4697  2.1505
11221TIP3    H255155   6.841   1.604  11.455  0.5104  0.3658 -0.5796
11222TIP3   OH255156   6.004   5.453  11.655 -0.1851  0.2597 -0.8155
11222TIP3    H155157   6.017   5.538  11.614 -1.3714  0.0954 -1.5899
11222TIP3    H255158   5.921   5.462  11.702  0.0692 -0.2381 -0.2551
11223TIP3   OH255159   4.440   5.059  15.860  0.4064  0.1817  0.0290
11223TIP3    H155160   4.383   4.988  15.891  2.4227 -0.8753  1.5850
11223TIP3    H255161   4.393   5.139  15.883 -0.3473 -0.6333  1.5243
11224TIP3   OH255162   0.131   4.676   2.945  0.5280  0.1066 -0.0419
11224TIP3    H155163   0.050   4.634   2.971  0.5458  0.3849  0.4785
11224TIP3    H255164   0.197   4.607   2.951  0.3007 -0.1655 -0.6428
11225TIP3   OH255165   0.743   2.928  12.458  0.1657  0.0235 -0.0615
11225TIP3    H155166   0.756   2.932  12.553  3.2818 -1.2198 -0.3316
11225TIP3    H255167   0.749   2.835  12.437 -0.5844  0.2719 -1.5076
11226TIP3   OH255168   4.394   0.930  11.283  0.3000  0.0082 -0.3471
11226TIP3    H155169   4.427   0.847  11.318 -0.0490  0.5405  1.3230
11226TIP3    H255170   4.465   0.963  11.229  1.4580 -0.1959  0.9858
11227TIP3   OH255171   6.033   5.583   3.098 -0.0161  0.0085  0.0409
11227TIP3    H155172   6.122   5.603   3.071 -0.1195  0.3379 -0.0569
11227TIP3    H255173   6.029   5.611   3.189  0.3713 -1.2216  0.4507
11228TIP3   OH255174   2.974   5.723  16.280  0.0820 -0.0418 -0.1720
11228TIP3    H155175   3.001   5.803  16.235  0.3634 -1.5474 -2.8463
11228TIP3    H255176   2.936   5.755  16.362  1.4534  2.7233 -0.4636
11229TIP3   OH255177   2.343   4.838   4.832  0.6266 -0.3800 -0.0998
11229TIP3    H155178   2.400   4.768   4.799  0.3791 -0.8956  0.5482
11229TIP3    H255179   2.266   4.792   4.866  0.0109  0.2810 -0.5753
11230TIP3   OH255180   1.885   2.657  11.304 -0.2034  0.4025 -0.0811
11230TIP3    H155181   1.962   2.661  11.247  0.0622 -0.0237  0.2374
11230TIP3    H255182   1.812   2.639  11.244 -0.1695  1.4688 -0.4683
11231TIP3   OH255183   5.657   5.658  15.347 -0.0691 -0.0701 -0.7181
11231TIP3    H155184   5.669   5.663  15.252  1.2552  2.3822 -0.4894
11231TIP3    H255185   5.565   5.635  15.359 -0.5473  0.7165 -2.5963
11232TIP3   OH255186   6.822   2.933  13.488  0.3069  0.5315 -0.6538
11232TIP3    H155187   6.858   2.983  13.562 -0.5553  0.0901  0.0718
11232TIP3    H255188   6.893   2.873  13.463  0.4237  0.3187  0.1613
11233TIP3   OH255189   0.172   0.799   4.828  0.1716  0.3171  0.1893
11233TIP3    H155190   0.185   0.742   4.903  1.8066 -0.9489 -0.9916
11233TIP3    H255191   0.130   0.744   4.762  0.9850  0.7140 -0.6755
11234TIP3   OH255192   5.028   2.623  11.394 -0.1719  0.0230  0.1312
11234TIP3    H155193   5.068   2.647  11.310  0.5366 -1.3721  0.0465
11234TIP3    H255194   5.099   2.636  11.458 -0.1557 -0.6546  0.2522
11235TIP3   OH255195   3.314   2.323  16.871  0.9474  0.0845  0.0342
11235TIP3    H155196   3.277   2.237  16.854 -1.1490  0.5520  1.7635
11235TIP3    H255197   3.390   2.306  16.927  2.7953 -0.8085 -2.5532
11236TIP3   OH255198   2.427   1.236  14.873 -0.4396 -0.2454 -0.5802
11236TIP3    H155199   2.377   1.155  14.886 -1.3645  0.0955 -1.8191
11236TIP3    H255200   2.483   1.242  14.950 -2.7045 -0.3790  1.1988
11237TIP3   OH255201   2.251   0.448   6.657  0.0693  0.2044  0.4686
11237TIP3    H155202   2.289   0.496   6.583  0.9521 -0.8466  0.2145
11237TIP3    H255203   2.263   0.356   6.634 -2.4277 -0.2125  0.4983
11238TIP3   OH255204   0.847   6.648  15.431 -0.0096 -0.0804 -0.3074
11238TIP3    H155205   0.771   6.677  15.380 -1.6826 -2.6935  0.4226
11238TIP3    H255206   0.832   6.684  15.518 -0.8829 -1.1389  0.0178
11239TIP3   OH255207   6.587   1.105  14.218  0.2338 -0.0772 -0.2013
11239TIP3    H155208   6.682   1.118  14.220  0.3408 -0.8652  1.7523
11239TIP3    H255209   6.561   1.135  14.131  2.3364 -0.3315 -0.9790
11240TIP3   OH255210   5.048   5.351  16.684 -0.2663 -0.2367 -0.1399
11240TIP3    H155211   4.991   5.340  16.760 -1.2025  2.6138 -0.2948
11240TIP3    H255212   5.039   5.269  16.635 -0.9911 -1.4583  1.9165
11241TIP3   OH255213   2.882   6.305  16.794 -0.1565  0.7040  0.0784
11241TIP3    H155214   2.906   6.340  16.880 -0.7028  1.7936 -0.1961
11241TIP3    H255215   2.786   6.305  16.794 -0.2310 -1.9697  0.5159
11242TIP3   OH255216   3.869   2.023  15.427 -0.3453  0.1484 -0.3091
11242TIP3    H155217   3.910   2.027  15.513 -0.4804 -2.2056 -0.0700
11242TIP3    H255218   3.902   2.100  15.381  1.9474 -0.0254  0.8945
11243TIP3   OH255219   5.966   4.185  15.787  0.9038 -0.3064  0.2170
11243TIP3    H155220   6.051   4.166  15.750  0.8552 -1.3025  0.5919
11243TIP3    H255221   5.905   4.175  15.714  1.1546  0.9488 -0.1811
11244TIP3   OH255222   3.938   2.731  12.308 -0.4162  0.0416  0.7647
11244TIP3    H155223   3.941   2.638  12.330 -1.6388  0.4124  2.7207
11244TIP3    H255224   4.029   2.761  12.314 -0.0109 -1.0042  0.0930
11245TIP3   OH255225   2.913   5.174  12.594 -0.6706 -0.5300  0.2032
11245TIP3    H155226   2.907   5.157  12.688  0.3127 -1.2326  0.1534
11245TIP3    H255227   2.833   5.222  12.574 -1.1111 -0.7491  1.3182
11246TIP3   OH255228   5.099   3.052  11.473 -0.5729 -0.0197  1.1255
11246TIP3    H155229   5.064   3.061  11.385 -2.6813  0.0614  1.9110
11246TIP3    H255230   5.144   2.968  11.473  0.0402  0.2780 -0.1783
11247TIP3   OH255231   6.322   4.611  16.584  0.2490 -0.2698  0.1377
11247TIP3    H155232   6.403   4.653  16.613  0.1712  0.4558 -0.6442
11247TIP3    H255233   6.269   4.683  16.548 -0.3367 -0.8794 -0.2438
11248TIP3   OH255234   1.887   2.443   1.240  0.5314  0.0031 -0.0607
11248TIP3    H155235   1.928   2.517   1.285  2.2185  0.1880 -1.7634
11248TIP3    H255236   1.803   2.476   1.211  1.0727  1.1302 -0.3958
11249TIP3   OH255237   0.184   2.013   4.691 -0.4321 -0.1650 -0.2173
11249TIP3    H155238   0.212   1.922   4.697  1.1016 -0.1812 -4.2960
11249TIP3    H255239   0.110   2.012   4.631 -1.9067  1.1284  1.4682
11250TIP3   OH255240   2.249   5.278   3.745  0.8431  0.2493 -0.5144
11250TIP3    H155241   2.200   5.231   3.678  2.3499  0.1040 -1.5442
11250TIP3    H255242   2.327   5.226   3.760  1.1688  0.9644  0.4132
11251TIP3   OH255243   2.403   5.989   1.818  0.2241  0.4540 -0.3124
11251TIP3    H155244   2.432   6.011   1.729 -3.1699  0.8738 -1.4619
11251TIP3    H255245   2.429   5.898   1.829  1.3702  0.6138 -1.4301
11252TIP3   OH255246   4.169   3.453  17.124  0.0906 -0.2091 -0.2453
11252TIP3    H155247   4.076   3.470  17.139  0.2813  1.1543 -0.4831
11252TIP3    H255248   4.213   3.531  17.157  0.8917  0.7371 -3.2895
11253TIP3   OH255249   6.307   3.549   6.127  0.2084 -0.5447  0.2329
11253TIP3    H155250   6.385   3.518   6.081  0.4185 -1.9096  1.4446
11253TIP3    H255251   6.258   3.469   6.148 -1.1618  0.2394  0.1440
11254TIP3   OH255252   0.454   2.671  13.369  0.0916 -0.4198 -0.8458
11254TIP3    H155253   0.502   2.714  13.299 -3.0304  0.7081 -2.4764
11254TIP3    H255254   0.487   2.711  13.449  1.7421  0.3307 -1.8528
11255TIP3   OH255255   0.501   0.279   2.075  0.2813  0.3456  0.2066
11255TIP3    H155256   0.594   0.298   2.072  0.5311 -0.7165  0.6168
11255TIP3    H255257   0.496   0.190   2.110 -0.8849  0.3950  0.2119
11256TIP3   OH255258   2.068   5.933  11.149 -0.1969 -1.4842  0.2299
11256TIP3    H155259   2.096   6.001  11.087  0.1390 -0.7780  1.1318
11256TIP3    H255260   1.975   5.921  11.131 -0.8665  0.9595  1.6107
11257TIP3   OH255261   0.368   1.536  12.453 -0.1570  0.1344 -0.1719
11257TIP3    H155262   0.289   1.502  12.413 -0.1685  0.2781 -0.2717
11257TIP3    H255263   0.422   1.566  12.380  1.3148 -2.6914 -0.3863
11258TIP3   OH255264   1.195   5.179  16.090  0.1881  0.3714  0.1577
11258TIP3    H155265   1.273   5.124  16.097 -0.5319 -0.6709  0.2427
11258TIP3    H255266   1.223   5.252  16.035  0.9008 -0.5856 -0.8041
11259TIP3   OH255267   2.656   5.086   3.572  0.0615  0.0898 -0.2318
11259TIP3    H155268   2.750   5.069   3.581  0.2681  1.2463 -0.1134
11259TIP3    H255269   2.624   5.096   3.661 -0.2502 -0.6277 -0.2543
11260TIP3   OH255270   6.516   3.007   4.084  0.2117  0.4693 -0.4044
11260TIP3    H155271   6.497   2.946   4.155 -2.2131  1.8741  0.3055
11260TIP3    H255272   6.498   2.958   4.004 -0.4698 -0.1403  0.1063
11261TIP3   OH255273   0.705   4.166   5.786 -0.3130 -0.3051  0.9017
11261TIP3    H155274   0.723   4.242   5.842  0.4429 -0.6474  1.1435
11261TIP3    H255275   0.617   4.181   5.753  0.3646  1.4194 -0.2630
11262TIP3   OH255276   1.159   3.986   5.662 -0.5277  0.5848  0.2527
11262TIP3    H155277   1.144   4.073   5.624 -2.5629 -0.3417 -1.2215
11262TIP3    H255278   1.092   3.978   5.730  1.4439  1.1870  2.4326
11263TIP3   OH255279   3.714   4.269   2.159 -0.5330  0.1816  0.2066
11263TIP3    H155280   3.667   4.304   2.084  0.5542 -0.0082 -0.5821
11263TIP3    H255281   3.806   4.274   2.134 -0.2249 -1.1462  0.9848
11264TIP3   OH255282   1.189   1.031  12.423  0.2160  0.2656  0.1643
11264TIP3    H155283   1.170   1.109  12.370  0.1192 -0.4017 -0.7992
11264TIP3    H255284   1.115   0.973  12.408  0.2870 -0.0203  0.8861
11265TIP3   OH255285   2.767   3.921   3.488  0.2476 -0.1763 -0.0745
11265TIP3    H155286   2.738   4.007   3.458  0.9654 -0.3942 -1.4973
11265TIP3    H255287   2.814   3.938   3.570 -0.0570  0.7183 -0.0834
11266TIP3   OH255288   1.631   3.998   6.297  0.3640 -0.2649  0.1764
11266TIP3    H155289   1.711   4.049   6.310  1.0862 -1.4231  0.3223
11266TIP3    H255290   1.568   4.062   6.264  0.6570  1.1646  2.2074
11267TIP3   OH255291   0.203   1.430   2.346 -0.0041 -0.5856 -0.0419
11267TIP3    H155292   0.221   1.504   2.289 -2.1117  1.3632  1.6373
11267TIP3    H255293   0.108   1.421   2.345  0.1961 -3.4763 -0.3488
11268TIP3   OH255294   4.066   3.197   1.262  0.3918  0.3750 -0.4260
11268TIP3    H155295   4.094   3.110   1.234  0.8438  0.1704  0.6182
11268TIP3    H255296   4.126   3.257   1.217  1.6973  0.0002  0.7477
11269TIP3   OH255297   3.876   1.663   2.352 -0.0826 -0.6386  0.1952
11269TIP3    H155298   3.811   1.611   2.305 -1.1061  1.1228 -0.4187
11269TIP3    H255299   3.868   1.751   2.316 -0.4181  0.6635  3.1160
11270TIP3   OH255300   5.377   0.063  12.298 -0.0246 -0.1923  0.5034
11270TIP3    H155301   5.375   0.045  12.391 -0.7387 -1.4556  0.2590
11270TIP3    H255302   5.451   0.011  12.265 -1.0923 -1.4890  0.0534
11271TIP3   OH255303   3.059   6.554  12.759 -0.0475  0.5820 -0.6131
11271TIP3    H155304   2.971   6.524  12.735 -1.2523  0.9133  2.7744
11271TIP3    H255305   3.051   6.578  12.852  3.8169 -0.0751  0.0598
11272TIP3   OH255306   3.059   5.551   5.391  0.0598 -0.0599  0.5065
11272TIP3    H155307   3.064   5.460   5.422 -4.1168 -0.3652  0.8465
11272TIP3    H255308   3.048   5.542   5.296 -0.5159  0.0227  0.5583
11273TIP3   OH255309   6.315   3.714   1.922  0.0160  0.5227 -0.2575
11273TIP3    H155310   6.322   3.634   1.869 -2.6321 -0.6267  0.9487
11273TIP3    H255311   6.405   3.734   1.946  0.7568 -2.6860  0.1597
11274TIP3   OH255312   6.330   1.059  13.327 -0.1763 -0.2608 -0.0910
11274TIP3    H155313   6.337   1.031  13.418 -0.6330  1.8768  0.6434
11274TIP3    H255314   6.365   1.148  13.326 -0.1220 -0.2636 -2.0235
11275TIP3   OH255315   5.345   3.981  11.353  0.8807  0.8176 -0.3076
11275TIP3    H155316   5.286   4.027  11.292  0.7500 -0.2992 -1.0563
11275TIP3    H255317   5.295   3.904  11.381  2.7275 -1.4523 -2.7585
11276TIP3   OH255318   4.802   5.242  14.419 -0.6111  0.0815 -0.4136
11276TIP3    H155319   4.861   5.190  14.366  0.4116 -1.7394  2.2965
11276TIP3    H255320   4.727   5.184  14.435  0.8489 -1.1425  3.2198
11277TIP3   OH255321   1.217   2.545  15.645 -0.0262 -0.1446 -0.4268
11277TIP3    H155322   1.236   2.580  15.732 -1.4219 -0.1593 -0.1008
11277TIP3    H255323   1.208   2.451  15.659  0.3835 -0.2305 -0.7131
11278TIP3   OH255324   0.144   3.048  12.494  0.5927 -0.2590  0.2687
11278TIP3    H155325   0.089   3.050  12.572 -0.7587 -0.7596 -0.6505
11278TIP3    H255326   0.128   3.132  12.452 -0.4704 -0.9131 -0.6623
11279TIP3   OH255327   2.412   0.478  14.030 -0.8665  0.1318 -0.2205
11279TIP3    H155328   2.344   0.411  14.039 -0.2936 -0.4696 -0.2940
11279TIP3    H255329   2.481   0.435  13.980 -0.9540  1.1330 -1.2416
11280TIP3   OH255330   3.899   2.129   0.263  0.2692 -0.6800 -0.9554
11280TIP3    H155331   3.824   2.109   0.208 -0.6215  0.0397 -0.0330
11280TIP3    H255332   3.939   2.044   0.281 -1.5318 -1.3234  0.2113
11281TIP3   OH255333   5.727   5.835  13.440 -0.2289 -0.1934  0.0899
11281TIP3    H155334   5.753   5.878  13.522 -0.1721  0.1095 -0.0827
11281TIP3    H255335   5.701   5.747  13.466 -0.4991 -0.0019  0.4749
11282TIP3   OH255336   2.577   5.355  15.102 -0.5565  0.9631  0.1314
11282TIP3    H155337   2.597   5.374  15.194 -1.3926  1.3081  0.2560
11282TIP3    H255338   2.485   5.330  15.103  0.0692 -1.6849 -0.2566
11283TIP3   OH255339   0.253   0.159   4.337  0.3321 -0.6935 -0.6074
11283TIP3    H155340   0.213   0.243   4.316  0.2595 -1.2522 -2.9728
11283TIP3    H255341   0.191   0.119   4.399 -0.0923  0.5877 -0.1624
11284TIP3   OH255342   0.000   3.509  15.011  0.2379  0.1430  0.5668
11284TIP3    H155343  -0.023   3.501  15.103  3.9186 -0.4619  1.5963
11284TIP3    H255344   0.048   3.592  15.005 -0.1819  0.3078 -0.8595
11285TIP3   OH255345   5.251   2.576  15.369 -0.5777  0.2530 -0.3953
11285TIP3    H155346   5.283   2.600  15.282  0.6581 -0.2308 -0.0944
11285TIP3    H255347   5.194   2.648  15.394  1.2628  1.8047 -0.4541
11286TIP3   OH255348   1.043   0.052  12.842 -0.4574  0.2708  0.1817
11286TIP3    H155349   0.973  -0.012  12.856 -1.3617  1.3518  0.8364
11286TIP3    H255350   1.075   0.073  12.929  0.3359  0.1827 -0.0780
11287TIP3   OH255351   3.590   4.113  15.499  0.5965  0.2255 -0.4470
11287TIP3    H155352   3.638   4.074  15.572  1.3047 -0.6614 -1.3701
11287TIP3    H255353   3.542   4.186  15.539  0.6607 -0.4763  0.9714
11288TIP3   OH255354   0.047   3.073   3.264 -0.0351 -0.3730 -0.0180
11288TIP3    H155355   0.136   3.106   3.254 -0.7330  1.6560  0.0461
11288TIP3    H255356   0.021   3.047   3.176 -0.0901  1.0027 -0.4257
11289TIP3   OH255357   5.056   4.760  15.581  0.0590 -0.4833 -0.0807
11289TIP3    H155358   4.991   4.829  15.568  0.5694  0.4516  1.9269
11289TIP3    H255359   5.014   4.681  15.547 -2.1022  0.1255  0.9861
11290TIP3   OH255360   3.552   5.735  16.263  0.0795 -0.4898 -0.2414
11290TIP3    H155361   3.585   5.664  16.208  0.8823  1.0804 -1.8881
11290TIP3    H255362   3.492   5.783  16.206  0.5833  0.9376  0.3980
11291TIP3   OH255363   3.331   0.921  13.678  0.5656 -0.1107 -0.2162
11291TIP3    H155364   3.395   0.854  13.701 -0.1676 -1.1331 -1.0794
11291TIP3    H255365   3.375   1.004  13.697  1.4996 -0.8194  0.8369
11292TIP3   OH255366   0.005   3.572   1.565 -0.4331  0.5471  0.4736
11292TIP3    H155367   0.074   3.507   1.549 -0.8599  0.3051 -0.4216
11292TIP3    H255368   0.053   3.653   1.585  0.1013  0.0323  1.3267
11293TIP3   OH255369   4.999   6.753   1.702  0.7231 -0.1505  0.1257
11293TIP3    H155370   4.927   6.763   1.765 -0.6675  1.1394 -1.5971
11293TIP3    H255371   5.020   6.660   1.705 -0.1953 -0.3410  1.5388
11294TIP3   OH255372   6.311   3.013   0.530 -0.5630  0.3811  0.1411
11294TIP3    H155373   6.299   3.102   0.562  0.5910  0.6557 -0.1349
11294TIP3    H255374   6.405   3.006   0.513 -0.3518 -1.4358  1.7259
11295TIP3   OH255375   3.654   1.380   3.750  0.7546 -0.0518 -0.3360
11295TIP3    H155376   3.589   1.449   3.736 -0.1152 -0.7524  0.1651
11295TIP3    H255377   3.729   1.407   3.697 -0.0909  0.5779 -1.2555
11296TIP3   OH255378   0.387   0.244   5.008  0.4484 -0.2625 -0.5405
11296TIP3    H155379   0.402   0.263   4.916  1.4371 -0.5377 -0.4518
11296TIP3    H255380   0.341   0.160   5.009 -0.4344  0.2075 -0.8043
11297TIP3   OH255381   1.738   2.405   5.911  0.4921 -0.5189  0.2198
11297TIP3    H155382   1.696   2.356   5.982 -2.1462  1.9358  0.5097
11297TIP3    H255383   1.820   2.436   5.950  1.2868 -2.8836  0.6476
11298TIP3   OH255384   3.732   1.199   0.395 -0.7271  0.3015 -0.0895
11298TIP3    H155385   3.731   1.187   0.300  0.1071  0.4220 -0.1193
11298TIP3    H255386   3.785   1.278   0.409  1.8171 -1.4103  0.6161
11299TIP3   OH255387   4.656   6.555  15.863 -0.2677 -0.0706  0.1807
11299TIP3    H155388   4.739   6.549  15.909  0.0477  2.5456  0.1377
11299TIP3    H255389   4.590   6.563  15.932  0.0608  2.4390  0.2945
11300TIP3   OH255390   3.376   3.919   2.136  0.2054  0.3152 -0.5299
11300TIP3    H155391   3.444   3.853   2.150  0.3536  0.0827 -2.1513
11300TIP3    H255392   3.324   3.885   2.063 -0.6853  1.2455 -0.3489
11301TIP3   OH255393   4.820   2.086  16.401  0.0139 -0.2689  0.2739
11301TIP3    H155394   4.819   2.164  16.457  0.9294 -0.4430  0.5441
11301TIP3    H255395   4.906   2.046  16.416  0.3572 -0.2346 -1.3610
11302TIP3   OH255396   3.563   3.759   2.251 -0.5423 -0.3748  0.2597
11302TIP3    H155397   3.652   3.780   2.281 -0.2545 -1.7929  0.4651
11302TIP3    H255398   3.571   3.674   2.207 -1.8364 -0.6505  0.4995
11303TIP3   OH255399   2.167   3.747  14.296  0.5822  0.1684 -0.0249
11303TIP3    H155400   2.170   3.755  14.392  1.6902 -1.4483  0.1201
11303TIP3    H255401   2.171   3.652  14.280  2.7825  0.4809 -1.7072
11304TIP3   OH255402   1.194   0.353   3.710  0.3615 -0.3956 -0.4368
11304TIP3    H155403   1.194   0.415   3.782  0.7929 -1.2722  0.3300
11304TIP3    H255404   1.287   0.342   3.688  0.4107 -1.8588  0.4064
11305TIP3   OH255405   5.268   6.482  16.406 -0.2542  0.2156 -0.0749
11305TIP3    H155406   5.313   6.454  16.327 -0.8597 -0.7034 -0.1107
11305TIP3    H255407   5.256   6.401  16.457 -2.3312  0.3148 -0.3242
11306TIP3   OH255408   0.415   0.131   6.168  0.3138  0.1154 -0.1922
11306TIP3    H155409   0.333   0.163   6.205  0.5980  3.0540 -1.7658
11306TIP3    H255410   0.389   0.065   6.104 -0.7182  0.1956  0.1305
11307TIP3   OH255411   5.041   3.104  16.000 -0.1884  0.4855 -0.7298
11307TIP3    H155412   5.109   3.054  16.046  0.3976 -0.0041 -2.0700
11307TIP3    H255413   5.019   3.175  16.060  1.4767  0.6269 -0.2336
11308TIP3   OH255414   2.486   2.405  17.155 -0.2294 -0.0997  0.5011
11308TIP3    H155415   2.461   2.495  17.177 -0.7162  0.1022 -0.7935
11308TIP3    H255416   2.418   2.351  17.195  0.2732  0.0605  1.6146
11309TIP3   OH255417   3.254   4.729   6.106  0.2550 -0.4556 -0.2236
11309TIP3    H155418   3.163   4.703   6.093 -0.1468  0.8334 -0.1464
11309TIP3    H255419   3.296   4.652   6.143 -0.4822 -1.5163 -1.5175
11310TIP3   OH255420   6.056   1.340  14.449  0.0466  0.6749  0.1428
11310TIP3    H155421   6.109   1.347  14.528  0.3750 -0.9592  0.0929
11310TIP3    H255422   6.091   1.264  14.402 -0.8523  0.9424 -1.0278
11311TIP3   OH255423   1.207   3.303  14.065  0.3410 -0.1330  0.4235
11311TIP3    H155424   1.227   3.348  14.147  0.1665  1.3008 -0.2990
11311TIP3    H255425   1.291   3.300  14.019  0.0377  0.9045 -0.2166
11312TIP3   OH255426   6.595   3.034   1.785 -0.6563  0.0358 -0.5205
11312TIP3    H155427   6.631   2.948   1.761  0.7341  0.1419  1.0241
11312TIP3    H255428   6.511   3.015   1.825 -0.4593 -0.6038 -0.4008
11313TIP3   OH255429   0.781   6.560   5.101 -0.0641  0.1199 -0.2688
11313TIP3    H155430   0.736   6.515   5.029  2.4144 -3.6150  0.1998
11313TIP3    H255431   0.813   6.641   5.062 -1.4312 -0.2871 -2.4669
11314TIP3   OH255432   3.620   5.127   4.400  0.0534 -0.6200 -0.6296
11314TIP3    H155433   3.643   5.075   4.477 -0.5041 -2.7551 -1.8336
11314TIP3    H255434   3.558   5.192   4.433 -0.1978 -1.5015  0.7198
11315TIP3   OH255435   3.348   2.734  12.666 -0.1007  0.8361 -0.4327
11315TIP3    H155436   3.435   2.744  12.704  0.2437  2.1163 -1.4593
11315TIP3    H255437   3.345   2.642  12.638  1.2306  0.9577 -1.0691
11316TIP3   OH255438   1.542   0.043   5.625 -0.0513  0.3667  0.2393
11316TIP3    H155439   1.536  -0.052   5.638 -0.4200  0.6098  2.1568
11316TIP3    H255440   1.611   0.053   5.559  0.8373 -1.1861  0.8641
11317TIP3   OH255441   4.829   5.392  10.507 -0.0889  0.7643  0.2727
11317TIP3    H155442   4.849   5.484  10.523  0.5983  0.9987 -1.7382
11317TIP3    H255443   4.734   5.389  10.496 -0.0121  1.3873 -0.5740
11318TIP3   OH255444   1.988   1.725   5.011  0.0643 -0.2087 -0.8015
11318TIP3    H155445   1.925   1.790   5.041 -0.1794 -1.5115  1.7412
11318TIP3    H255446   1.955   1.697   4.926 -2.0424  0.1317 -0.1548
11319TIP3   OH255447   2.929   2.893   1.585 -0.1989  0.0595  0.0024
11319TIP3    H155448   2.902   2.875   1.495 -1.4197  0.6537  0.2242
11319TIP3    H255449   2.953   2.986   1.586  2.6124 -0.5804 -0.3287
11320TIP3   OH255450   6.323   1.435  12.912  0.5533  0.3769 -0.1024
11320TIP3    H155451   6.411   1.436  12.874  1.1566 -0.8981  1.1684
11320TIP3    H255452   6.272   1.496  12.857  1.8222 -0.0039 -1.7837
11321TIP3   OH255453   4.326   0.971   2.670  0.5878  0.4000  0.4093
11321TIP3    H155454   4.348   0.961   2.578  0.1348  0.9792  0.2333
11321TIP3    H255455   4.339   1.064   2.688  1.5426  0.1359  1.1628
11322TIP3   OH255456   4.859   4.273  15.712  0.3567  0.2291  0.2978
11322TIP3    H155457   4.937   4.288  15.659  0.3706  1.6192  0.6862
11322TIP3    H255458   4.869   4.332  15.787 -0.4298 -0.5501  1.0430
11323TIP3   OH255459   6.292   4.791  16.150 -0.0504 -0.1926  0.1897
11323TIP3    H155460   6.221   4.809  16.089 -1.0748 -1.1440  1.0731
11323TIP3    H255461   6.268   4.838  16.229  0.2181 -0.6549  0.5475
11324TIP3   OH255462   2.149   5.178   5.631  0.6585  0.1050  0.2756
11324TIP3    H155463   2.117   5.113   5.693  0.3412  0.7431  0.7985
11324TIP3    H255464   2.077   5.188   5.568  0.8092 -0.2334  0.0493
11325TIP3   OH255465   1.426   3.743   2.001  0.4116 -0.7209  0.0805
11325TIP3    H155466   1.347   3.756   2.054 -0.6660 -1.3780 -1.3135
11325TIP3    H255467   1.443   3.828   1.961 -1.0751 -1.1401 -1.5533
11326TIP3   OH255468   0.436   0.000   3.064 -0.3175 -0.1165 -0.6383
11326TIP3    H155469   0.375  -0.072   3.078  1.0451 -0.9662  1.3712
11326TIP3    H255470   0.443   0.008   2.968 -0.5143 -2.6625 -0.9350
11327TIP3   OH255471   6.503   2.257   1.892  1.0277 -0.4601  0.3148
11327TIP3    H155472   6.562   2.306   1.836 -0.3888  0.6754 -0.2310
11327TIP3    H255473   6.504   2.168   1.856 -0.6997  0.4722 -2.2818
11328TIP3   OH255474   3.103   6.758  11.793  0.1973 -0.1139  0.0271
11328TIP3    H155475   3.039   6.784  11.859  0.3117 -3.6218  1.7924
11328TIP3    H255476   3.051   6.734  11.717 -0.3835 -0.3943  0.4991
11329TIP3   OH255477   2.142   1.764  16.215 -0.2671 -0.0091 -0.5465
11329TIP3    H155478   2.110   1.696  16.156 -1.6103 -0.4813  0.6556
11329TIP3    H255479   2.065   1.791  16.265  1.1078 -1.0074  2.3197
11330TIP3   OH255480   4.496   3.073   3.519 -0.4453  0.0514  0.1445
11330TIP3    H155481   4.502   3.157   3.563  0.6409  0.6721 -1.1260
11330TIP3    H255482   4.518   3.009   3.586  0.5951  0.9293  0.6640
11331TIP3   OH255483   6.657   4.109   3.831 -0.4115 -0.3417  0.0113
11331TIP3    H155484   6.724   4.048   3.861 -0.1925  0.2036  0.6554
11331TIP3    H255485   6.689   4.141   3.747 -0.1710 -0.5554  0.0213
11332TIP3   OH255486   0.484   2.115  10.928 -0.6456  0.1301 -0.0336
11332TIP3    H155487   0.506   2.067  10.848  0.8751 -0.1290  0.4950
11332TIP3    H255488   0.399   2.081  10.955 -0.9737 -0.0845 -1.2957
11333TIP3   OH255489   1.833   6.500   5.634 -0.3366  0.0859  0.0840
11333TIP3    H155490   1.760   6.438   5.639  0.9323 -1.5375 -0.5009
11333TIP3    H255491   1.907   6.453   5.672  1.7558 -0.5443 -4.1860
11334TIP3   OH255492   0.159   5.402  13.001 -0.0194  0.2682 -0.0578
11334TIP3    H155493   0.097   5.334  13.027 -0.9635  1.5219  1.1638
11334TIP3    H255494   0.227   5.356  12.952 -0.3479 -1.6129  1.1687
11335TIP3   OH255495   6.204   0.312   6.461 -0.3745  0.5517  0.0275
11335TIP3    H155496   6.183   0.283   6.550  0.9195  1.1940  0.5739
11335TIP3    H255497   6.125   0.295   6.411 -1.0157 -0.1466  1.2250
11336TIP3   OH255498   1.694   4.032  16.397 -0.4370 -0.4761 -0.3347
11336TIP3    H155499   1.633   4.105  16.382 -0.1469 -0.6047 -2.6266
11336TIP3    H255500   1.779   4.074  16.409 -0.8074 -0.3230  2.3199
11337TIP3   OH255501   4.627   3.494   4.777  0.2772 -0.1908  0.1889
11337TIP3    H155502   4.557   3.549   4.813  1.5290  1.0990  0.7777
11337TIP3    H255503   4.645   3.532   4.691  0.6865 -0.1109  0.3106
11338TIP3   OH255504   2.279   1.421   0.078 -0.2244  0.0282 -0.2869
11338TIP3    H155505   2.262   1.420   0.172 -1.1183  0.0764 -0.4383
11338TIP3    H255506   2.345   1.490   0.066  0.1221 -0.1846  0.3289
11339TIP3   OH255507   4.281   4.918  15.361  0.6195 -0.0391  0.1843
11339TIP3    H155508   4.320   4.897  15.446  1.8773  1.3039 -0.0436
11339TIP3    H255509   4.187   4.905  15.375  0.8275 -0.0791  1.7116
11340TIP3   OH255510   0.345   4.183  13.030 -0.4777 -0.1692  0.2160
11340TIP3    H155511   0.419   4.217  12.979  0.4445 -2.2776  0.0468
11340TIP3    H255512   0.342   4.238  13.108 -0.4099  1.6046 -0.9718
11341TIP3   OH255513   5.762   3.179   3.042  0.1252  0.4882  0.6191
11341TIP3    H155514   5.679   3.225   3.030  0.5326  0.8249 -1.1555
11341TIP3    H255515   5.824   3.247   3.067  0.2972  0.5706 -0.0318
11342TIP3   OH255516   3.414   5.269   0.531  0.2097  0.1563 -0.1031
11342TIP3    H155517   3.494   5.284   0.482 -0.5158  0.9985 -1.0743
11342TIP3    H255518   3.442   5.221   0.609  1.5049 -0.4505 -0.9139
11343TIP3   OH255519   4.484   3.226   3.951  0.0649 -0.1356 -0.3700
11343TIP3    H155520   4.549   3.183   4.008 -1.6416 -0.5973  1.3393
11343TIP3    H255521   4.400   3.207   3.992 -0.9932  2.7062 -0.9684
11344TIP3   OH255522   5.369   5.156   3.870 -0.2747 -0.5085 -0.4403
11344TIP3    H155523   5.286   5.180   3.829 -0.2381 -1.3062 -0.9980
11344TIP3    H255524   5.355   5.068   3.904  0.2935 -0.5910 -0.3990
11345TIP3   OH255525   4.544   5.239  11.455  0.0607 -0.2725  0.4577
11345TIP3    H155526   4.473   5.223  11.393 -0.2655 -0.9493  0.9906
11345TIP3    H255527   4.567   5.331  11.442 -2.0103  0.4390  1.3846
11346TIP3   OH255528   3.377   2.639  17.174 -0.0144  0.2833 -0.0198
11346TIP3    H155529   3.382   2.733  17.193 -1.8438 -0.1504  3.2992
11346TIP3    H255530   3.289   2.628  17.136 -0.8905 -0.3439  2.0616
11347TIP3   OH255531   1.214   4.206   1.533  0.4719 -0.3441 -0.6492
11347TIP3    H155532   1.189   4.288   1.489 -2.3328  0.2247  1.7271
11347TIP3    H255533   1.131   4.160   1.547  1.8846 -3.2901 -1.1578
11348TIP3   OH255534   1.327   4.828   3.865 -0.8539  0.3276 -0.1802
11348TIP3    H155535   1.340   4.737   3.840 -0.0871  0.3725  0.0224
11348TIP3    H255536   1.393   4.876   3.815 -1.1049  0.7413 -0.1157
11349TIP3   OH255537   0.162   1.340  16.214  0.1810  0.0289  0.6378
11349TIP3    H155538   0.207   1.256  16.208  0.2611  0.1316 -0.3807
11349TIP3    H255539   0.110   1.345  16.134 -2.6420 -0.6368  2.2580
11350TIP3   OH255540   5.301   6.064   3.021 -0.0504 -0.1328 -0.8355
11350TIP3    H155541   5.293   6.135   3.084  0.5132 -0.0111 -0.8962
11350TIP3    H255542   5.229   6.004   3.043  0.5003 -0.4022  0.3132
11351TIP3   OH255543   4.459   6.573  12.797 -0.0897  0.4776 -0.0994
11351TIP3    H155544   4.409   6.601  12.874  1.3240 -0.6137  1.2581
11351TIP3    H255545   4.519   6.646  12.780 -0.1703  0.5763  0.0354
11352TIP3   OH255546   2.255   4.385  10.901 -0.3603  0.2812 -0.4049
11352TIP3    H155547   2.168   4.370  10.865 -0.1795 -0.3539 -0.5836
11352TIP3    H255548   2.274   4.476  10.878 -0.9867  0.4301 -0.3399
11353TIP3   OH255549   0.156   6.706  16.131 -0.4070 -0.9199 -0.4220
11353TIP3    H155550   0.075   6.716  16.081 -0.9583  0.4836  0.6966
11353TIP3    H255551   0.152   6.774  16.198  0.6628 -2.2566  1.0832
11354TIP3   OH255552   6.057   1.227  16.797  0.6645  0.8301  0.3683
11354TIP3    H155553   6.044   1.298  16.735 -0.3681 -0.2159 -0.6816
11354TIP3    H255554   6.116   1.166  16.751  1.2839  0.8513  1.1200
11355TIP3   OH255555   0.689   6.777   3.161 -0.3098  0.4454 -0.3421
11355TIP3    H155556   0.691   6.688   3.126 -0.5945  0.3952 -0.2364
11355TIP3    H255557   0.598   6.803   3.152 -0.0313  1.1243 -1.3484
11356TIP3   OH255558   3.699   1.113   5.450 -0.2326  0.2058 -0.2231
11356TIP3    H155559   3.648   1.191   5.429  0.1631  0.1732 -1.4080
11356TIP3    H255560   3.761   1.105   5.377  1.3115  0.1219  1.0396
11357TIP3   OH255561   3.573   6.323   4.649 -0.1150  0.1288 -0.1680
11357TIP3    H155562   3.667   6.306   4.642 -0.2444 -0.5976 -0.2330
11357TIP3    H255563   3.552   6.372   4.569  0.3311  0.9050  0.1824
11358TIP3   OH255564   0.170   6.750  14.452 -0.1499 -0.3376  0.4006
11358TIP3    H155565   0.089   6.739  14.402 -0.6379 -1.7538  1.4345
11358TIP3    H255566   0.239   6.720  14.392 -0.4174  0.4055 -0.3058
11359TIP3   OH255567   1.191   4.936  16.435  0.2358  0.5685 -0.2952
11359TIP3    H155568   1.256   5.006  16.431  1.5968 -0.4480  1.8005
11359TIP3    H255569   1.233   4.863  16.388  0.2241  0.2071  0.2429
11360TIP3   OH255570   1.556   0.500  11.827 -0.1836  0.1081  0.7484
11360TIP3    H155571   1.628   0.559  11.803 -1.4053  1.7976  1.0671
11360TIP3    H255572   1.560   0.496  11.923  0.8873 -1.7037  0.6851
11361TIP3   OH255573   1.226   5.465   4.519  0.3980  0.7615 -0.2942
11361TIP3    H155574   1.294   5.409   4.482  0.3054  1.8826 -2.3511
11361TIP3    H255575   1.150   5.452   4.462  0.6700  3.6051 -1.5120
11362TIP3   OH255576   3.861   5.832   3.624 -0.0264  0.1246  0.2379
11362TIP3    H155577   3.838   5.797   3.538 -1.1101 -0.6636  0.8236
11362TIP3    H255578   3.875   5.926   3.608 -0.9829  0.1339 -0.6641
11363TIP3   OH255579   2.683   5.026  12.403  0.4610 -0.1459 -0.0310
11363TIP3    H155580   2.638   5.110  12.414  1.8472  0.5671  0.4927
11363TIP3    H255581   2.621   4.972  12.354 -0.3193  1.3102 -0.7387
11364TIP3   OH255582   3.463   6.444   4.852 -0.8399 -0.2666 -0.1319
11364TIP3    H155583   3.498   6.389   4.782 -0.7566  0.4551 -0.6680
11364TIP3    H255584   3.373   6.462   4.826 -0.2145  1.7039 -1.1508
11365TIP3   OH255585   2.741   6.460  14.575  0.1194  0.8927 -0.0664
11365TIP3    H155586   2.769   6.396  14.641  1.4425  0.2256 -1.2171
11365TIP3    H255587   2.687   6.410  14.514 -0.3534  1.2930  0.0237
11366TIP3   OH255588   6.521   4.270  10.485 -0.1451  0.0554  0.2582
11366TIP3    H155589   6.513   4.365  10.482  1.9880  0.2699 -0.4444
11366TIP3    H255590   6.601   4.251  10.436  0.4066 -1.9625  1.8074
11367TIP3   OH255591   5.623   6.633   0.198 -0.3891  0.1522 -0.3224
11367TIP3    H155592   5.667   6.716   0.211  0.0165  0.0639 -1.1005
11367TIP3    H255593   5.669   6.572   0.256 -0.3925  0.3637 -0.0943
11368TIP3   OH255594   1.734   6.782  14.875 -0.0975 -0.7132 -0.2258
11368TIP3    H155595   1.740   6.746  14.963 -1.4471 -1.3415 -0.3709
11368TIP3    H255596   1.737   6.877  14.887 -1.4531 -0.7601  0.6167
11369TIP3   OH255597   1.128   2.075  14.420  0.1990 -0.4276 -1.1562
11369TIP3    H155598   1.190   2.079  14.492  0.2838 -1.9669 -1.1243
11369TIP3    H255599   1.182   2.069  14.341  0.1370  2.1744 -1.5029
11370TIP3   OH255600   0.077   1.813   2.819 -0.2342  0.6919 -0.1797
11370TIP3    H155601   0.091   1.768   2.735  1.9844  0.1018  0.4627
11370TIP3    H255602   0.097   1.905   2.800  0.6535  0.4959 -0.2163
11371TIP3   OH255603   3.902   3.701   5.153  0.6474  0.5294  0.5727
11371TIP3    H155604   3.969   3.768   5.161  2.7609 -1.3619 -0.3413
11371TIP3    H255605   3.948   3.624   5.119 -2.3848 -0.1731 -2.5282
11372TIP3   OH255606   0.236   4.405  13.520  0.1109  0.0809 -0.4181
11372TIP3    H155607   0.146   4.422  13.547  0.6702  0.3545  1.4559
11372TIP3    H255608   0.287   4.475  13.560  1.0623  0.5458 -2.3420
11373TIP3   OH255609   1.588   0.592   1.696  0.2463  0.2736 -0.3571
11373TIP3    H155610   1.597   0.500   1.672 -2.8847 -0.1767 -0.1940
11373TIP3    H255611   1.546   0.591   1.781 -1.1180  1.8268 -0.9563
11374TIP3   OH255612   4.523   6.266   5.798  0.2300  0.1950 -0.1335
11374TIP3    H155613   4.450   6.241   5.741 -0.6852 -0.4640  1.2740
11374TIP3    H255614   4.549   6.185   5.841  0.6065  0.7612  0.7372
11375TIP3   OH255615   1.332   4.793  14.748  0.0116  0.4097 -0.2159
11375TIP3    H155616   1.409   4.838  14.713 -1.1735  1.9937 -0.9462
11375TIP3    H255617   1.342   4.797  14.843  2.2663 -2.1107 -0.2339
11376TIP3   OH255618   1.780   1.752  15.785 -0.0773 -0.1896 -0.4081
11376TIP3    H155619   1.796   1.767  15.878 -1.2037 -0.9488 -0.0639
11376TIP3    H255620   1.808   1.833  15.743  0.6365  0.0923  0.5683
11377TIP3   OH255621   1.089   4.621  12.091  0.3633  0.5407 -0.5368
11377TIP3    H155622   1.016   4.658  12.140 -0.1568  0.7168 -1.4292
11377TIP3    H255623   1.127   4.556  12.150 -1.2655 -0.4167 -0.5003
11378TIP3   OH255624   0.254   0.400   3.668 -0.6104  0.7083 -0.4711
11378TIP3    H155625   0.282   0.358   3.587 -1.1766  1.5429 -1.1180
11378TIP3    H255626   0.179   0.455   3.642 -0.5373  1.3081  0.5322
11379TIP3   OH255627   4.426   0.877  16.235  0.2973  0.5780  0.1710
11379TIP3    H155628   4.453   0.969  16.241  3.4305 -0.2025 -0.3291
11379TIP3    H255629   4.403   0.864  16.143 -0.3974  0.8816  0.2927
11380TIP3   OH255630   5.022   1.180  12.226  0.2691 -0.2833 -0.0136
11380TIP3    H155631   5.036   1.091  12.257 -0.4276 -0.1491  0.7301
11380TIP3    H255632   4.962   1.171  12.153  1.6602 -0.5723 -1.1780
11381TIP3   OH255633   6.291   2.814  16.149 -0.2087  0.2504 -0.7405
11381TIP3    H155634   6.232   2.812  16.074  0.0257  0.2885 -0.9266
11381TIP3    H255635   6.277   2.730  16.193 -0.6616  0.4091 -0.5816
11382TIP3   OH255636   1.022   6.014  14.130 -0.9992 -0.2888  0.2403
11382TIP3    H155637   1.108   6.038  14.165 -1.1004 -0.1546  0.3952
11382TIP3    H255638   0.968   5.999  14.208 -0.8923 -1.1714  0.1570
11383TIP3   OH255639   5.400   4.818   1.000 -0.2507  0.0109  0.6512
11383TIP3    H155640   5.484   4.858   1.019 -1.6417  2.0451  3.1552
11383TIP3    H255641   5.410   4.727   1.029  1.5376 -0.2606 -0.6712
11384TIP3   OH255642   6.148   5.800  12.667 -0.3311 -0.3042 -0.1351
11384TIP3    H155643   6.083   5.831  12.730  0.4531 -1.7627  1.5087
11384TIP3    H255644   6.097   5.771  12.592 -1.3052  1.4844 -0.1983
11385TIP3   OH255645   1.193   5.889  11.150 -0.0613  0.2695 -0.6391
11385TIP3    H155646   1.127   5.819  11.151 -0.6179  0.5535  3.7934
11385TIP3    H255647   1.273   5.847  11.181  0.1781  1.1288 -0.0567
11386TIP3   OH255648   0.708   3.306  15.115 -0.3280  0.6495  0.0893
11386TIP3    H155649   0.613   3.303  15.126 -0.5278  2.9729 -0.5311
11386TIP3    H255650   0.721   3.312  15.020  0.6168 -2.3513 -0.0740
11387TIP3   OH255651   4.182   3.202  11.080  0.1421  0.1947  0.1370
11387TIP3    H155652   4.246   3.195  11.010  0.5619  1.2085  0.3972
11387TIP3    H255653   4.213   3.275  11.134  0.1906 -0.9938  1.7668
11388TIP3   OH255654   3.214   0.072  15.396  0.6410 -0.0130  0.1584
11388TIP3    H155655   3.239   0.157  15.361 -1.0544  0.8858  1.0274
11388TIP3    H255656   3.131   0.088  15.442 -0.1609 -2.2789 -0.3619
11389TIP3   OH255657   0.912   2.348   0.399 -0.1735 -0.5072  0.6321
11389TIP3    H155658   0.936   2.433   0.435  0.7843 -0.7130  0.5012
11389TIP3    H255659   0.956   2.345   0.314 -1.4820 -0.4908 -0.0733
11390TIP3   OH255660   0.402   1.926  15.278 -0.1825  0.1523  0.9399
11390TIP3    H155661   0.489   1.938  15.316 -0.3593 -0.4753  1.5565
11390TIP3    H255662   0.415   1.868  15.204 -0.1764 -0.5386  1.4747
11391TIP3   OH255663   2.588   4.803  11.727  0.5778  0.1086 -0.1995
11391TIP3    H155664   2.505   4.769  11.692  0.4531 -0.5297  0.6932
11391TIP3    H255665   2.652   4.783  11.659  0.1701 -0.2502 -0.4899
11392TIP3   OH255666   1.144   6.276   2.951 -0.3856 -0.2018  0.0805
11392TIP3    H155667   1.050   6.286   2.966 -0.4020  3.0391 -1.4939
11392TIP3    H255668   1.151   6.244   2.861  0.0786 -2.1811  0.7563
11393TIP3   OH255669   6.145   1.510   1.129  0.3505  0.2940 -0.5306
11393TIP3    H155670   6.110   1.435   1.177  0.1887  0.1522 -0.8690
11393TIP3    H255671   6.134   1.487   1.037  3.1635 -0.6462 -0.7130
11394TIP3   OH255672   0.182   5.765   0.365  0.0729  0.3671  0.1363
11394TIP3    H155673   0.099   5.806   0.387 -1.6589 -2.0168 -1.5187
11394TIP3    H255674   0.166   5.671   0.372  2.7093 -0.1838 -0.0051
11395TIP3   OH255675   0.855   6.243   1.749  0.3164 -0.0467 -0.2270
11395TIP3    H155676   0.843   6.224   1.842  0.7058 -1.0654 -0.3685
11395TIP3    H255677   0.895   6.330   1.747  0.5952 -0.1429  0.5734
11396TIP3   OH255678   4.600   4.164   5.927 -0.0392 -0.1650  0.0729
11396TIP3    H155679   4.560   4.077   5.919  1.2790 -0.7978  0.1233
11396TIP3    H255680   4.673   4.163   5.865  0.6242  0.5301  0.8104
11397TIP3   OH255681   2.987   2.591  12.685  0.7362 -0.9980  0.7397
11397TIP3    H155682   3.055   2.584  12.752  0.4792  1.5932  1.3695
11397TIP3    H255683   2.981   2.684  12.667  0.8669 -1.5727 -3.0561
11398TIP3   OH255684   6.364   0.015  15.473 -0.3400 -0.0948 -0.0280
11398TIP3    H155685   6.305  -0.023  15.407 -1.6165  0.2139  0.9053
11398TIP3    H255686   6.394  -0.060  15.524 -2.2811 -0.0347  1.3419
11399TIP3   OH255687   2.289   1.088   0.200  0.0585  0.2931 -0.1779
11399TIP3    H155688   2.296   1.058   0.291  1.6568  2.5489  0.5424
11399TIP3    H255689   2.210   1.142   0.198 -0.1440 -0.0041 -0.2070
11400TIP3   OH255690   6.689   2.133   4.316  0.2987 -0.3947 -0.6036
11400TIP3    H155691   6.619   2.168   4.262  0.1806  0.0920 -0.1467
11400TIP3    H255692   6.675   2.038   4.315 -2.3597 -0.1741  2.0668
11401TIP3   OH255693   0.892   1.162   2.546  0.5030 -0.5942  0.0168
11401TIP3    H155694   0.985   1.171   2.568  0.3580 -0.1554  0.4506
11401TIP3    H255695   0.891   1.158   2.450  1.0987 -2.0851  0.0414
11402TIP3   OH255696   1.534   3.064   4.973 -0.1412  0.1577  0.2367
11402TIP3    H155697   1.469   3.128   5.001  0.4332  0.3959  1.0725
11402TIP3    H255698   1.612   3.086   5.023  0.3028 -0.7131 -0.0493
11403TIP3   OH255699   0.012   5.600   5.740 -0.5161  0.1480 -0.1839
11403TIP3    H155700  -0.007   5.550   5.820 -2.7962  0.5058 -0.4431
11403TIP3    H255701  -0.049   5.673   5.743 -0.4616  0.3090 -2.1391
11404TIP3   OH255702   2.610   3.836  13.808 -0.0590  0.1974  0.5856
11404TIP3    H155703   2.589   3.815  13.899  1.4624 -0.7265  0.7640
11404TIP3    H255704   2.577   3.762  13.758 -2.3537  1.4499  0.1456
11405TIP3   OH255705   5.554   2.301   3.116 -0.0301 -0.4075 -0.5299
11405TIP3    H155706   5.581   2.393   3.118 -0.0977 -0.3917  0.1290
11405TIP3    H255707   5.619   2.257   3.062  0.2197 -0.0333 -0.5339
11406TIP3   OH255708   2.379   2.935  11.376 -0.4224 -0.2989 -0.6583
11406TIP3    H155709   2.307   2.899  11.324 -1.5329  0.0256  0.6049
11406TIP3    H255710   2.397   3.020  11.336 -0.8680 -0.2957 -0.8594
11407TIP3   OH255711   4.326   4.578   6.002 -0.0517 -0.2993 -0.0416
11407TIP3    H155712   4.371   4.644   5.949  1.4736 -1.3788 -0.1491
11407TIP3    H255713   4.334   4.609   6.092  1.1943 -0.6030 -0.0294
11408TIP3   OH255714   3.650   5.757   1.801 -0.4209  0.0556 -0.2524
11408TIP3    H155715   3.648   5.850   1.822 -0.1019 -0.1326  0.6366
11408TIP3    H255716   3.649   5.713   1.886  2.7004 -0.7198 -0.4977
11409TIP3   OH255717   0.151   1.749  14.953  0.2375 -0.1842  0.0374
11409TIP3    H155718   0.148   1.821  14.890  1.5539  1.1582  1.4017
11409TIP3    H255719   0.190   1.676  14.905  2.0152  1.0614 -0.5107
11410TIP3   OH255720   2.561   2.673  11.783 -0.6090 -0.7561 -0.0101
11410TIP3    H155721   2.594   2.615  11.852  3.4365 -0.5557 -1.5120
11410TIP3    H255722   2.561   2.620  11.704 -1.0504  0.1334 -0.6264
11411TIP3   OH255723   1.558   3.828  11.782  0.3587  0.0433 -0.6112
11411TIP3    H155724   1.533   3.911  11.821  1.1879  0.4556 -0.9404
11411TIP3    H255725   1.564   3.845  11.688  1.6769 -0.0832 -0.5595
11412TIP3   OH255726   0.970   6.527  15.933  0.3989 -0.4193 -0.9351
11412TIP3    H155727   0.911   6.503  16.005  0.1929  0.3001 -0.8510
11412TIP3    H255728   1.046   6.470  15.944 -0.0211 -0.9454 -0.6881
11413TIP3   OH255729   5.264   2.222   2.698 -1.1306  0.0579 -0.5106
11413TIP3    H155730   5.170   2.236   2.693 -1.1204  0.2755 -0.1378
11413TIP3    H255731   5.299   2.256   2.615 -1.5164 -1.2154 -1.2228
11414TIP3   OH255732   4.576   0.630   1.079  0.2025  0.5139  0.6164
11414TIP3    H155733   4.509   0.584   1.030  2.3545 -1.8288 -0.3236
11414TIP3    H255734   4.555   0.614   1.171  0.9937 -2.7161  0.3282
11415TIP3   OH255735   1.455   4.200   1.282 -0.2958 -0.6187  0.6797
11415TIP3    H155736   1.379   4.238   1.236 -1.3748 -0.6252  2.3672
11415TIP3    H255737   1.523   4.195   1.215 -1.2731  0.8800 -0.5090
11416TIP3   OH255738   1.728   5.656  15.675  0.8698 -0.3207  0.1394
11416TIP3    H155739   1.754   5.692  15.590  1.1984 -0.3151  0.2411
11416TIP3    H255740   1.810   5.649  15.724  0.9072 -1.7185 -0.0652
11417TIP3   OH255741   5.352   5.497  12.427  0.2892 -0.1793  0.1444
11417TIP3    H155742   5.332   5.494  12.333  0.8156 -1.1336  0.0417
11417TIP3    H255743   5.298   5.567  12.461 -0.8258 -0.6180 -0.6590
11418TIP3   OH255744   6.150   0.365  13.911 -0.1729  0.9273  0.2125
11418TIP3    H155745   6.226   0.422  13.925  0.7090  0.2238 -1.4713
11418TIP3    H255746   6.130   0.330  13.999  2.1262  0.3117  0.5619
11419TIP3   OH255747   3.964   2.624   1.838 -0.2176 -0.3769 -0.1092
11419TIP3    H155748   3.976   2.541   1.792 -0.8207 -0.0310 -0.9105
11419TIP3    H255749   3.947   2.687   1.769 -0.4333  0.2913  0.5450
11420TIP3   OH255750   6.066   0.353   1.398  0.2900  0.0390 -0.1091
11420TIP3    H155751   6.117   0.300   1.336 -0.5545  1.3751 -2.0267
11420TIP3    H255752   6.132   0.405   1.444  0.8233  1.1876 -2.0206
11421TIP3   OH255753   1.997   4.037  15.023 -0.3527 -0.7303 -0.0721
11421TIP3    H155754   1.963   3.998  15.103 -1.1240  0.8071  0.3897
11421TIP3    H255755   2.084   4.069  15.046 -1.2573  1.3278  0.7455
11422TIP3   OH255756   0.890   3.612  12.877  0.3032 -0.4972  0.5245
11422TIP3    H155757   0.851   3.579  12.958  0.4358 -0.1359  0.7389
11422TIP3    H255758   0.964   3.665  12.906 -0.3090  0.5480  0.2321
11423TIP3   OH255759   1.736   6.413   3.010 -0.0943 -0.2282  0.1627
11423TIP3    H155760   1.697   6.385   2.926 -1.4639  1.3979  0.1982
11423TIP3    H255761   1.829   6.420   2.991 -0.2627 -0.7160 -0.9923
11424TIP3   OH255762   0.345   4.667   1.656  0.7847 -0.1106 -0.7648
11424TIP3    H155763   0.316   4.680   1.566  2.5686  0.0992 -1.3449
11424TIP3    H255764   0.312   4.743   1.704  0.9835  0.4736 -1.5471
11425TIP3   OH255765   6.207   6.138  14.935  0.2371 -0.0871  0.1320
11425TIP3    H155766   6.217   6.055  14.887 -0.1964  0.3229 -0.6949
11425TIP3    H255767   6.176   6.199  14.869  0.7192  0.7837  0.6953
11426TIP3   OH255768   3.685   3.610   3.998  0.2607 -0.2481 -0.3046
11426TIP3    H155769   3.719   3.528   3.963 -0.6001 -0.7891  0.0981
11426TIP3    H255770   3.593   3.592   4.018  0.5429  0.2177  1.6362
11427TIP3   OH255771   6.240   6.675  13.117 -0.0672  0.0250 -0.2361
11427TIP3    H155772   6.268   6.586  13.095  3.2942  1.3844 -2.0310
11427TIP3    H255773   6.220   6.671  13.211  0.6973 -2.4421 -0.1142
11428TIP3   OH255774   3.176   2.399  16.100 -0.7012  0.0621 -0.4133
11428TIP3    H155775   3.111   2.348  16.052 -1.8407 -0.5932  1.7336
11428TIP3    H255776   3.252   2.341  16.106 -0.9471 -0.2696 -0.4764
11429TIP3   OH255777   1.442   0.348   2.458 -0.5239 -0.0106 -0.0736
11429TIP3    H155778   1.372   0.328   2.521  0.2435 -3.2654 -0.0963
11429TIP3    H255779   1.452   0.268   2.407  2.0025  1.0025 -1.3304
11430TIP3   OH255780   5.530   6.064  15.813 -0.4358  0.2309 -0.1187
11430TIP3    H155781   5.450   6.010  15.811  0.6573 -1.4416 -1.7329
11430TIP3    H255782   5.511   6.132  15.878 -3.1626 -0.1119 -0.4314
11431TIP3   OH255783   0.972   6.549  16.406  0.0137 -0.3429  0.5966
11431TIP3    H155784   1.043   6.562  16.469 -0.9078 -1.1965  1.8818
11431TIP3    H255785   1.010   6.571  16.321  1.3418  0.7298  1.4283
11432TIP3   OH255786   0.142   2.947  15.102  0.1340  0.3583  0.2230
11432TIP3    H155787   0.080   2.953  15.175 -0.6905  1.4054 -0.5390
11432TIP3    H255788   0.226   2.972  15.140 -0.5577  2.4314  0.5186
11433TIP3   OH255789   3.706   1.762  11.889 -0.1622  0.1965 -0.6117
11433TIP3    H155790   3.642   1.693  11.869 -1.7551  1.1178  1.0731
11433TIP3    H255791   3.773   1.718  11.941 -0.0760 -0.4943 -1.2788
11434TIP3   OH255792   6.712   5.639  15.626 -0.0614  0.1339 -0.4221
11434TIP3    H155793   6.645   5.603  15.567  1.0344 -1.1433 -0.9414
11434TIP3    H255794   6.784   5.664  15.568  0.4175  0.3215  0.2418
11435TIP3   OH255795   0.993   6.587  13.328  0.1998 -0.0961 -0.6671
11435TIP3    H155796   0.901   6.579  13.302  0.2267 -0.6810 -0.5969
11435TIP3    H255797   0.995   6.665  13.384 -0.1435  0.2573 -1.1413
11436TIP3   OH255798   5.100   3.660  12.228  0.2042  0.7018  0.2078
11436TIP3    H155799   5.048   3.726  12.272 -1.0585  0.0687 -0.2868
11436TIP3    H255800   5.049   3.636  12.151  0.8455 -0.5264  0.1293
11437TIP3   OH255801   2.720   0.140   1.652  0.4100 -0.5300 -0.5274
11437TIP3    H155802   2.798   0.148   1.597  0.2616  1.9136 -0.4575
11437TIP3    H255803   2.647   0.160   1.593  0.1585  0.9789  0.2636
11438TIP3   OH255804   6.482   4.335  12.246 -0.4953 -0.5722  1.0656
11438TIP3    H155805   6.448   4.252  12.279 -1.6171 -0.5454  0.0653
11438TIP3    H255806   6.576   4.331  12.260 -0.5476 -1.9842  1.0920
11439TIP3   OH255807   0.170   5.642   1.892 -0.0166 -0.3373  0.0662
11439TIP3    H155808   0.230   5.571   1.868 -0.7811 -1.8763  2.2799
11439TIP3    H255809   0.083   5.609   1.867 -0.1866  0.8022 -0.8890
11440TIP3   OH255810   5.851   4.148   4.469 -0.9075 -0.1804  0.0529
11440TIP3    H155811   5.915   4.099   4.520  0.0935  1.5071  0.4974
11440TIP3    H255812   5.791   4.184   4.535 -0.0104  1.4341  0.0368
11441TIP3   OH255813   0.457   4.668  15.298  0.0698 -0.0476  0.5040
11441TIP3    H155814   0.411   4.586  15.317 -0.5731  0.0550 -0.5486
11441TIP3    H255815   0.543   4.640  15.267  0.1675 -0.2935  0.9900
11442TIP3   OH255816   0.418   0.663   4.295 -1.2338 -0.3235 -0.3972
11442TIP3    H155817   0.481   0.706   4.353 -2.2333  2.7359 -1.3941
11442TIP3    H255818   0.472   0.610   4.237  0.1794  0.0403  0.5320
11443TIP3   OH255819   5.991   0.066  10.869 -0.1512  0.2922 -0.0374
11443TIP3    H155820   6.065   0.005  10.866  0.5529  0.9964  1.9071
11443TIP3    H255821   6.026   0.149  10.836 -0.9973 -0.1564 -2.2681
11444TIP3   OH255822   2.025   5.046   1.018 -0.3210  0.2628 -0.0497
11444TIP3    H155823   2.068   5.083   0.941 -1.8641  0.7628 -0.7186
11444TIP3    H255824   1.939   5.020   0.987 -0.1352 -1.7463  0.9808
11445TIP3   OH255825   5.715   2.072   3.616 -0.2620  0.0633  0.1564
11445TIP3    H155826   5.657   2.103   3.547  0.2859 -0.1351 -0.3947
11445TIP3    H255827   5.740   2.151   3.663 -0.5594  0.2072  0.0792
11446TIP3   OH255828   4.580   1.360   5.488 -0.0118  0.1170 -0.1348
11446TIP3    H155829   4.581   1.454   5.474  1.0866  0.0619 -0.4854
11446TIP3    H255830   4.657   1.342   5.542  0.0756 -0.6352 -0.4910
11447TIP3   OH255831   3.908   4.376   0.223  0.3206 -0.5219  0.6800
11447TIP3    H155832   3.930   4.408   0.135  3.6993  0.8908  1.9048
11447TIP3    H255833   3.836   4.432   0.252  1.4368  1.2902  0.0733
11448TIP3   OH255834   4.916   5.883  16.763 -0.0182 -0.3397 -0.0656
11448TIP3    H155835   5.004   5.903  16.794  0.1432 -1.2339  0.0837
11448TIP3    H255836   4.921   5.791  16.735 -0.7957 -0.2734 -0.4304
11449TIP3   OH255837   2.399   5.034   5.274 -0.2565 -0.2040 -0.0121
11449TIP3    H155838   2.437   4.980   5.205 -0.4439 -0.7372  0.3023
11449TIP3    H255839   2.372   4.972   5.341 -0.9834  0.2367  0.1072
11450TIP3   OH255840   2.998   2.483   0.440  0.1324 -0.5900  0.5810
11450TIP3    H155841   2.965   2.394   0.451  0.8526 -0.7239  1.8917
11450TIP3    H255842   3.081   2.473   0.393  0.0016 -0.5668  0.3437
11451TIP3   OH255843   0.199   4.437  12.791  0.7173 -0.4875  0.1966
11451TIP3    H155844   0.208   4.489  12.871 -0.2777 -0.0889  0.0691
11451TIP3    H255845   0.105   4.419  12.785  0.6353  0.2717 -1.3406
11452TIP3   OH255846   6.634   5.108  16.333 -0.1382  0.2134 -0.0189
11452TIP3    H155847   6.544   5.137  16.320 -0.6006 -0.0278  2.1827
11452TIP3    H255848   6.687   5.184  16.308 -0.8857  0.2018 -1.7737
11453TIP3   OH255849   0.084   5.709  10.389  0.1003 -0.0751 -0.1412
11453TIP3    H155850  -0.002   5.667  10.388 -0.1738  0.4544 -1.2554
11453TIP3    H255851   0.146   5.638  10.370 -0.0935 -0.4387  0.5619
11454TIP3   OH255852   5.097   3.065  15.490 -0.5847 -0.4663  0.4866
11454TIP3    H155853   5.123   2.978  15.521 -0.3828 -1.0165 -1.1041
11454TIP3    H255854   5.009   3.078  15.525 -0.8171 -1.5478  0.3511
11455TIP3   OH255855   5.743   0.908  15.731  0.2278  0.0421  0.1003
11455TIP3    H155856   5.720   0.943  15.817  0.0105  2.3242 -0.8187
11455TIP3    H255857   5.665   0.858  15.705 -0.2293  0.4307  0.6805
11456TIP3   OH255858   0.235   5.809  11.783 -0.7549 -0.6517 -0.0734
11456TIP3    H155859   0.200   5.897  11.776  0.7729 -0.0301 -0.3238
11456TIP3    H255860   0.280   5.808  11.867 -0.0114 -0.9002 -0.4661
11457TIP3   OH255861   5.017   5.070  14.330  0.5404 -0.0789 -0.0108
11457TIP3    H155862   5.106   5.089  14.301  0.9575 -0.9434  0.6836
11457TIP3    H255863   4.981   5.014  14.261  0.5363  0.2669 -0.2894
11458TIP3   OH255864   0.252   0.875   6.446  0.2539  0.0656  0.3187
11458TIP3    H155865   0.206   0.793   6.461  0.1191 -0.0109 -0.4436
11458TIP3    H255866   0.301   0.860   6.365 -0.2917  0.9483 -0.1913
11459TIP3   OH255867   5.793   2.235   2.969 -0.4660 -0.4290  0.0582
11459TIP3    H155868   5.779   2.291   2.893 -0.8187  0.1633  0.5455
11459TIP3    H255869   5.871   2.271   3.011 -2.6549  2.1139  2.4045
11460TIP3   OH255870   1.697   4.822  14.927  0.4540 -0.6712  0.3221
11460TIP3    H155871   1.743   4.852  14.848 -0.3768  0.3012  0.1932
11460TIP3    H255872   1.754   4.846  14.999 -0.4889  1.9779  0.2887
11461TIP3   OH255873   0.534   6.581  14.709 -0.2367 -0.4808  0.5359
11461TIP3    H155874   0.503   6.523  14.779  0.4642 -0.1622  1.1175
11461TIP3    H255875   0.627   6.592  14.726  0.2590 -1.5344 -1.2718
11462TIP3   OH255876   4.676   1.013   2.803  1.0079 -0.6407  0.0517
11462TIP3    H155877   4.628   0.931   2.812 -1.3060  0.6498  0.4661
11462TIP3    H255878   4.695   1.040   2.893 -1.1096  0.7495  0.1689
11463TIP3   OH255879   1.266   1.326   0.819  0.4546  0.3139 -0.1586
11463TIP3    H155880   1.296   1.414   0.839  1.5982 -0.4855  2.0034
11463TIP3    H255881   1.325   1.295   0.750 -0.3477  1.3947 -1.3854
11464TIP3   OH255882   2.055   0.329   5.140  0.3893 -0.0442  0.2243
11464TIP3    H155883   2.089   0.286   5.062  1.0703  0.9521 -0.0406
11464TIP3    H255884   2.058   0.423   5.120  0.9475  0.2554  1.5882
11465TIP3   OH255885   2.402   0.272  12.132 -0.8996  0.2870  0.1304
11465TIP3    H155886   2.472   0.243  12.192 -0.7374 -1.1139 -0.6984
11465TIP3    H255887   2.441   0.344  12.083  0.4394 -1.2002 -1.1229
11466TIP3   OH255888   2.452   0.581   5.612 -0.0154 -0.3119  0.1136
11466TIP3    H155889   2.547   0.593   5.614 -0.1292  0.8211 -0.4080
11466TIP3    H255890   2.429   0.583   5.519 -0.5290 -0.7036  0.2300
11467TIP3   OH255891   2.345   6.040  13.886  0.5641  0.1245 -0.0864
11467TIP3    H155892   2.410   6.106  13.908 -0.3470  1.1838 -0.4855
11467TIP3    H255893   2.312   6.009  13.970  0.2858  0.9054  0.0965
11468TIP3   OH255894   1.706   3.349   4.600  0.2523  0.3690  0.2194
11468TIP3    H155895   1.797   3.372   4.578 -0.0636  1.1409 -0.2926
11468TIP3    H255896   1.687   3.399   4.679  0.3974 -0.0952  0.5511
11469TIP3   OH255897   6.046   6.505   2.917 -0.1388  0.0175  0.3338
11469TIP3    H155898   5.990   6.569   2.873  0.6277  0.6401  0.2328
11469TIP3    H255899   5.990   6.465   2.982 -0.8165  0.3286 -0.0483
11470TIP3   OH255900   1.646   3.943   1.110  0.3574 -0.7751 -0.1411
11470TIP3    H155901   1.715   3.955   1.045  0.8051  1.3924  0.6605
11470TIP3    H255902   1.692   3.941   1.194 -0.3526 -1.9888  0.2451
11471TIP3   OH255903   2.929   6.740  15.551  0.2714  0.2142 -0.2448
11471TIP3    H155904   2.950   6.661  15.502  1.1293  0.2753  0.0133
11471TIP3    H255905   2.943   6.717  15.643 -1.1750  0.1470 -0.0137
11472TIP3   OH255906   0.422   3.625   1.547  0.2666 -0.2260  0.2063
11472TIP3    H155907   0.432   3.555   1.612  0.1423 -2.7204 -2.2876
11472TIP3    H255908   0.502   3.677   1.555  1.2027 -1.7326  0.9264
11473TIP3   OH255909   1.734   0.876  10.865 -0.1188  0.2510 -0.3177
11473TIP3    H155910   1.761   0.899  10.776 -0.7429 -0.1595 -0.6180
11473TIP3    H255911   1.801   0.814  10.895 -0.7758 -0.8603 -1.1058
11474TIP3   OH255912   5.650   3.603   1.079  0.1194  0.7102  0.1935
11474TIP3    H155913   5.562   3.584   1.114 -0.4711 -0.7258 -1.8963
11474TIP3    H255914   5.647   3.695   1.055 -1.3948  0.3430 -1.2304
11475TIP3   OH255915   6.308   1.290  13.147  0.2547 -0.0559  0.2644
11475TIP3    H155916   6.294   1.200  13.118  1.7761 -0.3429  0.3094
11475TIP3    H255917   6.311   1.342  13.066  0.7573 -0.2786  0.1339
11476TIP3   OH255918   0.213   1.294  11.702 -0.0885 -0.3805  0.0048
11476TIP3    H155919   0.188   1.374  11.749  0.1551 -0.1073 -0.3192
11476TIP3    H255920   0.170   1.223  11.750 -1.1645  0.0356 -0.3038
11477TIP3   OH255921   2.103   4.468   6.530  0.1834 -0.3457 -0.3647
11477TIP3    H155922   2.063   4.550   6.560 -2.3647 -1.9268  0.9182
11477TIP3    H255923   2.158   4.441   6.603 -0.3003 -0.5780 -0.0781
11478TIP3   OH255924   1.852   0.102   4.085 -0.2894 -0.2479 -0.6490
11478TIP3    H155925   1.794   0.175   4.061 -0.7973 -0.8398 -1.2249
11478TIP3    H255926   1.821   0.075   4.172  0.7817  1.0987  0.2154
11479TIP3   OH255927   2.048   2.686  12.342 -0.5655  0.5758 -0.1528
11479TIP3    H155928   1.978   2.675  12.278 -1.0223  1.1632  0.2332
11479TIP3    H255929   2.128   2.662  12.295 -1.1960 -2.0952 -0.0332
11480TIP3   OH255930   4.188   3.055   5.393 -0.3457  0.0320 -0.3877
11480TIP3    H155931   4.161   3.101   5.313  0.8409 -1.3609 -1.6640
11480TIP3    H255932   4.112   3.001   5.416 -0.4916  0.0002 -0.9256
11481TIP3   OH255933   5.431   1.843  12.298 -0.7092  0.4919 -0.4766
11481TIP3    H155934   5.393   1.879  12.218 -1.4898  2.7180  0.8227
11481TIP3    H255935   5.498   1.906  12.324  0.1241 -0.6387  0.1963
11482TIP3   OH255936   3.929   5.410   2.373 -0.1563  0.4044  0.2489
11482TIP3    H155937   3.949   5.420   2.466  0.7889 -0.9939  0.2182
11482TIP3    H255938   3.845   5.364   2.371 -0.6566  1.2876  0.3902
11483TIP3   OH255939   5.712   6.318  15.291 -0.2701  0.0953  0.6654
11483TIP3    H155940   5.777   6.378  15.327 -0.8521  0.9330  0.3415
11483TIP3    H255941   5.744   6.231  15.316  0.7653  0.5084  0.8450
11484TIP3   OH255942   4.366   2.317   2.544 -0.7258  0.0296  0.5897
11484TIP3    H155943   4.438   2.263   2.511 -2.3201 -1.1174 -1.2583
11484TIP3    H255944   4.404   2.404   2.555  0.8208 -0.4222 -0.7522
11485TIP3   OH255945   1.833   1.018  16.194  0.1193 -0.2425 -0.4000
11485TIP3    H155946   1.862   0.969  16.117 -0.1889 -0.0055 -0.6715
11485TIP3    H255947   1.913   1.030  16.246  0.0875 -1.5983 -0.0002
11486TIP3   OH255948   5.196   0.648  12.669  0.6604 -0.1349  0.0980
11486TIP3    H155949   5.248   0.675  12.745  1.0264 -0.8511  0.1094
11486TIP3    H255950   5.127   0.593  12.706  0.8393 -0.4860 -0.0787
11487TIP3   OH255951   1.300   4.679   6.862  0.6239  0.1746  0.0613
11487TIP3    H155952   1.310   4.755   6.805  0.9444  0.9726  1.1638
11487TIP3    H255953   1.222   4.698   6.914  0.3769 -0.5174 -0.0402
11488TIP3   OH255954   5.491   6.369   0.354 -0.6995  0.1598 -0.2315
11488TIP3    H155955   5.487   6.424   0.276  0.2973  1.5338  0.6389
11488TIP3    H255956   5.496   6.431   0.427  0.9515 -1.0483  0.7634
11489TIP3   OH255957   5.954   1.878   3.887  0.5940 -0.3724 -0.3848
11489TIP3    H155958   5.880   1.843   3.837 -0.0750  1.0336 -0.4147
11489TIP3    H255959   5.924   1.878   3.978  0.3170  0.7688 -0.4689
11490TIP3   OH255960   0.071   6.105  14.483  0.5868 -0.3381  0.3360
11490TIP3    H155961   0.121   6.051  14.545  0.2401 -0.5550  0.4360
11490TIP3    H255962   0.043   6.043  14.415  2.5055  0.2326 -1.0432
11491TIP3   OH255963   1.984   4.518  11.475 -0.2459  0.3712  0.6437
11491TIP3    H155964   2.024   4.453  11.533  1.0091  2.2707  2.0241
11491TIP3    H255965   1.893   4.521  11.501 -0.0021  0.1797  1.5414
11492TIP3   OH255966   4.308   5.901  12.412 -0.3258 -0.0348 -0.0539
11492TIP3    H155967   4.401   5.892  12.394 -0.3878 -1.7708  0.3280
11492TIP3    H255968   4.304   5.956  12.491  0.4495 -1.0473  0.7063
11493TIP3   OH255969   3.466   6.711   3.015  0.4890 -0.0885  0.5693
11493TIP3    H155970   3.417   6.773   3.069 -1.8925  1.0314 -2.5300
11493TIP3    H255971   3.410   6.634   3.009  1.3162 -0.7141  0.7500
11494TIP3   OH255972   4.197   2.702   5.319 -0.9076 -0.6073 -0.3851
11494TIP3    H155973   4.224   2.762   5.249  1.4644  0.6431  1.4836
11494TIP3    H255974   4.110   2.733   5.344 -0.5955  0.7319 -0.8643
11495TIP3   OH255975   4.776   1.427  11.970 -0.0932 -0.0965 -0.6013
11495TIP3    H155976   4.745   1.467  12.051 -0.2390 -0.9146 -0.2401
11495TIP3    H255977   4.717   1.352  11.956  0.6954 -0.6962 -0.7906
11496TIP3   OH255978   0.631   0.438   4.414  0.1083 -0.6692 -0.0893
11496TIP3    H155979   0.655   0.524   4.449  0.5468 -0.8748  0.1351
11496TIP3    H255980   0.639   0.448   4.320 -3.3259  0.5692 -0.4014
11497TIP3   OH255981   0.322   4.962  15.256 -0.0806 -0.1719  0.0868
11497TIP3    H155982   0.230   4.957  15.283 -0.6970  0.1248 -1.7458
11497TIP3    H255983   0.359   4.876  15.277 -0.9533 -0.5025  0.3025
11498TIP3   OH255984   2.828   1.849  16.401 -0.1690 -0.0750  0.2240
11498TIP3    H155985   2.906   1.808  16.440 -0.2188 -1.0394 -0.6496
11498TIP3    H255986   2.760   1.782  16.408  0.2816 -1.0194 -3.1107
11499TIP3   OH255987   5.553   5.370  16.687 -0.4005  0.1093  0.9378
11499TIP3    H155988   5.618   5.304  16.711  0.6069  1.3763  1.7976
11499TIP3    H255989   5.600   5.453  16.693 -1.2971  0.8552 -1.2539
11500TIP3   OH255990   0.712   3.304   3.324 -0.2571  0.5255 -0.0632
11500TIP3    H155991   0.726   3.313   3.230 -0.3396  0.0486 -0.1242
11500TIP3    H255992   0.679   3.215   3.335  2.0062 -0.2901  0.6792
11501TIP3   OH255993   1.043   1.872  13.405 -0.3358 -0.2526  0.2573
11501TIP3    H155994   1.095   1.930  13.460 -0.2586 -1.7228  1.8249
11501TIP3    H255995   1.075   1.887  13.316  2.6371 -0.9288  1.1088
11502TIP3   OH255996   0.897   6.647  11.770  0.2222  0.3015 -0.2447
11502TIP3    H155997   0.921   6.718  11.830  0.2396  2.1063 -2.2377
11502TIP3    H255998   0.949   6.572  11.798  0.0635  0.9930  2.0746
11503TIP3   OH255999   5.114   3.177   2.510  0.5414  0.2486 -0.8024
11503TIP3    H156000   5.153   3.108   2.457  1.3145  1.3256 -1.6944
11503TIP3    H256001   5.139   3.258   2.466 -1.1447  1.0746 -0.3511
11504TIP3   OH256002   1.943   5.991  13.945 -0.6434  0.1046 -0.1577
11504TIP3    H156003   1.902   5.910  13.977 -0.5343 -0.5245 -1.5369
11504TIP3    H256004   2.010   5.961  13.883  0.9931  1.1798  1.0171
11505TIP3   OH256005   4.405   2.423  16.910 -0.3129  0.0658  0.4992
11505TIP3    H156006   4.377   2.474  16.987 -1.3166  1.4952 -0.7515
11505TIP3    H256007   4.331   2.429  16.850  1.0956  0.4723 -1.2758
11506TIP3   OH256008   1.569   0.328   2.981  0.0662  0.6454  0.2651
11506TIP3    H156009   1.570   0.418   2.948  0.7422  0.7133  0.4450
11506TIP3    H256010   1.579   0.273   2.904 -2.2125  0.6288 -0.0697
11507TIP3   OH256011   6.652   4.607  11.156 -0.2251 -0.8073 -0.0158
11507TIP3    H156012   6.646   4.588  11.062 -1.8715 -0.3976 -0.0161
11507TIP3    H256013   6.672   4.700  11.161 -0.8008 -0.6855  0.0409
11508TIP3   OH256014   0.408   4.605   5.153  0.0553  0.0383 -0.1003
11508TIP3    H156015   0.460   4.537   5.194  1.2534  0.4850 -0.8298
11508TIP3    H256016   0.396   4.671   5.222 -0.5953 -0.6249  0.4260
11509TIP3   OH256017   3.362   4.481   1.698  0.3337  0.3279  0.2616
11509TIP3    H156018   3.321   4.394   1.696  0.9881  0.0244 -0.5689
11509TIP3    H256019   3.291   4.540   1.724 -0.3597 -0.3284 -0.0946
11510TIP3   OH256020   1.259   0.859   2.210 -0.1787 -0.3379  0.1136
11510TIP3    H156021   1.340   0.910   2.211  0.7668 -1.7494 -0.6992
11510TIP3    H256022   1.195   0.914   2.254  0.6223  1.8092 -1.2548
11511TIP3   OH256023   3.717   4.516   4.538 -0.1086  0.4481 -0.5395
11511TIP3    H156024   3.766   4.549   4.614 -0.6447 -2.3650  1.1753
11511TIP3    H256025   3.629   4.501   4.572 -0.1301 -1.6975 -1.4129
11512TIP3   OH256026   0.205   1.274  14.921 -0.4053  0.5796  0.2179
11512TIP3    H156027   0.284   1.275  14.975  0.1130  0.7324 -0.5280
11512TIP3    H256028   0.182   1.181  14.914  0.8760  0.3389 -1.2113
11513TIP3   OH256029   6.565   2.462   5.611  0.0940 -0.2916  0.0627
11513TIP3    H156030   6.569   2.542   5.559  0.9466 -0.8194 -0.7159
11513TIP3    H256031   6.621   2.479   5.686  1.1838 -0.5387 -0.6729
11514TIP3   OH256032   5.812   6.659   6.418 -0.4389 -0.3200 -0.3142
11514TIP3    H156033   5.865   6.738   6.429  0.3610 -1.0424  1.6451
11514TIP3    H256034   5.861   6.606   6.354  1.3474 -0.9821  1.4695
11515TIP3   OH256035   5.891   2.580  10.520  0.1265  0.1272 -0.1764
11515TIP3    H156036   5.892   2.507  10.459 -0.8599 -0.7891  0.8468
11515TIP3    H256037   5.799   2.588  10.546  0.3978  1.0047  0.5851
11516TIP3   OH256038   4.362   1.291   4.597 -0.0492  0.3963 -0.5654
11516TIP3    H156039   4.411   1.243   4.530 -0.5164 -1.1402  0.1687
11516TIP3    H256040   4.395   1.381   4.590  1.2743 -0.1319 -1.5703
11517TIP3   OH256041   2.778   4.722   3.018  0.6077  0.1139  0.1355
11517TIP3    H156042   2.725   4.758   2.947  1.2581 -0.9499 -0.9371
11517TIP3    H256043   2.832   4.795   3.047  0.3750  0.5599 -0.5283
11518TIP3   OH256044   0.390   6.581   0.138 -0.3814 -0.1637  0.0605
11518TIP3    H156045   0.383   6.663   0.087 -0.2951  0.3355  0.8353
11518TIP3    H256046   0.348   6.602   0.221 -0.5737 -0.9947  0.1785
11519TIP3   OH256047   5.514   5.440  11.882  0.2934 -0.6514 -0.2974
11519TIP3    H156048   5.422   5.438  11.855 -0.2193 -0.9731  1.4029
11519TIP3    H256049   5.518   5.506  11.951  1.3267 -0.7414 -0.2535
11520TIP3   OH256050   0.036   1.291   0.258 -0.1827  0.1899 -0.1599
11520TIP3    H156051   0.042   1.239   0.337  0.2199 -0.3990 -0.5727
11520TIP3    H256052   0.119   1.337   0.252 -0.5621  0.9468  0.2398
11521TIP3   OH256053   3.968   5.645   3.316 -0.0020 -0.5368  0.5705
11521TIP3    H156054   3.994   5.731   3.283 -0.1668  0.1354  2.1397
11521TIP3    H256055   3.937   5.598   3.238 -0.0425  0.8611 -0.2861
11522TIP3   OH256056   1.780   5.612  16.195  0.0454 -0.2663 -0.1593
11522TIP3    H156057   1.820   5.699  16.194  2.4233 -1.2780  1.2696
11522TIP3    H256058   1.772   5.589  16.102  1.4489  0.5800 -0.5253
11523TIP3   OH256059   4.408   5.131   5.492  0.2743 -0.3755  0.1589
11523TIP3    H156060   4.367   5.048   5.518  0.2479 -0.5735 -0.5090
11523TIP3    H256061   4.468   5.107   5.422  0.5639  0.1164  0.2365
11524TIP3   OH256062   1.204   3.013  12.115 -0.3281  0.3650  0.0355
11524TIP3    H156063   1.211   3.108  12.125 -0.5678  0.5478 -1.2721
11524TIP3    H256064   1.151   2.985  12.189  0.2145  1.1713  0.7521
11525TIP3   OH256065   3.241   1.007  11.861 -0.1284 -0.1108 -0.6133
11525TIP3    H156066   3.278   0.942  11.801 -0.8293 -0.4588 -0.6807
11525TIP3    H256067   3.153   1.024  11.826 -0.4963 -0.2157  0.2394
11526TIP3   OH256068   6.361   6.625   3.214 -0.5138  0.3466 -0.1328
11526TIP3    H156069   6.415   6.647   3.290  0.8236  1.2233 -1.3018
11526TIP3    H256070   6.392   6.683   3.144 -2.2313  0.1097 -1.1584
11527TIP3   OH256071   4.952   1.783   1.748 -0.0730 -0.1871  0.1651
11527TIP3    H156072   5.044   1.761   1.731 -0.7813 -2.6533 -1.0890
11527TIP3    H256073   4.913   1.699   1.773 -2.4285  0.2586 -1.6706
11528TIP3   OH256074   6.051   0.789   5.730 -0.2850 -0.4756 -0.3890
11528TIP3    H156075   6.125   0.774   5.671  0.3754 -0.6743  0.4846
11528TIP3    H256076   6.004   0.863   5.690 -0.1156 -0.9022 -1.4127
11529TIP3   OH256077   2.729   6.737  12.700 -0.1335 -0.5767 -0.2381
11529TIP3    H156078   2.783   6.778  12.767  0.8961  1.4564 -2.1991
11529TIP3    H256079   2.779   6.661  12.672  0.2699 -0.4238  0.0533
11530TIP3   OH256080   3.377   4.540   4.365 -0.0902 -0.1562 -0.2386
11530TIP3    H156081   3.307   4.601   4.342 -0.4442 -0.5557 -0.2419
11530TIP3    H256082   3.435   4.590   4.421  0.1137  0.4609 -0.9779
11531TIP3   OH256083   0.585   1.311  11.124 -0.1568 -0.5798  0.1294
11531TIP3    H156084   0.518   1.379  11.135 -0.1124 -0.6629  1.0129
11531TIP3    H256085   0.582   1.262  11.206 -0.1113 -1.5785 -0.4614
11532TIP3   OH256086   2.844   4.773  14.531  0.0628  0.0262  0.3342
11532TIP3    H156087   2.780   4.841  14.509  0.3905 -0.1546 -1.3563
11532TIP3    H256088   2.872   4.739  14.446  2.7937  0.4605  0.9804
11533TIP3   OH256089   3.979   3.180   4.165 -0.4756 -0.5197  0.2150
11533TIP3    H156090   3.941   3.157   4.080 -1.0604 -0.8643  0.5665
11533TIP3    H256091   3.911   3.158   4.229 -0.7003  1.3185  0.6543
11534TIP3   OH256092   3.138   1.602   3.111 -0.4778  0.3621  0.0078
11534TIP3    H156093   3.128   1.638   3.023 -0.2071 -1.2703 -0.7351
11534TIP3    H256094   3.051   1.571   3.135 -0.4294  0.2797  0.0780
11535TIP3   OH256095   1.848   1.333  13.581 -0.1952 -0.1870  0.2438
11535TIP3    H156096   1.923   1.374  13.539  0.0279 -1.1627 -0.3515
11535TIP3    H256097   1.772   1.362  13.531  0.1287 -1.9332 -1.4053
11536TIP3   OH256098   6.686   5.307   5.321  0.2086  0.3267 -0.1013
11536TIP3    H156099   6.771   5.310   5.365 -0.4448  1.2937  1.1531
11536TIP3    H256100   6.692   5.373   5.252  1.2190 -1.1610 -1.5297
11537TIP3   OH256101   4.049   3.284  13.201 -0.1652  0.5060 -0.3495
11537TIP3    H156102   4.077   3.369  13.166  0.9745  0.2950  0.0234
11537TIP3    H256103   4.012   3.238  13.126 -1.0381  1.4240 -0.5045
11538TIP3   OH256104   1.709   5.881  16.772  0.2630 -0.2369 -0.1488
11538TIP3    H156105   1.676   5.874  16.682 -1.1427  1.5382  0.1611
11538TIP3    H256106   1.793   5.837  16.770  0.0589 -0.6439 -2.2347
11539TIP3   OH256107   1.639   6.129  16.689  0.1316 -0.5914  0.7156
11539TIP3    H156108   1.695   6.054  16.711  2.4988  0.5453 -1.0455
11539TIP3    H256109   1.614   6.114  16.598  0.8966  0.8845  0.2411
11540TIP3   OH256110   5.583   1.259  14.684 -0.0850  0.2685 -0.1739
11540TIP3    H156111   5.653   1.277  14.747  0.3998  0.2012 -0.6875
11540TIP3    H256112   5.552   1.345  14.658 -1.5913  0.3079  1.5681
11541TIP3   OH256113   4.512   4.645   4.776 -0.3707  0.0270 -0.7291
11541TIP3    H156114   4.464   4.643   4.693 -0.4872 -0.2009 -0.6560
11541TIP3    H256115   4.513   4.554   4.806 -0.1844  0.0829 -0.5636
11542TIP3   OH256116   2.693   2.657   0.344 -0.1107  0.4633  0.1180
11542TIP3    H156117   2.684   2.747   0.375 -0.2112  0.3618  0.3858
11542TIP3    H256118   2.648   2.657   0.259 -0.1437  0.6558  0.1340
11543TIP3   OH256119   5.717   0.850  12.671 -0.8453  0.5298  0.5262
11543TIP3    H156120   5.779   0.825  12.741 -0.7678 -0.0253  0.2651
11543TIP3    H256121   5.679   0.933  12.701 -1.0721  0.1204  1.4005
11544TIP3   OH256122   5.471   4.205   4.178 -0.1971 -0.7366  0.1510
11544TIP3    H156123   5.508   4.246   4.256 -0.6100 -1.1862  0.5892
11544TIP3    H256124   5.538   4.144   4.149 -0.0655 -0.6100  0.1872
11545TIP3   OH256125   2.831   4.571   3.260  0.0826 -0.0839 -0.2903
11545TIP3    H156126   2.894   4.633   3.222  0.0433  0.2881  0.2441
11545TIP3    H256127   2.885   4.509   3.309 -0.0271  1.0769  1.3880
11546TIP3   OH256128   0.530   3.826   5.381  0.4210  1.1003 -0.6569
11546TIP3    H156129   0.608   3.815   5.436  0.2094 -0.0298 -0.5600
11546TIP3    H256130   0.463   3.857   5.441  0.8085  2.1608 -0.7560
11547TIP3   OH256131   0.783   4.788  11.919 -0.0121 -0.1282  0.3008
11547TIP3    H156132   0.709   4.732  11.898  0.4361 -0.9264  0.8024
11547TIP3    H256133   0.860   4.734  11.901  0.4236  0.1843  1.1510
11548TIP3   OH256134   2.631   2.344   1.923  0.4915  0.7874  0.5800
11548TIP3    H156135   2.558   2.364   1.982  1.6724  1.4769  1.8955
11548TIP3    H256136   2.676   2.428   1.913 -0.5515  1.0782 -2.6652
11549TIP3   OH256137   6.712   2.770  12.703  0.4981  0.3158  0.7050
11549TIP3    H156138   6.679   2.856  12.676  0.4842  0.1687  0.2405
11549TIP3    H256139   6.804   2.786  12.726  0.5812  0.3980  0.3214
11550TIP3   OH256140   6.523   0.681  15.087 -0.2627  0.0370  0.0131
11550TIP3    H156141   6.515   0.655  14.995 -0.2463 -0.8794  0.2670
11550TIP3    H256142   6.459   0.627  15.134 -0.2036  0.4273  0.5582
11551TIP3   OH256143   4.216   5.098   5.239 -0.6004  0.0761 -0.3427
11551TIP3    H156144   4.191   5.098   5.146  0.9693 -0.6913 -0.8009
11551TIP3    H256145   4.274   5.023   5.248 -0.3562  0.4129  1.1744
11552TIP3   OH256146   5.202   5.746   1.187 -0.3294 -0.3053  0.3247
11552TIP3    H156147   5.206   5.660   1.144  1.6938  0.6968 -1.7149
11552TIP3    H256148   5.136   5.794   1.136 -0.9012 -0.3757  0.9814
11553TIP3   OH256149   5.552   0.952   3.965 -0.4531 -0.3882  0.1403
11553TIP3    H156150   5.507   1.030   3.934 -0.8081 -1.0214 -0.9650
11553TIP3    H256151   5.484   0.898   4.005 -0.1973 -0.1222  0.9656
11554TIP3   OH256152   2.628   4.511   1.004 -0.4715 -0.7226  0.2497
11554TIP3    H156153   2.658   4.454   0.933 -1.2291 -0.4070 -0.3382
11554TIP3    H256154   2.633   4.600   0.968  0.7361 -0.3954  1.1715
11555TIP3   OH256155   0.502   6.084   3.130 -0.4522 -0.0268  0.0902
11555TIP3    H156156   0.496   6.046   3.042  1.8073  2.3280 -1.2433
11555TIP3    H256157   0.417   6.124   3.145 -0.5002  0.6184 -1.6352
11556TIP3   OH256158   0.633   0.985   3.892  0.4032 -1.0209  0.0702
11556TIP3    H156159   0.685   1.043   3.837  0.9962 -2.0735 -0.5160
11556TIP3    H256160   0.555   1.036   3.914  2.0718  0.9942  1.7936
11557TIP3   OH256161   1.745   6.296   4.240  0.1268 -0.0956 -0.2512
11557TIP3    H156162   1.788   6.254   4.314  1.3053  1.7755  0.1970
11557TIP3    H256163   1.814   6.304   4.174 -0.5453 -0.4720 -1.0126
11558TIP3   OH256164   3.120   5.069   5.925  0.1925  0.3274 -0.7431
11558TIP3    H156165   3.192   5.132   5.934  0.0148  0.5623 -0.9759
11558TIP3    H256166   3.061   5.089   5.998  0.0622  0.5238 -0.9041
11559TIP3   OH256167   2.697   4.035  15.746  0.3809 -0.3074 -0.1228
11559TIP3    H156168   2.723   4.125  15.765  2.4320 -0.2056 -2.8283
11559TIP3    H256169   2.657   4.039  15.659 -1.0847 -1.8122  0.4250
11560TIP3   OH256170   3.656   2.451   5.366 -0.6093  0.5706 -0.4281
11560TIP3    H156171   3.644   2.431   5.274  2.8591  2.0203 -1.3520
11560TIP3    H256172   3.732   2.400   5.393 -0.5530  1.4067  1.1690
11561TIP3   OH256173   5.826   2.146   5.904  0.2563  0.2822 -0.6191
11561TIP3    H156174   5.913   2.137   5.944 -0.3914 -1.5171  0.5179
11561TIP3    H256175   5.766   2.147   5.978 -0.7936 -0.0649 -1.4379
11562TIP3   OH256176   5.249   1.175   5.052 -0.4066  0.1801 -0.3574
11562TIP3    H156177   5.304   1.145   4.980 -0.3251 -1.1393  0.2308
11562TIP3    H256178   5.249   1.102   5.115 -1.2376  0.9268  0.5446
11563TIP3   OH256179   1.211   2.473  17.040 -0.5677  0.1360  0.6727
11563TIP3    H156180   1.159   2.508  16.967 -1.6678 -1.0566  0.8475
11563TIP3    H256181   1.158   2.401  17.074  1.6310 -1.7685  0.2671
11564TIP3   OH256182   0.304   0.876  11.208  0.1652  0.1798 -0.3439
11564TIP3    H156183   0.372   0.858  11.273 -0.6270 -3.0514 -0.2392
11564TIP3    H256184   0.278   0.966  11.224  0.7895 -0.1420  3.0839
11565TIP3   OH256185   6.342   5.389   4.220  0.0201 -0.5502  0.3655
11565TIP3    H156186   6.390   5.311   4.247  1.6660  0.8776  1.7451
11565TIP3    H256187   6.402   5.435   4.162 -0.2612  0.5304  0.9212
11566TIP3   OH256188   1.048   0.721  13.309  0.2574  0.3179 -0.0632
11566TIP3    H156189   0.961   0.760  13.317 -0.2318 -0.6128 -0.6657
11566TIP3    H256190   1.075   0.706  13.400  0.6194  2.3267  0.2075
11567TIP3   OH256191   6.626   1.864  10.980 -0.3316 -0.6056  0.2423
11567TIP3    H156192   6.718   1.846  10.960 -0.2884 -0.7965  0.6018
11567TIP3    H256193   6.597   1.925  10.912  0.1198 -0.3792  0.2553
11568TIP3   OH256194   5.666   2.130  13.277  0.3365 -0.0121  0.1411
11568TIP3    H156195   5.686   2.053  13.330  1.4376  0.1775  0.0325
11568TIP3    H256196   5.724   2.198  13.312  0.3376  0.3934 -0.6417
11569TIP3   OH256197   5.764   6.713   1.088  0.1502 -0.3197 -0.2997
11569TIP3    H156198   5.716   6.775   1.034 -1.6584 -0.5573  0.9217
11569TIP3    H256199   5.846   6.698   1.042  0.3597  2.4237 -0.9862
11570TIP3   OH256200   0.015   5.374  16.045  0.6101  0.3306  0.5884
11570TIP3    H156201  -0.019   5.285  16.032  3.1929 -0.6820  0.1820
11570TIP3    H256202  -0.014   5.422  15.967  0.5906 -0.6236 -0.0065
11571TIP3   OH256203   0.716   2.713   3.531 -0.4392  0.1523 -0.1421
11571TIP3    H156204   0.776   2.753   3.468 -0.5855 -1.0557 -1.0811
11571TIP3    H256205   0.774   2.677   3.599 -0.2603  1.0772  0.2142
11572TIP3   OH256206   3.975   0.069   5.073  0.2341  0.7509 -0.1697
11572TIP3    H156207   3.887   0.032   5.059 -0.0010  1.7253 -1.4505
11572TIP3    H256208   4.027  -0.005   5.102 -0.5860 -0.2788 -1.1939
11573TIP3   OH256209   3.196   0.427  17.125 -0.0448  0.4866  0.0170
11573TIP3    H156210   3.245   0.440  17.043 -2.2653 -1.0049 -1.6725
11573TIP3    H256211   3.162   0.513  17.147  0.8130  0.9581 -0.4498
11574TIP3   OH256212   4.150   3.811  16.768 -0.1733 -0.1584 -0.2324
11574TIP3    H156213   4.124   3.897  16.735  0.4248 -0.4577 -1.5701
11574TIP3    H256214   4.120   3.750  16.700 -0.6404 -1.0229  0.7211
11575TIP3   OH256215   6.706   2.007  14.500  0.1044 -0.1220 -0.2856
11575TIP3    H156216   6.761   1.940  14.461 -0.2141  0.9925 -2.8311
11575TIP3    H256217   6.767   2.069  14.540  0.6152  0.0714 -1.3422
11576TIP3   OH256218   3.487   5.678   0.865 -0.3531  0.3730 -0.2268
11576TIP3    H156219   3.425   5.667   0.793  1.6116 -1.1267 -1.8213
11576TIP3    H256220   3.543   5.601   0.861  0.0405  0.3748  2.7870
11577TIP3   OH256221   3.536   4.732  13.960 -0.0631 -0.3064 -0.2455
11577TIP3    H156222   3.589   4.794  14.011 -0.3935  0.0811 -0.3662
11577TIP3    H256223   3.585   4.722  13.878 -1.1724  1.6621 -1.2191
11578TIP3   OH256224   2.761   5.184  14.299 -0.7899 -0.2119  0.0784
11578TIP3    H156225   2.827   5.252  14.315  1.8984 -2.0240 -2.5336
11578TIP3    H256226   2.687   5.232  14.261 -0.0375  1.5659  0.7237
11579TIP3   OH256227   2.818   3.676  16.962  0.5551  0.3389 -0.3911
11579TIP3    H156228   2.765   3.756  16.967  0.7649  0.5178 -0.9188
11579TIP3    H256229   2.908   3.707  16.973  0.5813  0.0924  0.0641
11580TIP3   OH256230   5.695   4.469  11.200  0.0301  0.1471  0.1611
11580TIP3    H156231   5.663   4.480  11.110 -0.8427  0.5245  0.5054
11580TIP3    H256232   5.644   4.397  11.236 -1.0908  1.2965  0.9850
11581TIP3   OH256233   3.364   4.476   0.535  0.7244 -0.3656 -0.0473
11581TIP3    H156234   3.369   4.500   0.443  0.5606  1.7112  0.4404
11581TIP3    H256235   3.284   4.424   0.542  0.9771 -0.9234 -1.1421
11582TIP3   OH256236   6.142   2.042  12.886  0.6892 -0.0142  0.3699
11582TIP3    H156237   6.130   2.137  12.884  1.1500  0.0376 -0.1932
11582TIP3    H256238   6.187   2.025  12.968 -0.9991  0.0426  1.3660
11583TIP3   OH256239   5.097   5.046   4.332 -0.0547  0.0173 -0.4420
11583TIP3    H156240   5.168   5.087   4.282  0.2475 -1.0094 -0.8876
11583TIP3    H256241   5.083   5.105   4.406  2.1182 -0.3298  0.3337
11584TIP3   OH256242   4.691   3.050   1.354  0.2292 -0.1260  0.3383
11584TIP3    H156243   4.685   3.045   1.450 -0.1586  0.9322  0.3895
11584TIP3    H256244   4.768   3.104   1.338  0.9520 -1.2215  0.0131
11585TIP3   OH256245   6.576   5.006   1.517  0.4037 -0.1525 -0.0209
11585TIP3    H156246   6.521   5.054   1.455  0.1709 -0.2162  0.1354
11585TIP3    H256247   6.618   4.938   1.464  0.6693  0.1632 -0.2276
11586TIP3   OH256248   3.119   1.974  16.020 -0.0115 -0.5756 -0.4304
11586TIP3    H156249   3.128   1.962  16.114  0.5418 -1.6445 -0.6070
11586TIP3    H256250   3.030   2.006  16.008 -0.0770 -0.4024  0.4493
11587TIP3   OH256251   1.093   2.372   3.775 -0.3268 -0.0285 -0.0608
11587TIP3    H156252   1.045   2.339   3.851  0.0631 -0.2691  0.0884
11587TIP3    H256253   1.027   2.382   3.707 -0.4192 -1.4733 -0.2311
11588TIP3   OH256254   3.458   1.016  15.772  0.2014  0.1735 -0.1889
11588TIP3    H156255   3.389   0.980  15.715 -1.5192  1.0881  1.2262
11588TIP3    H256256   3.540   0.996  15.726 -0.9733 -1.1850 -1.8114
11589TIP3   OH256257   4.134   6.490   0.328  0.0244  0.5378  0.3550
11589TIP3    H156258   4.120   6.418   0.390 -0.4945 -0.0287 -0.3885
11589TIP3    H256259   4.228   6.488   0.309  0.1214  0.4793  0.8461
11590TIP3   OH256260   0.529   4.147  11.603 -0.0638  0.9698  0.2260
11590TIP3    H156261   0.509   4.176  11.514  1.6707  1.8761  0.0768
11590TIP3    H256262   0.601   4.084  11.592  0.7536  1.7332  1.0173
11591TIP3   OH256263   0.193   0.295  10.571 -0.2477 -0.1993 -0.3268
11591TIP3    H156264   0.149   0.308  10.487  0.2864  0.9232 -0.4576
11591TIP3    H256265   0.218   0.203  10.572 -1.1164 -0.4508 -0.9736
11592TIP3   OH256266   3.513   5.271   4.597 -0.5181 -0.3859 -0.7926
11592TIP3    H156267   3.556   5.233   4.673 -0.5103 -1.8484 -1.4741
11592TIP3    H256268   3.549   5.359   4.589 -0.9252  0.0067  1.1831
11593TIP3   OH256269   6.045   5.309  12.434 -0.7454 -0.0192  0.1532
11593TIP3    H156270   6.039   5.254  12.512 -0.4886 -0.6903 -0.2887
11593TIP3    H256271   6.133   5.346  12.438 -0.4840 -0.5834 -0.1489
11594TIP3   OH256272   6.351   0.228   0.125 -0.7671  0.1335  0.0580
11594TIP3    H156273   6.352   0.149   0.070 -1.0685 -1.1197  1.7512
11594TIP3    H256274   6.443   0.254   0.131 -0.5234 -0.7301  0.3152
11595TIP3   OH256275   5.093   6.640   0.634 -0.5802  0.4030 -0.2773
11595TIP3    H156276   5.095   6.544   0.636 -0.1850  0.3908 -1.0548
11595TIP3    H256277   5.119   6.666   0.722 -1.2043 -0.2062  0.0957
11596TIP3   OH256278   0.103   5.613   2.245  0.3049 -0.1975  0.0436
11596TIP3    H156279   0.156   5.653   2.314 -0.3736 -0.6080  0.8222
11596TIP3    H256280   0.165   5.566   2.191  0.9275  0.6312  0.0137
11597TIP3   OH256281   5.074   1.569  12.849  0.0340  0.5407 -0.2100
11597TIP3    H156282   5.060   1.632  12.778  0.2108  0.1647 -0.5839
11597TIP3    H256283   5.151   1.602  12.895  0.2786  0.4672 -0.5564
11598TIP3   OH256284   3.529   3.027  13.937  0.0121 -0.4908  0.2291
11598TIP3    H156285   3.447   3.049  13.892  0.5186  0.4002 -0.3101
11598TIP3    H256286   3.579   2.978  13.872  0.5526  0.3794 -0.0283
11599TIP3   OH256287   6.561   2.073  12.938  0.1824 -0.1413  0.4501
11599TIP3    H156288   6.642   2.122  12.949  0.8561 -1.1620  0.1662
11599TIP3    H256289   6.539   2.082  12.846  0.3631 -0.4660  0.3760
11600TIP3   OH256290   5.755   6.262   4.778 -0.1445 -0.0136 -0.0162
11600TIP3    H156291   5.835   6.222   4.813 -0.0077  0.3086  0.0422
11600TIP3    H256292   5.765   6.355   4.796 -0.5762  0.0165  0.0690
11601TIP3   OH256293   4.706   2.518   2.700  0.2536 -0.3929  0.8989
11601TIP3    H156294   4.630   2.496   2.647  1.1838 -2.2105  0.2361
11601TIP3    H256295   4.726   2.609   2.678 -0.5327 -0.5254 -0.4210
11602TIP3   OH256296   5.412   5.415  14.367 -0.2348  0.0339  0.5345
11602TIP3    H156297   5.495   5.410  14.320 -1.5384 -0.9742 -1.8178
11602TIP3    H256298   5.398   5.326  14.400 -1.4417 -0.4687 -1.1647
11603TIP3   OH256299   5.884   1.926  11.950  0.1026 -0.5474  0.3205
11603TIP3    H156300   5.937   1.859  11.906 -0.1628 -1.2795  1.0720
11603TIP3    H256301   5.948   1.991  11.980  0.4766 -0.9452  0.4008
11604TIP3   OH256302   2.368   4.490   1.838 -0.2015  0.2638  0.6576
11604TIP3    H156303   2.431   4.418   1.843  0.3620  0.7961  1.2008
11604TIP3    H256304   2.296   4.462   1.896 -0.8789 -0.7206 -0.5940
11605TIP3   OH256305   5.215   1.274  11.871  0.2168 -0.2954  0.5349
11605TIP3    H156306   5.128   1.292  11.907 -0.0260 -0.2848 -0.0507
11605TIP3    H256307   5.212   1.181  11.848  0.2237 -0.1970  0.1386
11606TIP3   OH256308   2.350   4.664  15.873  0.3418 -0.0829  0.6372
11606TIP3    H156309   2.431   4.671  15.823 -0.4131  0.2166 -0.5662
11606TIP3    H256310   2.294   4.734  15.839 -0.6260 -0.6196  1.0801
11607TIP3   OH256311   6.848   5.720   4.075 -0.2653  0.0212  0.2611
11607TIP3    H156312   6.933   5.760   4.055 -0.7850  0.2530 -1.6913
11607TIP3    H256313   6.803   5.717   3.991 -1.8861 -0.8546  1.1201
11608TIP3   OH256314   1.720   1.844   1.254  0.3103  0.4646  0.4962
11608TIP3    H156315   1.721   1.766   1.200 -0.4484  0.4831  0.4508
11608TIP3    H256316   1.693   1.813   1.341  2.7180  0.2263  1.2234
11609TIP3   OH256317   0.360   2.422  13.412 -0.1232  0.5038 -0.0720
11609TIP3    H156318   0.440   2.373  13.428  0.9059  2.5321  1.4410
11609TIP3    H256319   0.389   2.513  13.400 -2.0202  0.9825 -1.7116
11610TIP3   OH256320   1.034   4.456   6.763 -0.0185  0.5677 -0.4887
11610TIP3    H156321   0.948   4.431   6.730 -0.7600  1.0704  0.9684
11610TIP3    H256322   1.082   4.485   6.686 -0.5004 -1.4731 -1.6045
11611TIP3   OH256323   4.361   3.478  11.984  0.2558  0.1984 -0.6139
11611TIP3    H156324   4.352   3.389  11.951 -2.1663  0.8701 -1.9260
11611TIP3    H256325   4.283   3.492  12.037  1.0492  1.2814  0.3268
11612TIP3   OH256326   1.627   2.876  16.186 -0.2257  0.1774  0.7784
11612TIP3    H156327   1.721   2.861  16.178 -0.5321 -3.3845  2.2117
11612TIP3    H256328   1.619   2.941  16.256  1.1739 -1.5925  2.7000
11613TIP3   OH256329   1.992   5.939   1.160 -0.5213 -0.3259  0.4450
11613TIP3    H156330   1.933   5.993   1.107 -0.6282 -2.7064 -2.0912
11613TIP3    H256331   2.079   5.975   1.143 -0.8805  1.3428  1.8467
11614TIP3   OH256332   5.883   1.481  12.349  0.2698  0.2249 -0.0853
11614TIP3    H156333   5.968   1.450  12.380  1.1350  0.8681 -1.6876
11614TIP3    H256334   5.892   1.577  12.348 -0.8416  0.3595  0.6594
11615TIP3   OH256335   3.443   5.121  14.531  0.5971 -0.1423 -0.4325
11615TIP3    H156336   3.455   5.041  14.581 -2.0353 -1.0149 -1.0499
11615TIP3    H256337   3.401   5.182  14.592  0.4176 -0.0666 -0.6293
11616TIP3   OH256338   2.156   1.280  15.356 -0.2272 -0.1549  0.2490
11616TIP3    H156339   2.085   1.219  15.375 -0.0901 -0.7483 -1.0346
11616TIP3    H256340   2.218   1.268  15.428 -0.0648 -1.7766 -0.1219
11617TIP3   OH256341   5.193   1.479  16.239 -0.3222 -0.7426 -0.3939
11617TIP3    H156342   5.249   1.471  16.162 -0.6779  0.0771 -0.7414
11617TIP3    H256343   5.119   1.533  16.210 -1.0719 -1.4302  0.1821
11618TIP3   OH256344   2.346   2.851   3.776  0.6101 -0.0080 -0.0543
11618TIP3    H156345   2.275   2.850   3.712  0.2458  2.3319  0.2324
11618TIP3    H256346   2.310   2.897   3.852  1.9930 -0.0093  0.6493
11619TIP3   OH256347   1.816   2.020  14.922  0.1234  0.3176  0.0336
11619TIP3    H156348   1.790   1.942  14.872  0.9270  0.7712 -1.1321
11619TIP3    H256349   1.901   2.044  14.885  0.3365  1.1708  1.0617
11620TIP3   OH256350   5.635   2.619   0.779 -0.1907  0.1026  0.0616
11620TIP3    H156351   5.618   2.563   0.704  1.8996  0.9963 -1.1703
11620TIP3    H256352   5.724   2.651   0.766 -1.0993  3.3836  0.8759
11621TIP3   OH256353   6.834   0.423   0.468 -0.1749  0.2147  0.0433
11621TIP3    H156354   6.786   0.340   0.474  0.2913  0.0195  1.3089
11621TIP3    H256355   6.794   0.479   0.534  0.3967  0.5316  0.1270
11622TIP3   OH256356   4.148   5.600  17.089  0.9475 -0.1227 -0.3832
11622TIP3    H156357   4.198   5.611  17.008  1.4339  0.6490  0.0150
11622TIP3    H256358   4.112   5.512  17.083  1.4109 -0.2654 -1.1999
11623TIP3   OH256359   3.532   4.622   2.321  0.6393  0.3169  0.2465
11623TIP3    H156360   3.462   4.565   2.353  1.0991 -0.7039 -0.4989
11623TIP3    H256361   3.512   4.634   2.228  1.5290 -0.1283 -0.0135
11624TIP3   OH256362   3.835   3.097   1.777  0.0874  0.1700  0.1800
11624TIP3    H156363   3.858   3.067   1.864 -1.9261 -1.1786  0.3120
11624TIP3    H256364   3.849   3.021   1.720 -0.8673  0.2869 -0.2391
11625TIP3   OH256365   1.258   3.301  12.870 -0.5896 -0.3736  0.1144
11625TIP3    H156366   1.265   3.376  12.928 -1.0098 -0.2165 -0.0346
11625TIP3    H256367   1.173   3.262  12.890 -0.5990 -0.5046 -0.1703
11626TIP3   OH256368   1.887   0.076   1.410  0.1583 -0.1242 -0.5462
11626TIP3    H156369   1.846   0.131   1.477 -0.3363 -1.0600 -0.0658
11626TIP3    H256370   1.981   0.092   1.421  0.2936 -2.1040  2.0614
11627TIP3   OH256371   0.119   4.706  15.685 -0.0324 -0.3155  0.1154
11627TIP3    H156372   0.171   4.772  15.638 -0.8480  0.5674  0.4253
11627TIP3    H256373   0.183   4.660  15.739  0.5941  0.0321 -0.3077
11628TIP3   OH256374   5.830   0.303  11.695 -0.1883  0.0029 -0.0419
11628TIP3    H156375   5.877   0.297  11.612 -0.9228  0.9598 -0.5570
11628TIP3    H256376   5.772   0.226  11.695 -2.6329  1.6684 -2.0573
11629TIP3   OH256377   5.130   6.117  13.015 -0.0625 -0.2978 -0.3651
11629TIP3    H156378   5.120   6.022  13.004  0.3146 -0.2540 -1.1142
11629TIP3    H256379   5.050   6.154  12.977  0.2314 -0.2717 -0.9807
11630TIP3   OH256380   0.188   2.610  11.230 -0.4146  0.1069  0.1829
11630TIP3    H156381   0.158   2.651  11.148 -0.4010 -0.9986 -0.3820
11630TIP3    H256382   0.257   2.668  11.262  0.2746  0.0266 -1.1104
11631TIP3   OH256383   4.401   1.857  14.959  0.1897 -0.2428  0.5340
11631TIP3    H156384   4.316   1.815  14.974  0.1871 -0.2216  0.5777
11631TIP3    H256385   4.423   1.834  14.868 -1.0501  1.8356 -0.3740
11632TIP3   OH256386   3.447   4.819  15.781 -0.8775  0.0200  0.0941
11632TIP3    H156387   3.415   4.801  15.869 -0.0621  0.4646  0.4879
11632TIP3    H256388   3.421   4.909  15.764 -1.1857 -0.1208 -0.1933
11633TIP3   OH256389   1.790   1.963   2.420  0.4099  0.0900  0.4929
11633TIP3    H156390   1.756   1.941   2.333  4.5842  0.0603 -1.3388
11633TIP3    H256391   1.820   2.053   2.413 -1.8317  1.1684  2.9728
11634TIP3   OH256392   5.402   5.160  13.948 -0.0417  0.0116 -0.2401
11634TIP3    H156393   5.495   5.146  13.934  0.6129  0.2798  3.0803
11634TIP3    H256394   5.386   5.250  13.921  0.2353 -0.5129 -2.3269
11635TIP3   OH256395   3.970   0.248  13.996  0.2068  0.1845 -0.4028
11635TIP3    H156396   4.054   0.265  13.954  0.5593 -0.3629  0.0552
11635TIP3    H256397   3.964   0.153  14.001  0.6475  0.2047  1.6514
11636TIP3   OH256398   3.630   1.571  16.469  0.3235  0.1585 -0.9692
11636TIP3    H156399   3.699   1.568  16.536 -0.1740 -0.6028 -0.4751
11636TIP3    H256400   3.636   1.659  16.432  1.8436 -0.0327 -1.2354
11637TIP3   OH256401   4.529   3.660  12.659 -0.5779  0.2253 -0.0213
11637TIP3    H156402   4.610   3.699  12.626  0.0635 -1.3831 -0.4409
11637TIP3    H256403   4.519   3.696  12.747  1.3711 -0.6392  0.5897
11638TIP3   OH256404   0.561   6.693  11.084  0.1010 -0.1037 -0.3777
11638TIP3    H156405   0.567   6.787  11.097 -0.9306  0.1022 -1.2701
11638TIP3    H256406   0.633   6.672  11.025  0.5014  0.0654  0.0393
11639TIP3   OH256407   3.595   5.389  14.000  0.3987 -0.6556  0.5132
11639TIP3    H156408   3.661   5.340  13.951  0.9264  1.4428 -0.9870
11639TIP3    H256409   3.644   5.439  14.065  0.1143 -0.3527  0.4990
11640TIP3   OH256410   2.703   5.048  15.223 -0.0322  0.4251 -0.7795
11640TIP3    H156411   2.627   5.103  15.239  1.2317  1.6791  1.6379
11640TIP3    H256412   2.679   4.962  15.257  0.5719  1.6163  3.1427
11641TIP3   OH256413   0.208   3.330  15.022 -0.0563  0.2372  0.0168
11641TIP3    H156414   0.117   3.356  15.026 -1.4239 -3.7499 -0.1169
11641TIP3    H256415   0.220   3.272  15.098  1.5908 -1.1657 -1.2176
11642TIP3   OH256416   5.083   5.761  15.346  0.1933  0.2514 -0.8639
11642TIP3    H156417   5.062   5.694  15.281  1.7984 -1.2479  0.0503
11642TIP3    H256418   5.060   5.721  15.430 -1.8229  2.1352 -0.4432
11643TIP3   OH256419   2.024   4.678   2.642  0.4324  0.4098  0.0038
11643TIP3    H156420   2.094   4.743   2.657  0.3332  1.0265 -1.8754
11643TIP3    H256421   2.030   4.658   2.549 -1.7248  0.2710 -0.1592
11644TIP3   OH256422   1.802   6.763   5.691  0.3895 -0.5337 -0.2206
11644TIP3    H156423   1.834   6.683   5.649  0.0164 -0.7208 -0.1465
11644TIP3    H256424   1.727   6.736   5.742 -0.6476  0.1041 -1.3395
11645TIP3   OH256425   0.795   2.618   5.162  0.3699  0.4358  0.2443
11645TIP3    H156426   0.726   2.666   5.116 -0.1949  0.7677  1.4000
11645TIP3    H256427   0.821   2.549   5.101 -1.3777 -0.0514 -0.0153
11646TIP3   OH256428   2.724   6.201  15.727  0.4698 -0.5513  0.6930
11646TIP3    H156429   2.643   6.154  15.711  0.6481 -0.4314 -0.7381
11646TIP3    H256430   2.756   6.224  15.639  1.2630  0.7286  1.2871
11647TIP3   OH256431   2.490   1.571   0.004 -0.2471 -0.2378  0.2359
11647TIP3    H156432   2.543   1.494   0.028 -0.7822 -0.9711 -0.8449
11647TIP3    H256433   2.548   1.624  -0.050 -0.7312 -1.3315 -1.4511
11648TIP3   OH256434   3.248   0.468  13.760  0.4353 -0.4833  0.5511
11648TIP3    H156435   3.244   0.379  13.797 -2.0944 -0.1749  1.2282
11648TIP3    H256436   3.193   0.520  13.818  2.9303  1.9141  0.9583
11649TIP3   OH256437   4.699   1.547   3.162  0.9860  0.7664 -0.8467
11649TIP3    H156438   4.624   1.605   3.147 -2.0878 -2.6852 -0.4768
11649TIP3    H256439   4.725   1.519   3.075  0.6477  0.6846 -0.9253
11650TIP3   OH256440   1.391   2.613  12.914 -0.7722 -0.3561  0.0720
11650TIP3    H156441   1.404   2.708  12.916  0.6211 -0.5439  1.0792
11650TIP3    H256442   1.479   2.576  12.915 -1.2879 -1.6835 -0.2647
11651TIP3   OH256443   5.215   1.222  13.591 -0.2966 -0.3024 -0.0586
11651TIP3    H156444   5.198   1.235  13.498 -1.5738 -0.6431  0.1057
11651TIP3    H256445   5.145   1.165  13.621 -0.9099  1.1508  1.4653
11652TIP3   OH256446   1.338   1.525   3.916  0.4230  0.0921  0.6280
11652TIP3    H156447   1.292   1.603   3.948  0.8056 -0.2455  2.0439
11652TIP3    H256448   1.396   1.500   3.987  0.9323 -0.9977 -0.1434
11653TIP3   OH256449   4.365   5.852   2.922 -0.1788  0.0275 -0.3122
11653TIP3    H156450   4.411   5.834   3.004 -0.6270  0.7933  0.1147
11653TIP3    H256451   4.324   5.938   2.935 -0.7074 -0.0861 -1.1342
11654TIP3   OH256452   5.532   0.004  12.565  0.0923 -0.6701  0.1071
11654TIP3    H156453   5.573   0.082  12.603  0.0383 -0.7545  0.3399
11654TIP3    H256454   5.605  -0.051  12.537  0.1297 -0.2081 -0.7358
11655TIP3   OH256455   0.597   1.673   3.019  0.0725  0.0505  0.5917
11655TIP3    H156456   0.664   1.633   2.964  0.1061  0.6199  0.2144
11655TIP3    H256457   0.536   1.713   2.958 -1.7765 -2.1673  0.8158
11656TIP3   OH256458   5.593   3.513  14.928  0.4102 -0.1526 -0.1444
11656TIP3    H156459   5.651   3.437  14.927  1.1350  0.3970 -0.3782
11656TIP3    H256460   5.505   3.475  14.919  0.7693 -0.9496 -0.4446
11657TIP3   OH256461   2.947   0.587  11.860  0.3742  1.0407  1.0519
11657TIP3    H156462   2.874   0.619  11.808  0.3911 -0.2395  0.1941
11657TIP3    H256463   3.025   0.608  11.809  0.5009  1.1455  1.2874
11658TIP3   OH256464   4.953   0.321   0.481  0.4093  0.3248 -0.3049
11658TIP3    H156465   4.952   0.269   0.561 -2.7452 -0.3338 -0.6129
11658TIP3    H256466   4.997   0.266   0.416  1.2113  0.0206  0.4882
11659TIP3   OH256467   6.753   0.006  15.634 -0.4837  0.1188  0.4446
11659TIP3    H156468   6.714   0.070  15.695 -0.8339  2.0736 -1.6829
11659TIP3    H256469   6.717   0.030  15.549  1.4555 -1.2759 -0.8439
11660TIP3   OH256470   5.120   3.691  13.787  0.4705  0.4129  0.0630
11660TIP3    H156471   5.087   3.720  13.702  1.7977 -0.3814 -0.7656
11660TIP3    H256472   5.046   3.701  13.847 -0.6611  0.4535 -1.3030
11661TIP3   OH256473   0.626   5.164   1.570  0.3249 -0.1149 -0.2501
11661TIP3    H156474   0.579   5.153   1.487  2.3018 -0.1153 -1.4277
11661TIP3    H256475   0.690   5.093   1.571  1.7522  1.1230  0.2295
11662TIP3   OH256476   4.856   5.538  12.640  0.0695 -0.5076 -0.2422
11662TIP3    H156477   4.909   5.603  12.593  0.3903  0.8779  1.9249
11662TIP3    H256478   4.903   5.456  12.628  0.9826  0.1056 -0.9964
11663TIP3   OH256479   4.465   5.154   0.538  0.5172 -0.0276  0.0459
11663TIP3    H156480   4.412   5.201   0.602 -0.0101 -1.0708  0.3978
11663TIP3    H256481   4.518   5.222   0.495 -0.0042  0.8290  0.7419
11664TIP3   OH256482   0.291   3.223   0.268  0.1852  0.1138  0.6798
11664TIP3    H156483   0.271   3.223   0.361  0.4655  0.8517  0.7481
11664TIP3    H256484   0.276   3.314   0.241  0.2938 -0.0536  0.0494
11665TIP3   OH256485   4.410   5.412  12.230  0.0808 -0.1449  0.1568
11665TIP3    H156486   4.390   5.319  12.231  0.8526 -0.3215  1.1041
11665TIP3    H256487   4.334   5.453  12.188 -0.0201 -1.2380 -0.7599
11666TIP3   OH256488   1.158   2.208  12.898  0.0731  0.2491  0.4033
11666TIP3    H156489   1.221   2.139  12.877 -1.3887 -2.0963  3.0842
11666TIP3    H256490   1.211   2.275  12.942  1.5520  1.0794 -2.4127
11667TIP3   OH256491   3.148   1.942   4.341  0.2450 -0.2306  0.1480
11667TIP3    H156492   3.093   1.914   4.414  1.0166  0.3382  0.9612
11667TIP3    H256493   3.214   1.998   4.381 -0.8803  2.3192 -1.3068
11668TIP3   OH256494   2.715   2.694  16.115 -0.0356 -0.1307 -0.1860
11668TIP3    H156495   2.740   2.781  16.146  1.1138 -0.9123  1.2338
11668TIP3    H256496   2.778   2.674  16.046 -0.7764  0.4427 -1.0508
11669TIP3   OH256497   2.342   3.484   0.579  0.2463  0.4591 -0.2920
11669TIP3    H156498   2.406   3.535   0.628  2.4542 -1.6870 -0.8009
11669TIP3    H256499   2.257   3.520   0.607  1.5577  2.2887  1.6521
11670TIP3   OH256500   2.836   4.173  12.123 -0.4503 -0.0932 -0.1987
11670TIP3    H156501   2.878   4.155  12.039  0.7475 -1.7877  0.7179
11670TIP3    H256502   2.898   4.231  12.168 -0.3366 -0.4686  0.1285
11671TIP3   OH256503   1.178   1.376   3.748  0.5605 -0.0519 -0.5169
11671TIP3    H156504   1.085   1.401   3.750  0.5521 -0.0883 -0.4526
11671TIP3    H256505   1.224   1.449   3.789  0.2062 -1.6361  3.0696
11672TIP3   OH256506   3.565   6.516  12.722 -0.0352  0.1033  0.2464
11672TIP3    H156507   3.633   6.449  12.728 -0.8006 -0.7179 -0.1413
11672TIP3    H256508   3.576   6.568  12.802  0.6233 -0.4208  0.5062
11673TIP3   OH256509   5.513   2.240  12.937  0.1434  0.0571 -0.0400
11673TIP3    H156510   5.514   2.146  12.951 -0.8757 -0.0033 -0.3619
11673TIP3    H256511   5.604   2.262  12.916  1.0201 -0.4153  2.8444
11674TIP3   OH256512   4.334   6.171   4.705  0.2197  0.0886  0.0840
11674TIP3    H156513   4.285   6.163   4.623 -2.7444  0.5997  1.6786
11674TIP3    H256514   4.370   6.083   4.720 -0.0619 -0.2758 -1.2526
11675TIP3   OH256515   3.896   1.961  13.345  0.4299 -0.4468  0.5484
11675TIP3    H156516   3.889   1.866  13.334  0.8129 -0.3141 -1.1559
11675TIP3    H256517   3.983   1.983  13.310 -0.1321  0.6624 -0.2118
11676TIP3   OH256518   2.958   1.135   5.237 -0.3708 -0.1356 -0.0554
11676TIP3    H156519   2.914   1.114   5.155 -1.2528 -0.2902  0.4418
11676TIP3    H256520   2.924   1.221   5.262 -1.7700 -1.0064  1.2159
11677TIP3   OH256521   1.930   4.324  13.787  0.0155  0.1454  0.0203
11677TIP3    H156522   1.938   4.261  13.715  1.4207 -1.3109  1.3877
11677TIP3    H256523   2.019   4.357  13.799 -0.4757  1.4423  0.1842
11678TIP3   OH256524   1.888   6.536  13.771 -0.2487 -0.5022  0.7329
11678TIP3    H156525   1.837   6.530  13.851 -1.5842  0.0853 -0.0412
11678TIP3    H256526   1.866   6.622  13.735 -0.4383 -1.1369 -0.7504
11679TIP3   OH256527   4.734   3.110   1.895  0.4703 -0.0950 -0.1249
11679TIP3    H156528   4.771   3.037   1.944 -1.1873 -0.0019  1.3522
11679TIP3    H256529   4.651   3.129   1.939  0.4366  2.0969 -1.0312
11680TIP3   OH256530   0.470   2.325  14.583 -0.1396 -0.0256  0.2290
11680TIP3    H156531   0.424   2.409  14.581 -1.1326 -0.5725 -1.1898
11680TIP3    H256532   0.456   2.293  14.672 -0.6150  0.8557  0.4840
11681TIP3   OH256533   0.639   0.589  11.015  0.1680  0.0418 -0.2457
11681TIP3    H156534   0.599   0.505  11.036  0.5026  0.1693  0.9409
11681TIP3    H256535   0.699   0.569  10.943  1.1027 -0.9733  0.7855
11682TIP3   OH256536   4.256   0.960  15.524 -0.0113  0.1427 -0.4210
11682TIP3    H156537   4.333   0.903  15.533 -0.3235 -0.2270 -0.0553
11682TIP3    H256538   4.199   0.935  15.597 -0.2816  0.7248 -0.4290
11683TIP3   OH256539   0.067   4.659  11.316  0.4781 -0.6998  0.3982
11683TIP3    H156540   0.098   4.639  11.228 -0.4967 -0.4759 -0.0122
11683TIP3    H256541  -0.022   4.624  11.318 -0.0870  0.7103  0.7473
11684TIP3   OH256542   5.781   6.682  10.382 -0.2531  0.1736 -0.5257
11684TIP3    H156543   5.839   6.690  10.458 -0.8495  0.2586 -0.0654
11684TIP3    H256544   5.712   6.622  10.412 -1.2454  1.2811 -0.5191
11685TIP3   OH256545   1.043   1.454   1.060 -0.2752 -0.5346  0.0414
11685TIP3    H156546   1.101   1.520   1.022 -0.4704  0.3416  1.2072
11685TIP3    H256547   1.093   1.372   1.053  1.6427  0.3491  1.9550
11686TIP3   OH256548   4.869   1.492  16.823  0.2239 -0.5011  0.4510
11686TIP3    H156549   4.893   1.407  16.787  0.6652 -0.6422  1.0796
11686TIP3    H256550   4.868   1.479  16.918  1.6870  0.5542  0.6293
11687TIP3   OH256551   4.849   4.928   6.075 -0.1448  0.2260  0.1839
11687TIP3    H156552   4.920   4.899   6.018  1.0714  0.0623  1.7132
11687TIP3    H256553   4.859   4.875   6.155 -1.0850  1.2272  1.0000
11688TIP3   OH256554   5.371   0.205   2.362 -0.0624 -0.1561  0.4352
11688TIP3    H156555   5.345   0.117   2.389  1.7978 -0.6082  0.8876
11688TIP3    H256556   5.314   0.263   2.412 -0.9326 -1.0697  0.5517
11689TIP3   OH256557   6.150   5.528   5.911  0.5833 -0.1767  0.5323
11689TIP3    H156558   6.148   5.507   6.004  1.0017  0.8586  0.7904
11689TIP3    H256559   6.096   5.461   5.870 -0.4407 -0.0644  1.6437
11690TIP3   OH256560   1.362   3.990   2.975 -0.3995 -0.2084  0.2485
11690TIP3    H156561   1.338   3.973   2.884  0.7573 -0.4474 -0.0290
11690TIP3    H256562   1.337   3.911   3.022  2.0048 -1.4924 -0.4701
11691TIP3   OH256563   4.951   1.104   2.677  0.2848  0.6970  0.2167
11691TIP3    H156564   4.868   1.073   2.713  0.1957 -0.8556 -1.1998
11691TIP3    H256565   4.970   1.185   2.725 -0.0932 -0.8962  3.2736
11692TIP3   OH256566   4.363   4.982   5.838  0.2498 -0.2072  0.5200
11692TIP3    H156567   4.396   4.920   5.902  2.3443 -0.4050 -0.6757
11692TIP3    H256568   4.440   5.012   5.790 -0.9663  1.6126 -0.4564
11693TIP3   OH256569   6.381   1.258   3.212  0.2978  0.1796  0.1862
11693TIP3    H156570   6.363   1.263   3.119 -0.8411  0.4640  0.4135
11693TIP3    H256571   6.306   1.213   3.249  0.3825  0.7265  1.0613
11694TIP3   OH256572   4.529   1.524  13.478  0.2629  0.2354  0.1739
11694TIP3    H156573   4.487   1.441  13.501 -1.5509  1.1630  0.3508
11694TIP3    H256574   4.622   1.502  13.469 -0.4196 -2.2567 -1.9058
11695TIP3   OH256575   1.935   5.290   3.853  0.2012 -0.4160 -0.3966
11695TIP3    H156576   1.911   5.382   3.837  0.1500 -0.6576 -1.8188
11695TIP3    H256577   2.029   5.293   3.872  0.3052 -0.1182 -0.9416
11696TIP3   OH256578   6.723   0.808  11.213  0.0062 -0.0406 -0.3238
11696TIP3    H156579   6.734   0.868  11.139 -2.0210  0.1279 -0.5629
11696TIP3    H256580   6.703   0.866  11.287 -2.2435 -0.3443 -0.6138
11697TIP3   OH256581   6.170   6.251  15.180  0.3720  0.3534 -1.0158
11697TIP3    H156582   6.106   6.318  15.153  1.3184  0.8572 -2.0665
11697TIP3    H256583   6.183   6.198  15.102 -0.0656 -0.8479 -0.2998
11698TIP3   OH256584   4.653   0.253   0.241 -0.4728 -0.3230 -0.2642
11698TIP3    H156585   4.719   0.296   0.187  0.3776 -2.6461 -1.2140
11698TIP3    H256586   4.700   0.227   0.320 -1.1424  1.0138  0.6018
11699TIP3   OH256587   1.554   2.298  11.382  0.1107 -0.0617 -0.3437
11699TIP3    H156588   1.646   2.319  11.396  0.2956 -0.8462 -0.3069
11699TIP3    H256589   1.554   2.242  11.304 -0.0913 -1.6986  0.7707
11700TIP3   OH256590   5.883   4.281   3.080 -0.7192 -0.4206 -0.1285
11700TIP3    H156591   5.879   4.251   3.171  0.3374  0.6673  0.3002
11700TIP3    H256592   5.943   4.355   3.082 -1.1424 -0.0060 -1.6219
11701TIP3   OH256593   2.059   0.616  15.651 -0.3727  0.1084 -0.4968
11701TIP3    H156594   2.009   0.583  15.577 -0.1959 -0.6652 -0.2750
11701TIP3    H256595   2.149   0.590  15.634 -0.1284  0.9801 -0.5996
11702TIP3   OH256596   6.006   4.625   4.146 -0.3592 -0.1851 -0.5514
11702TIP3    H156597   5.952   4.703   4.133 -1.3065 -0.5556  0.9398
11702TIP3    H256598   6.090   4.659   4.175 -0.6620  0.3015 -0.2231
11703TIP3   OH256599   1.868   2.677  12.830  1.0868 -0.3941 -0.2458
11703TIP3    H156600   1.956   2.672  12.867  1.3123  0.1719 -0.6934
11703TIP3    H256601   1.873   2.631  12.747  0.9980 -0.2362 -0.3400
11704TIP3   OH256602   2.384   5.178  12.575  0.0813  0.5004 -0.2292
11704TIP3    H156603   2.361   5.092  12.538 -0.4884  0.2995  0.5704
11704TIP3    H256604   2.417   5.228  12.500 -2.2154  0.5446 -1.2994
11705TIP3   OH256605   4.767   1.098  12.449 -0.2486 -0.1284  0.2600
11705TIP3    H156606   4.843   1.049  12.480 -0.7978  0.2700  2.4454
11705TIP3    H256607   4.799   1.187  12.435  0.0080 -0.3139 -0.3607
11706TIP3   OH256608   5.773   4.591  12.683 -0.6353  0.1190  0.3773
11706TIP3    H156609   5.824   4.647  12.624 -0.0136  0.5639  1.3161
11706TIP3    H256610   5.784   4.503  12.647  0.1712  0.3127  0.1225
11707TIP3   OH256611   2.287   2.318  13.957  0.2886  0.4292 -0.1749
11707TIP3    H156612   2.333   2.262  14.019 -0.7029 -0.2547 -0.0301
11707TIP3    H256613   2.222   2.260  13.917 -0.6194  1.4233 -0.1773
11708TIP3   OH256614   3.146   2.157   2.159 -0.0869 -0.0153  0.1143
11708TIP3    H156615   3.232   2.124   2.182  0.6480  0.8831 -1.2067
11708TIP3    H256616   3.128   2.226   2.223  0.8765  0.8365 -0.5023
11709TIP3   OH256617   2.481   5.512   2.084  0.0946 -0.1399 -0.0114
11709TIP3    H156618   2.547   5.488   2.018  0.3977  0.7198 -0.0386
11709TIP3    H256619   2.452   5.429   2.120 -0.1326 -0.6440 -1.2864
11710TIP3   OH256620   1.201   0.151  15.109 -0.2771 -0.8757 -0.1540
11710TIP3    H156621   1.142   0.145  15.184 -0.1488 -0.3487 -0.0078
11710TIP3    H256622   1.159   0.214  15.051  1.0824  1.0380  0.8424
11711TIP3   OH256623   0.431   3.719  16.160 -0.2874  0.1143  0.1174
11711TIP3    H156624   0.517   3.719  16.118 -0.8451 -2.1002 -1.1801
11711TIP3    H256625   0.445   3.671  16.242  0.2211  2.0817  1.2448
11712TIP3   OH256626   1.784   6.012  13.564  0.0505 -0.0092 -0.1805
11712TIP3    H156627   1.845   6.082  13.586  0.0523 -0.1541  0.2958
11712TIP3    H256628   1.829   5.961  13.497  0.2172  0.2055 -0.2340
11713TIP3   OH256629   0.917   2.963  15.612 -0.2857 -0.2775 -0.3527
11713TIP3    H156630   0.883   2.880  15.578 -1.0334 -0.3726  0.5867
11713TIP3    H256631   0.842   3.005  15.653  0.3753  0.2820  0.3139
11714TIP3   OH256632   1.900   3.995  16.127  0.0112  0.4020  0.6633
11714TIP3    H156633   1.934   4.083  16.114 -2.5612  1.1772 -1.6783
11714TIP3    H256634   1.978   3.942  16.146  2.4492  2.2525 -3.0083
11715TIP3   OH256635   2.837   3.226   3.330 -0.1597 -0.5953 -0.3617
11715TIP3    H156636   2.778   3.301   3.321  1.7417  1.0968  0.4847
11715TIP3    H256637   2.821   3.173   3.251 -1.6493  0.6143 -0.9220
11716TIP3   OH256638   0.340   1.644  15.137 -0.6457 -0.2408  0.2222
11716TIP3    H156639   0.280   1.698  15.086 -1.0370 -0.4267  0.4758
11716TIP3    H256640   0.284   1.598  15.200 -0.3597 -1.1518 -0.1627
11717TIP3   OH256641   6.268   4.331   1.677  0.0598 -0.1977  0.0318
11717TIP3    H156642   6.214   4.276   1.733  0.9415 -0.5248  0.5774
11717TIP3    H256643   6.261   4.291   1.590 -0.8983  0.0080  0.0087
11718TIP3   OH256644   1.005   6.321   3.884  0.2902 -0.2003 -0.2542
11718TIP3    H156645   0.959   6.359   3.959 -0.6299 -0.1445 -0.8433
11718TIP3    H256646   1.033   6.396   3.833  1.0608 -0.2331  0.1013
11719TIP3   OH256647   2.000   0.587   4.838 -0.0571 -0.2604  1.0505
11719TIP3    H156648   2.017   0.575   4.932  0.7187  1.9028  1.2417
11719TIP3    H256649   2.081   0.624   4.804  0.1879 -2.3206 -0.8339
11720TIP3   OH256650   1.641   3.529  12.941  0.3120 -0.3880 -0.9315
11720TIP3    H156651   1.587   3.603  12.912  0.8224  0.1324 -0.5646
11720TIP3    H256652   1.665   3.484  12.860  0.5777  0.2532 -1.2156
11721TIP3   OH256653   5.966   4.784   4.787 -0.4011 -0.7621  0.1493
11721TIP3    H156654   5.871   4.774   4.792 -0.7343  1.4631 -0.7946
11721TIP3    H256655   5.980   4.863   4.735  1.9909 -1.1617  0.0468
11722TIP3   OH256656   4.169   5.338   1.478  0.0388 -0.1266 -0.0389
11722TIP3    H156657   4.077   5.320   1.458 -0.1975  0.7956  0.1927
11722TIP3    H256658   4.167   5.417   1.532  0.9498 -0.2648  0.2094
11723TIP3   OH256659   4.185   0.083   4.888  0.1217  0.4815 -0.0660
11723TIP3    H156660   4.120   0.089   4.958  1.1221  0.3740  0.9012
11723TIP3    H256661   4.264   0.121   4.925  1.1141 -0.9691 -0.5860
11724TIP3   OH256662   2.686   0.298  16.417 -0.1870  0.8568  0.3644
11724TIP3    H156663   2.728   0.307  16.331 -1.2275 -1.9018 -0.5451
11724TIP3    H256664   2.756   0.264  16.473 -0.2815 -0.4076 -0.2499
11725TIP3   OH256665   0.417   6.447  13.097 -0.0543 -0.1816  0.2198
11725TIP3    H156666   0.410   6.541  13.078 -1.8154 -0.6831 -2.0264
11725TIP3    H256667   0.425   6.443  13.192  2.8758  2.3251  0.2414
11726TIP3   OH256668   5.528   1.327  16.124  0.0471 -0.1610  0.0374
11726TIP3    H156669   5.569   1.411  16.147  0.9885 -0.5073 -0.3361
11726TIP3    H256670   5.445   1.351  16.085 -0.6311  0.5276  1.7978
11727TIP3   OH256671   4.728   0.625   1.606 -0.5135  0.0676 -0.3025
11727TIP3    H156672   4.781   0.613   1.528  0.7912 -0.9433  0.6856
11727TIP3    H256673   4.658   0.684   1.579  1.3667  1.8438 -1.5565
11728TIP3   OH256674   0.494   1.059   4.830  0.2413  0.2016  0.1473
11728TIP3    H156675   0.482   0.965   4.817  1.6859  0.0798 -0.6091
11728TIP3    H256676   0.451   1.100   4.755  0.8475  0.0355 -0.3026
11729TIP3   OH256677   5.458   0.755  13.121 -0.5040  0.4210 -0.0983
11729TIP3    H156678   5.372   0.765  13.163 -0.2623  0.4015  0.4113
11729TIP3    H256679   5.439   0.717  13.035 -0.7663 -2.9162  1.3016
11730TIP3   OH256680   3.722   4.055  17.019  0.6880 -0.2379 -0.0631
11730TIP3    H156681   3.670   3.978  16.996  1.4773 -0.8889  0.2439
11730TIP3    H256682   3.716   4.060  17.115  2.6506 -1.4567  0.1894
11731TIP3   OH256683   2.329   0.170  16.766  0.5551 -0.0080  0.0357
11731TIP3    H156684   2.382   0.190  16.689  0.9165 -0.1859  0.2351
11731TIP3    H256685   2.312   0.076  16.760  1.7313 -0.3062  0.8704
11732TIP3   OH256686   1.214   4.029   4.952 -0.0760 -0.4647 -0.3802
11732TIP3    H156687   1.209   3.934   4.946  0.8169 -0.4829 -0.8790
11732TIP3    H256688   1.189   4.049   5.043 -0.7734 -1.1225 -0.4167
11733TIP3   OH256689   4.792   5.622  10.898  0.7666  0.1059 -0.1318
11733TIP3    H156690   4.814   5.706  10.939 -1.2920  0.2702  0.7599
11733TIP3    H256691   4.697   5.615  10.906  0.5143 -0.9398 -2.9056
11734TIP3   OH256692   2.984   1.064   4.819 -0.4411  0.1213  0.0074
11734TIP3    H156693   3.023   1.037   4.902  0.0067  0.7798  0.0198
11734TIP3    H256694   2.894   1.090   4.841 -0.4798 -0.1734  0.1980
11735TIP3   OH256695   5.342   4.033   4.351 -0.6852  0.4640  0.2745
11735TIP3    H156696   5.368   4.111   4.301 -1.0229  0.9193  0.7913
11735TIP3    H256697   5.307   4.068   4.433  0.9405 -0.3042  1.3415
11736TIP3   OH256698   4.818   6.140   2.706 -0.2645  0.4069  0.0036
11736TIP3    H156699   4.820   6.100   2.792  0.0114 -0.2273 -0.2912
11736TIP3    H256700   4.837   6.233   2.722  0.3292  0.1970  0.5730
11737TIP3   OH256701   5.843   1.721   5.075 -0.2494 -0.7975 -0.2272
11737TIP3    H156702   5.907   1.750   5.140 -0.0982  0.0850 -0.7601
11737TIP3    H256703   5.892   1.661   5.018 -0.6266 -2.3749  1.0270
11738TIP3   OH256704   0.127   2.528   1.100  0.2927 -0.5249 -0.4608
11738TIP3    H156705   0.186   2.512   1.174 -0.1801  0.3750  0.1209
11738TIP3    H256706   0.048   2.478   1.122 -0.6033  1.2730  0.6254
11739TIP3   OH256707   4.011   6.047  15.580  0.7555  0.6235  0.9763
11739TIP3    H156708   4.090   6.001  15.553  0.6420  0.0451  1.5913
11739TIP3    H256709   4.036   6.140  15.581  1.5826  0.4098  1.6429
11740TIP3   OH256710   4.902   2.585   2.043  0.1491  0.4227 -0.3969
11740TIP3    H156711   4.834   2.521   2.023  0.3668  0.7713 -2.3720
11740TIP3    H256712   4.928   2.565   2.133 -0.7472 -1.3741 -0.5085
11741TIP3   OH256713   1.547   0.785  12.791 -0.1691  0.0932  0.0672
11741TIP3    H156714   1.596   0.824  12.718 -0.3172 -1.1485 -0.7357
11741TIP3    H256715   1.551   0.691  12.774  0.1614 -0.2653  1.9221
11742TIP3   OH256716   6.683   6.602  16.272 -0.1947 -0.0462  0.1238
11742TIP3    H156717   6.718   6.637  16.190 -0.3462 -0.8070 -0.2758
11742TIP3    H256718   6.692   6.674  16.334 -0.4246  0.6776 -0.6504
11743TIP3   OH256719   1.387   1.369  16.666 -0.3375  0.2806  0.1772
11743TIP3    H156720   1.368   1.277  16.648  1.3499  0.1356 -1.0832
11743TIP3    H256721   1.448   1.395  16.597 -0.4416  2.2384  0.7635
11744TIP3   OH256722   6.501   4.979  10.989 -0.2119  0.4348 -0.0207
11744TIP3    H156723   6.405   4.969  10.988 -0.1693 -1.2601  2.3806
11744TIP3    H256724   6.516   5.068  11.020 -1.0890  0.1326  1.3730
11745TIP3   OH256725   1.993   6.315   4.070 -0.0044 -0.4976 -0.4881
11745TIP3    H156726   1.962   6.402   4.093  0.4259 -0.7846  1.3662
11745TIP3    H256727   2.075   6.306   4.117  0.1535 -1.7715 -0.9669
11746TIP3   OH256728   1.676   1.678   5.081 -0.0173  0.2946  0.6255
11746TIP3    H156729   1.622   1.676   5.160 -0.3652  0.8482  0.4097
11746TIP3    H256730   1.718   1.764   5.083 -0.2478  0.4253  0.0646
11747TIP3   OH256731   0.827   2.035  13.335  0.3860  0.1513 -0.2319
11747TIP3    H156732   0.879   1.966  13.378 -1.1470  0.3624  2.1525
11747TIP3    H256733   0.750   1.990  13.302 -0.4270  0.6097  0.9774
11748TIP3   OH256734   3.660   0.934  11.333  0.3096 -0.2107 -0.7309
11748TIP3    H156735   3.624   0.847  11.319  1.1169 -0.6607 -0.1215
11748TIP3    H256736   3.605   0.992  11.280 -1.4798 -0.8045  0.3892
11749TIP3   OH256737   5.068   4.737  15.216 -0.0040  0.5611 -0.1583
11749TIP3    H156738   4.999   4.671  15.220  0.5229  0.0230  0.4590
11749TIP3    H256739   5.050   4.795  15.291  0.7024 -0.1036  0.5510
11750TIP3   OH256740   5.965   0.106   4.504 -0.5981 -0.4896  0.1897
11750TIP3    H156741   5.869   0.098   4.505 -0.5861 -0.6376  0.1808
11750TIP3    H256742   5.982   0.194   4.537 -0.6870 -0.8940  1.3506
11751TIP3   OH256743   1.911   5.307   4.938 -0.2787 -0.0616 -0.2335
11751TIP3    H156744   1.878   5.265   4.858 -0.0183 -1.5036  0.3816
11751TIP3    H256745   1.833   5.327   4.988 -0.3666 -1.8086  0.4070
11752TIP3   OH256746   1.665   0.774   5.681  0.2976  0.5416  0.3732
11752TIP3    H156747   1.708   0.745   5.761 -0.7230  0.6662  0.9731
11752TIP3    H256748   1.734   0.818   5.631  0.7691  1.1423  1.5215
11753TIP3   OH256749   3.066   4.912  13.725 -1.0858  0.1499 -0.5385
11753TIP3    H156750   2.993   4.889  13.667 -1.2890  0.0142 -0.2383
11753TIP3    H256751   3.028   4.906  13.813 -0.6774 -0.0418 -0.3747
11754TIP3   OH256752   0.805   2.900  16.874 -0.1333 -0.5184 -0.1726
11754TIP3    H156753   0.720   2.878  16.912 -0.5657 -0.1715 -0.9242
11754TIP3    H256754   0.816   2.993  16.891 -1.1290  0.0567 -2.3603
11755TIP3   OH256755   4.740   3.372  15.568  0.0906 -0.4083  0.1056
11755TIP3    H156756   4.706   3.404  15.484 -1.0276 -2.1707 -0.1739
11755TIP3    H256757   4.787   3.292  15.545 -1.3887 -1.6628  1.2769
11756TIP3   OH256758   6.338   3.265  10.986 -0.4841  0.2292  0.5046
11756TIP3    H156759   6.388   3.256  10.905 -0.4627 -0.4570  0.5835
11756TIP3    H256760   6.265   3.203  10.976 -0.6634  0.3776  0.8743
11757TIP3   OH256761   1.573   2.377  14.990  0.2008 -0.0219  0.4333
11757TIP3    H156762   1.487   2.412  15.010  0.2104  0.6305 -0.6037
11757TIP3    H256763   1.567   2.348  14.899  1.1615  0.3348  0.2401
11758TIP3   OH256764   5.462   4.953  13.131 -0.1157 -0.4135  0.1118
11758TIP3    H156765   5.416   4.974  13.049 -1.1208 -0.0844  0.7529
11758TIP3    H256766   5.435   4.864  13.152 -1.7697  0.3225  1.3218
11759TIP3   OH256767   5.678   1.229   5.202 -0.2772  0.0728  0.0248
11759TIP3    H156768   5.637   1.270   5.125  0.4857  0.5315 -0.1539
11759TIP3    H256769   5.648   1.138   5.199 -0.6693  0.2097 -0.5264
11760TIP3   OH256770   1.856   0.804   4.575  0.1343 -0.6232 -0.0722
11760TIP3    H156771   1.935   0.803   4.630  1.6035  0.9322 -2.0150
11760TIP3    H256772   1.785   0.822   4.637  1.3352 -1.4631  1.6625
11761TIP3   OH256773   1.369   4.216   0.010 -0.5087 -0.0680  0.8347
11761TIP3    H156774   1.432   4.185   0.075 -0.5538 -2.7565 -0.2923
11761TIP3    H256775   1.420   4.273  -0.048  0.0070  0.6708  1.9740
11762TIP3   OH256776   1.311   5.897  14.174  0.2080  0.4649 -0.0021
11762TIP3    H156777   1.405   5.886  14.163  0.2064 -0.8050  0.9936
11762TIP3    H256778   1.273   5.861  14.093  0.4994 -1.3336  0.6184
11763TIP3   OH256779   6.614   0.664  13.354 -0.2617  0.4144 -0.6563
11763TIP3    H156780   6.660   0.741  13.387 -0.8234  1.4349 -2.1776
11763TIP3    H256781   6.613   0.674  13.259 -2.1184 -0.4233 -0.7717
11764TIP3   OH256782   2.451   5.749   4.530  0.3915 -0.1276  0.3378
11764TIP3    H156783   2.526   5.752   4.470 -0.0031 -1.4612 -0.2712
11764TIP3    H256784   2.407   5.833   4.518  0.2421 -0.4094 -1.3870
11765TIP3   OH256785   2.997   6.608   0.642 -0.1243 -0.0011 -0.2064
11765TIP3    H156786   3.066   6.567   0.591  0.5887 -0.3343  0.9873
11765TIP3    H256787   2.916   6.586   0.596  0.5813  0.8605 -1.9438
11766TIP3   OH256788   1.504   4.357   5.618  0.2172  0.6816  0.2811
11766TIP3    H156789   1.432   4.414   5.644  0.2648  0.9416 -0.1376
11766TIP3    H256790   1.487   4.338   5.526 -0.7570 -1.4288  0.8357
11767TIP3   OH256791   6.298   0.915   2.011 -0.1117 -0.1528  0.6373
11767TIP3    H156792   6.283   0.909   1.916  0.9489  0.1460  0.4300
11767TIP3    H256793   6.285   0.826   2.043  0.3619 -0.4339  0.0659
11768TIP3   OH256794   1.068   5.377   3.962 -0.1964 -0.2601  0.3208
11768TIP3    H156795   0.989   5.339   4.002  0.0987 -0.5298  0.6455
11768TIP3    H256796   1.107   5.430   4.031 -0.8889  1.0819 -0.2808
11769TIP3   OH256797   6.558   4.724   2.257  0.6716  0.4230 -0.5795
11769TIP3    H156798   6.646   4.757   2.277  0.3797  1.8964 -1.5870
11769TIP3    H256799   6.542   4.752   2.167  0.0450 -1.8066 -1.2285
11770TIP3   OH256800   4.816   0.288  14.266  0.3607  0.1956  0.0208
11770TIP3    H156801   4.797   0.377  14.297 -1.6967 -0.2445  0.1277
11770TIP3    H256802   4.836   0.240  14.346  3.5712  0.9482 -0.1927
11771TIP3   OH256803   1.703   5.191   3.942 -0.1688  0.6311  0.3128
11771TIP3    H156804   1.792   5.214   3.914 -0.6073  1.0266 -0.8028
11771TIP3    H256805   1.648   5.258   3.903 -1.2933 -1.2254 -1.4762
11772TIP3   OH256806   3.600   1.078  16.711 -0.4734 -0.1962  0.0860
11772TIP3    H156807   3.646   1.056  16.630 -2.7972  0.5928 -1.5094
11772TIP3    H256808   3.550   0.999  16.732 -1.0510  0.1154 -0.1030
11773TIP3   OH256809   2.107   3.413   3.332  0.2221 -0.5556 -0.1575
11773TIP3    H156810   2.064   3.411   3.247 -0.8369  0.6847  0.3113
11773TIP3    H256811   2.154   3.330   3.337 -0.9800 -1.3482 -1.2946
11774TIP3   OH256812   3.839   5.215  12.687 -0.1727 -0.6743  0.3352
11774TIP3    H156813   3.762   5.226  12.632 -0.5078 -1.5873  0.5920
11774TIP3    H256814   3.872   5.127  12.665  0.4497 -0.5291  0.6514
11775TIP3   OH256815   6.335   3.226   0.699 -0.4458 -0.1414 -0.3563
11775TIP3    H156816   6.401   3.283   0.659 -1.4922  1.7682  0.5055
11775TIP3    H256817   6.379   3.142   0.707  1.3251  0.6151 -1.3114
11776TIP3   OH256818   0.137   0.366   2.004  0.2633 -0.3737 -0.6902
11776TIP3    H156819   0.214   0.309   2.009  0.2704 -0.4850 -1.8172
11776TIP3    H256820   0.172   0.452   1.982  0.1141 -0.2861 -0.5863
11777TIP3   OH256821   0.841   2.527   4.903  0.0179 -0.3160  0.5351
11777TIP3    H156822   0.931   2.502   4.921  0.5817  0.4313 -1.0334
11777TIP3    H256823   0.828   2.505   4.811 -0.1197  3.0136 -0.3613
11778TIP3   OH256824   6.699   3.014  11.458 -0.0268 -0.1606  0.1790
11778TIP3    H156825   6.769   2.978  11.403 -0.7302 -1.9741  0.4047
11778TIP3    H256826   6.618   2.989  11.413 -0.5645  0.1473  0.9635
11779TIP3   OH256827   3.496   5.395   5.575  0.0446  0.3855 -0.0581
11779TIP3    H156828   3.561   5.450   5.618  0.4352 -0.4348  0.4308
11779TIP3    H256829   3.423   5.391   5.637  0.5529 -0.6871  0.5051
11780TIP3   OH256830   4.352   3.491   2.311  0.1336 -0.1201  0.2420
11780TIP3    H156831   4.294   3.415   2.303  2.1376 -1.8556  1.0288
11780TIP3    H256832   4.390   3.501   2.224 -1.4148  1.1564 -0.3324
11781TIP3   OH256833   6.653   6.551   4.192 -0.1439 -0.2883  0.3237
11781TIP3    H156834   6.593   6.605   4.142  0.2824 -1.3119 -1.3425
11781TIP3    H256835   6.721   6.612   4.221 -1.4844  0.7136  1.5404
11782TIP3   OH256836   3.181   5.512  13.579 -0.0759 -0.2522 -0.1077
11782TIP3    H156837   3.238   5.473  13.512  1.2007  1.2990  0.0093
11782TIP3    H256838   3.208   5.470  13.661  0.8611  0.4011 -0.0690
11783TIP3   OH256839   3.659   4.798   5.617  0.0215  0.2725 -0.0302
11783TIP3    H156840   3.597   4.808   5.545 -0.4995 -0.3169  0.3295
11783TIP3    H256841   3.612   4.747   5.683  1.3934 -1.5340 -0.3797
11784TIP3   OH256842   1.976   1.631   2.434 -0.6257  0.3047 -0.8180
11784TIP3    H156843   2.063   1.658   2.405 -0.1340 -1.2497 -0.8930
11784TIP3    H256844   1.927   1.616   2.354 -0.1268 -1.3173 -0.8560
11785TIP3   OH256845   5.163   6.267   3.157 -0.1895 -0.5831  0.2921
11785TIP3    H156846   5.087   6.213   3.178 -1.4118 -0.7785 -3.6875
11785TIP3    H256847   5.126   6.351   3.130  1.0853 -0.2804 -0.5945
11786TIP3   OH256848   3.955   5.283   3.385  0.3405 -0.7908 -0.1129
11786TIP3    H156849   3.890   5.352   3.367  1.0776  0.3157  1.2301
11786TIP3    H256850   3.949   5.224   3.310  0.0968  1.0665 -1.6286
11787TIP3   OH256851   1.120   2.747   5.234  0.0838 -0.3013  0.3777
11787TIP3    H156852   1.036   2.751   5.187 -1.3744  0.7567  2.8604
11787TIP3    H256853   1.109   2.808   5.308  3.0156 -0.2424  0.8843
11788TIP3   OH256854   2.744   6.267  17.179  0.1678  0.0268  0.1874
11788TIP3    H156855   2.675   6.302  17.235 -0.3770 -0.8818  0.1048
11788TIP3    H256856   2.758   6.178  17.209  1.8567  0.4133  0.6863
11789TIP3   OH256857   2.309   1.489   3.079 -0.0684  0.0592  0.9325
11789TIP3    H156858   2.322   1.552   3.149  2.0479  1.8355 -0.8740
11789TIP3    H256859   2.221   1.454   3.093 -0.9749  2.7123  2.5817
11790TIP3   OH256860   2.133   2.225  12.333  0.3016 -0.3459 -0.4574
11790TIP3    H156861   2.081   2.298  12.300 -0.6213 -0.5463  0.5149
11790TIP3    H256862   2.206   2.217  12.271  0.7108  1.7152 -0.3038
11791TIP3   OH256863   4.376   1.637   5.596  0.5945  0.4105 -0.2659
11791TIP3    H156864   4.350   1.729   5.585  0.2631  0.2297 -1.0292
11791TIP3    H256865   4.318   1.589   5.538  0.6603 -0.3089  0.2519
11792TIP3   OH256866   0.363   4.715   3.902  0.0857  0.1445  0.6414
11792TIP3    H156867   0.325   4.640   3.857 -0.7228  0.5705  0.5991
11792TIP3    H256868   0.362   4.785   3.837 -0.5541  0.6034  1.1398
11793TIP3   OH256869   3.129   4.660  14.930 -0.3014  0.0732  0.3710
11793TIP3    H156870   3.054   4.646  14.872  0.1689  0.4267 -0.3421
11793TIP3    H256871   3.134   4.580  14.983 -2.2914  0.7948  1.7504
11794TIP3   OH256872   4.679   0.416   2.469  0.0847 -0.2577 -0.5454
11794TIP3    H156873   4.643   0.328   2.459 -1.3666  0.1341  0.9123
11794TIP3    H256874   4.671   0.435   2.562  1.1896  1.0926 -0.6959
11795TIP3   OH256875   0.838   6.332   2.910 -0.1066 -0.1003  0.0047
11795TIP3    H156876   0.791   6.289   2.981  1.3530 -0.2593  0.9025
11795TIP3    H256877   0.836   6.268   2.838 -0.9312 -0.2484  0.1513
11796TIP3   OH256878   3.815   0.394   1.697 -0.3204 -0.2125  0.1891
11796TIP3    H156879   3.790   0.478   1.660  2.2388  0.5493  0.0271
11796TIP3    H256880   3.745   0.374   1.760 -0.9946  1.9941  0.2201
11797TIP3   OH256881   6.567   1.463  12.793 -0.1412 -0.5843  0.3718
11797TIP3    H156882   6.565   1.550  12.754  0.4973 -0.6076  0.2724
11797TIP3    H256883   6.562   1.402  12.719  0.4648 -0.6260  0.3531
11798TIP3   OH256884   0.472   5.999  17.156 -0.4862  0.2541  0.0315
11798TIP3    H156885   0.429   5.971  17.237  0.2116  2.0424  1.0711
11798TIP3    H256886   0.512   6.082  17.178 -0.2155  0.7558 -2.1598
11799TIP3   OH256887   0.411   4.812   2.733  0.1896 -0.2613 -0.4721
11799TIP3    H156888   0.440   4.783   2.647  0.8356 -1.2550  0.0549
11799TIP3    H256889   0.471   4.768   2.794  1.0941  2.0311  0.4057
11800TIP3   OH256890   3.209   3.091   2.130  0.3021  0.0806 -0.5903
11800TIP3    H156891   3.248   3.004   2.136 -0.9688 -0.4730  0.0792
11800TIP3    H256892   3.242   3.128   2.049  3.6082  0.3619  0.7433
11801TIP3   OH256893   5.385   3.655  11.179 -0.2597  0.6837  0.5254
11801TIP3    H156894   5.456   3.606  11.136  1.3083  2.6128  0.7849
11801TIP3    H256895   5.369   3.729  11.121 -0.8184  1.2408  1.3737
11802TIP3   OH256896   0.217   5.263  13.724  0.3153  0.6745 -0.5622
11802TIP3    H156897   0.230   5.323  13.651 -1.0222  0.1813 -1.2313
11802TIP3    H256898   0.224   5.176  13.686  1.1042  0.3830  0.1951
11803TIP3   OH256899   2.367   1.148  12.643 -0.3174 -0.8788  0.2693
11803TIP3    H156900   2.448   1.097  12.638  0.1114 -0.2158  0.3504
11803TIP3    H256901   2.344   1.166  12.551  0.8066  0.7484  0.2663
11804TIP3   OH256902   0.628   2.896   4.206  0.0773 -0.1156 -0.2095
11804TIP3    H156903   0.541   2.923   4.174 -0.4632 -1.3341  0.1707
11804TIP3    H256904   0.642   2.951   4.284  0.0648  0.7276 -0.7827
11805TIP3   OH256905   3.005   1.789   4.542  0.4805 -0.1671 -0.1370
11805TIP3    H156906   2.960   1.812   4.623 -0.1467  0.2064 -0.5887
11805TIP3    H256907   2.957   1.714   4.508  1.4166 -1.0448  0.3898
11806TIP3   OH256908   2.887   1.734   4.794  0.1325  0.3688  0.6490
11806TIP3    H156909   2.795   1.726   4.769  0.7136 -0.5026 -1.4497
11806TIP3    H256910   2.907   1.827   4.783  0.2823  0.0800 -2.1539
11807TIP3   OH256911   3.245   4.572  12.657  0.4369  0.2888  0.2692
11807TIP3    H156912   3.157   4.557  12.691 -0.7705  2.7269 -1.5187
11807TIP3    H256913   3.282   4.639  12.714 -1.3754  3.9526 -2.4710
11808TIP3   OH256914   0.937   6.030   2.974 -0.0761  0.7647 -0.1821
11808TIP3    H156915   0.888   5.976   2.911  0.0115  0.7573 -0.2432
11808TIP3    H256916   1.026   5.997   2.970 -0.4820 -0.7202  1.5460
11809TIP3   OH256917   0.249   1.224  12.694 -0.1301 -0.2437  0.3293
11809TIP3    H156918   0.318   1.191  12.751 -0.9367  1.0504  2.1469
11809TIP3    H256919   0.251   1.319  12.704 -1.1366 -0.0622 -0.8298
11810TIP3   OH256920   6.059   2.390  13.885  0.2780  0.0562 -0.2209
11810TIP3    H156921   6.148   2.426  13.878  0.0598  0.4727 -1.0431
11810TIP3    H256922   6.067   2.319  13.948  1.0768  0.4670  0.1641
11811TIP3   OH256923   0.896   6.823  11.549 -0.0885 -0.1000  0.0447
11811TIP3    H156924   0.872   6.772  11.626 -0.7419  1.4214  0.8749
11811TIP3    H256925   0.925   6.757  11.485  2.0681 -1.2801  2.0974
11812TIP3   OH256926   1.129   0.199   1.898  0.2771  0.0610 -0.1526
11812TIP3    H156927   1.079   0.123   1.926  0.5069  0.0421  0.2250
11812TIP3    H256928   1.069   0.249   1.843 -0.2516  0.1767  0.5172
11813TIP3   OH256929   5.227   5.410   1.938  0.4899  0.2858 -0.3403
11813TIP3    H156930   5.190   5.327   1.907  1.1871 -0.0593 -0.2682
11813TIP3    H256931   5.262   5.452   1.859 -0.7544  0.9892 -0.5381
11814TIP3   OH256932   0.797   2.003   1.744 -0.0053 -0.4124 -0.3115
11814TIP3    H156933   0.779   1.930   1.686 -0.7010  0.6431 -1.4591
11814TIP3    H256934   0.882   2.037   1.714  1.1202 -1.7029  1.2575
11815TIP3   OH256935   0.244   5.110   3.465  0.2463  0.1166 -0.2483
11815TIP3    H156936   0.196   5.028   3.464 -1.3488  1.0135 -1.3017
11815TIP3    H256937   0.241   5.138   3.557  0.7122 -0.9212  0.1011
11816TIP3   OH256938   0.849   0.828   3.563 -0.0260  0.4334  0.2621
11816TIP3    H156939   0.940   0.836   3.536 -0.5366 -0.2476 -1.8953
11816TIP3    H256940   0.851   0.768   3.638  1.0323 -3.7166 -2.6979
11817TIP3   OH256941   1.227   4.659  11.595  0.3045 -0.3266 -0.0778
11817TIP3    H156942   1.187   4.745  11.605  2.1005  0.5518 -0.1979
11817TIP3    H256943   1.286   4.668  11.520 -0.0887 -1.9108 -0.6269
11818TIP3   OH256944   1.112   4.535   3.331 -0.2424 -0.0100 -0.6169
11818TIP3    H156945   1.052   4.549   3.404  2.6046 -0.7872  2.0906
11818TIP3    H256946   1.127   4.441   3.330 -0.1629 -0.0099 -2.2388
11819TIP3   OH256947   6.702   6.457   5.880 -0.0052 -0.5578 -0.2629
11819TIP3    H156948   6.784   6.428   5.921  0.4596 -0.5683 -1.1786
11819TIP3    H256949   6.704   6.417   5.793  0.5572  2.0472 -1.5177
11820TIP3   OH256950   6.695   5.913  16.519 -0.4710 -0.2241 -0.3000
11820TIP3    H156951   6.623   5.879  16.465  0.2624 -2.0259 -0.2265
11820TIP3    H256952   6.686   5.868  16.603 -0.4347  1.0750  0.4339
11821TIP3   OH256953   0.409   4.273   2.056  0.0442 -0.8091 -0.2791
11821TIP3    H156954   0.483   4.278   1.996  0.5240 -0.5210  0.3182
11821TIP3    H256955   0.359   4.196   2.027  0.0877 -0.4917 -1.2257
11822TIP3   OH256956   0.137   0.543  16.087  0.0236  0.2781  0.0765
11822TIP3    H156957   0.226   0.510  16.072  0.2520  0.9342 -0.0427
11822TIP3    H256958   0.091   0.469  16.128  0.9918  0.3481  1.3568
11823TIP3   OH256959   2.878   6.086  14.476 -0.0281  0.6592  0.5467
11823TIP3    H156960   2.954   6.144  14.471  0.1457  0.3410 -1.1400
11823TIP3    H256961   2.853   6.086  14.569  3.1050 -0.6258  1.5408
11824TIP3   OH256962   6.545   2.550  14.934 -0.3790  0.5325 -0.0519
11824TIP3    H156963   6.482   2.482  14.960  0.6641 -0.2484  0.4904
11824TIP3    H256964   6.629   2.505  14.932 -0.1741  0.8485 -3.6736
11825TIP3   OH256965   5.901   1.775  16.097  0.6132  0.2999 -0.1176
11825TIP3    H156966   5.972   1.822  16.140  0.9796 -0.0306 -0.3506
11825TIP3    H256967   5.939   1.743  16.015 -0.1265  1.0751 -0.7808
11826TIP3   OH256968   4.591   5.563  16.919 -0.4529  0.2570 -0.1670
11826TIP3    H156969   4.581   5.479  16.875  0.7937  0.2302 -0.4328
11826TIP3    H256970   4.616   5.541  17.009  0.1791  0.3429 -0.3198
11827TIP3   OH256971   5.251   6.259  14.746 -0.0680  0.3460  0.4322
11827TIP3    H156972   5.303   6.245  14.825 -0.4325 -0.0141  0.6104
11827TIP3    H256973   5.267   6.181  14.693 -0.5435  0.1700  0.5519
11828TIP3   OH256974   6.460   6.152  14.460 -0.0696 -0.1180  0.2595
11828TIP3    H156975   6.501   6.139  14.374  0.0236  1.8089 -0.0350
11828TIP3    H256976   6.382   6.096  14.458  1.8118 -2.9628  0.3860
11829TIP3   OH256977   5.945   0.570  13.858  0.4028 -0.1253  0.1210
11829TIP3    H156978   6.005   0.631  13.816 -0.8976  0.3526 -1.1172
11829TIP3    H256979   5.996   0.531  13.929  1.5279  1.7385  0.3942
11830TIP3   OH256980   4.400   4.910   5.086  0.3700 -0.1789 -0.4231
11830TIP3    H156981   4.400   4.970   5.011  0.3395 -1.6611 -1.6651
11830TIP3    H256982   4.487   4.919   5.124  0.8790 -0.3855 -1.4920
11831TIP3   OH256983   4.221   1.112  16.584  0.1941 -0.2661  0.9608
11831TIP3    H156984   4.283   1.059  16.634  1.8227  1.0137  0.3800
11831TIP3    H256985   4.242   1.202  16.607 -1.9389  0.2099  1.2549
11832TIP3   OH256986   1.432   1.462   4.161  0.2476  0.4231 -0.0128
11832TIP3    H156987   1.425   1.367   4.166  0.0670  0.2878 -2.1382
11832TIP3    H256988   1.526   1.479   4.162  0.2825  0.2248  0.3151
11833TIP3   OH256989   4.476   0.971   5.068 -0.3799 -0.2621  0.8485
11833TIP3    H156990   4.425   1.001   4.994 -1.3517  2.0134  2.3460
11833TIP3    H256991   4.559   0.940   5.030 -1.4116 -0.5771 -1.2597
11834TIP3   OH256992   1.526   4.911   0.459  0.1722  0.5250  0.5913
11834TIP3    H156993   1.543   4.993   0.413  2.7344 -0.3059 -0.1688
11834TIP3    H256994   1.588   4.849   0.420 -0.0313 -1.1640  2.7409
11835TIP3   OH256995   0.699   2.518  16.713  0.2707 -0.3165 -0.3419
11835TIP3    H156996   0.690   2.444  16.653  1.0635 -1.5955  1.0270
11835TIP3    H256997   0.683   2.480  16.800 -1.3819  1.5633  0.2662
11836TIP3   OH256998   6.569   0.494   1.767 -0.4300 -0.1151 -0.4682
11836TIP3    H156999   6.526   0.410   1.752  0.4744 -0.3607 -1.9426
11836TIP3    H257000   6.628   0.478   1.840  1.1145 -1.3606 -1.9001
11837TIP3   OH257001   5.109   5.235  16.201 -0.1325 -0.4218  0.0591
11837TIP3    H157002   5.045   5.174  16.239  0.0987 -0.2982  0.6537
11837TIP3    H257003   5.189   5.219  16.250  0.0160  0.1482  0.0040
11838TIP3   OH257004   6.732   0.594   5.645 -0.4779 -0.2312 -0.2693
11838TIP3    H157005   6.733   0.599   5.550 -0.0082  2.4034 -0.2068
11838TIP3    H257006   6.815   0.553   5.669 -0.6015 -0.9011 -0.9697
11839TIP3   OH257007   1.790   4.670  13.930 -0.2298 -0.1533  0.1335
11839TIP3    H157008   1.744   4.680  13.847  1.5587 -1.0481 -1.0437
11839TIP3    H257009   1.871   4.623  13.907  0.7902  0.4466  2.2194
11840TIP3   OH257010   5.001   4.035   2.751  0.3738 -0.0135  0.6754
11840TIP3    H157011   4.984   4.046   2.658  0.4319 -1.5131  0.4492
11840TIP3    H257012   5.082   4.082   2.767  0.9224 -0.6113 -0.2700
11841TIP3   OH257013   2.238   3.050  15.312 -0.0558  0.0003  0.2055
11841TIP3    H157014   2.286   2.967  15.310  0.1353  0.1219 -1.8017
11841TIP3    H257015   2.223   3.072  15.220 -3.5222  0.2322  0.7014
11842TIP3   OH257016   6.081   4.222   4.134 -0.3070 -0.0843  0.0550
11842TIP3    H157017   6.087   4.293   4.197  0.5696  0.1416 -0.2593
11842TIP3    H257018   5.989   4.197   4.133 -1.2056  2.8193 -1.7473
11843TIP3   OH257019   3.367   2.501   2.001  0.2238 -0.3270 -0.0142
11843TIP3    H157020   3.398   2.510   1.911  0.8724 -0.6700  0.1693
11843TIP3    H257021   3.421   2.432   2.039 -0.3962 -0.5473  0.4860
11844TIP3   OH257022   3.808   4.666   1.432 -0.6815 -0.0483  0.9841
11844TIP3    H157023   3.804   4.746   1.484  0.3018  0.4322  0.3521
11844TIP3    H257024   3.719   4.654   1.400 -0.3848  2.2907 -1.0658
11845TIP3   OH257025   5.244   4.786  14.823 -0.0213  0.2459 -0.1422
11845TIP3    H157026   5.193   4.814  14.899 -2.7793 -0.5745 -1.5616
11845TIP3    H257027   5.320   4.742  14.860 -0.1266  1.7556  2.0892
11846TIP3   OH257028   5.817   5.591  13.224 -0.6206 -0.4305  0.0773
11846TIP3    H157029   5.875   5.529  13.268  0.1171  0.5268  0.4856
11846TIP3    H257030   5.730   5.569  13.256 -0.3286 -1.0514  0.4630
11847TIP3   OH257031   2.254   4.454   3.820  0.0517 -0.2494 -0.2968
11847TIP3    H157032   2.313   4.449   3.745 -1.9129  1.1038 -2.0597
11847TIP3    H257033   2.176   4.498   3.786 -1.3424 -0.5041  2.3127
11848TIP3   OH257034   3.480   2.731   5.302 -0.1168  0.3874  0.0985
11848TIP3    H157035   3.534   2.660   5.336  1.1695  0.2678 -1.9816
11848TIP3    H257036   3.390   2.702   5.314  0.3744 -1.3034 -0.0904
11849TIP3   OH257037   0.697   4.687  16.632 -0.6409  0.0166 -0.9160
11849TIP3    H157038   0.606   4.688  16.660  0.1124  0.2732  1.7471
11849TIP3    H257039   0.732   4.772  16.658  0.7426 -0.6575 -0.4390
11850TIP3   OH257040   2.665   0.496  13.047 -0.0593  0.0811 -0.1211
11850TIP3    H157041   2.722   0.572  13.032 -2.0409  1.6880 -0.0073
11850TIP3    H257042   2.691   0.463  13.133  0.7355  0.7247 -0.1009
11851TIP3   OH257043   4.016   5.765  13.236 -0.3488  0.2419 -0.2316
11851TIP3    H157044   4.030   5.784  13.143  1.1694  1.4114  0.2080
11851TIP3    H257045   3.981   5.846  13.272  0.3804  0.2464  0.4807
11852TIP3   OH257046   1.549   3.624   3.877 -0.0896 -0.1791  0.5375
11852TIP3    H157047   1.635   3.585   3.861  0.0538  0.5817 -0.6249
11852TIP3    H257048   1.535   3.684   3.804 -2.3732 -1.5729 -0.2989
11853TIP3   OH257049   3.797   0.752  16.717 -0.7804  0.2663  0.5795
11853TIP3    H157050   3.858   0.813  16.677  1.4022 -0.5306  2.4210
11853TIP3    H257051   3.767   0.796  16.797 -0.6269 -0.3312  0.9776
11854TIP3   OH257052   0.274   5.236   2.759 -0.3878  0.0857  0.1904
11854TIP3    H157053   0.210   5.166   2.773  1.8070 -1.9516  0.5681
11854TIP3    H257054   0.310   5.254   2.846 -1.0224  1.8882  0.1388
11855TIP3   OH257055   4.831   4.920  15.626 -0.3096  0.1800  0.4847
11855TIP3    H157056   4.771   4.992  15.645 -0.5838 -0.2309  1.2056
11855TIP3    H257057   4.827   4.864  15.704 -0.2651 -0.7376 -0.1588
11856TIP3   OH257058   0.167   5.872   1.106 -0.7819 -0.4168  0.2805
11856TIP3    H157059   0.186   5.854   1.198  1.5380 -1.3829 -0.3017
11856TIP3    H257060   0.236   5.932   1.079 -1.2602 -0.3718 -0.9029
11857TIP3   OH257061   5.889   3.590  15.848  0.4033 -0.5471 -0.1182
11857TIP3    H157062   5.904   3.645  15.771 -0.0515  0.4029  0.4476
11857TIP3    H257063   5.829   3.641  15.902 -0.1087 -1.6602  0.3899
11858TIP3   OH257064   5.734   4.359   5.870  0.0883 -0.0387 -0.5095
11858TIP3    H157065   5.811   4.332   5.819 -0.7698 -0.9488 -1.3685
11858TIP3    H257066   5.668   4.294   5.849 -1.4018  1.5532 -0.9511
11859TIP3   OH257067   0.698   4.770  11.191  0.1405  0.1255  0.0265
11859TIP3    H157068   0.650   4.842  11.150 -1.9398  0.1453  2.3088
11859TIP3    H257069   0.751   4.733  11.120 -1.8429  1.2853 -2.1806
11860TIP3   OH257070   2.780   6.191   1.480  0.2035  0.3778 -0.2929
11860TIP3    H157071   2.799   6.284   1.492 -0.0543  0.3717  0.2017
11860TIP3    H257072   2.822   6.168   1.397  0.0717  0.9915 -0.5352
11861TIP3   OH257073   2.903   1.271   1.185 -0.0997  0.8032 -0.3446
11861TIP3    H157074   2.956   1.202   1.145 -0.1848  1.4479 -1.6205
11861TIP3    H257075   2.940   1.353   1.151 -0.2185  1.3864  0.8662
11862TIP3   OH257076   0.354   4.934  16.459  0.2494 -0.3495  0.0931
11862TIP3    H157077   0.430   4.976  16.499 -1.1992  0.0941  2.5872
11862TIP3    H257078   0.307   5.006  16.417  0.0721 -0.2333  0.4859
11863TIP3   OH257079   3.468   4.856   0.816  0.1294 -0.0029 -0.4097
11863TIP3    H157080   3.428   4.881   0.899  1.3202  1.7357 -0.3104
11863TIP3    H257081   3.403   4.880   0.750  0.8285  2.6693 -0.2409
11864TIP3   OH257082   5.657   5.458   4.216 -0.1833 -0.6292  0.3411
11864TIP3    H157083   5.727   5.521   4.234 -1.1025  0.6956 -0.4952
11864TIP3    H257084   5.683   5.416   4.134 -0.4771  0.0235 -0.0869
11865TIP3   OH257085   1.806   5.416  17.102  0.3375 -0.2701  0.4636
11865TIP3    H157086   1.723   5.377  17.131 -0.4140  0.2421 -0.9204
11865TIP3    H257087   1.873   5.357  17.136 -0.5852 -0.6882  1.6207
11866TIP3   OH257088   1.662   3.726  11.149 -0.0689  0.6426  0.0691
11866TIP3    H157089   1.573   3.700  11.173 -0.5271  0.4641 -1.6908
11866TIP3    H257090   1.679   3.804  11.201 -1.6951  1.3382 -0.3795
11867TIP3   OH257091   3.049   6.619  12.164 -0.1462  0.0466 -0.0691
11867TIP3    H157092   3.089   6.702  12.189 -1.9357  0.6739  0.9391
11867TIP3    H257093   2.980   6.644  12.102 -0.3136 -0.7481 -0.2132
11868TIP3   OH257094   5.819   4.094  13.721  0.1985  0.4528  0.0583
11868TIP3    H157095   5.734   4.105  13.680  0.2346 -0.7740 -0.3878
11868TIP3    H257096   5.867   4.174  13.698 -0.0764  0.1869 -1.5746
11869TIP3   OH257097   5.194   4.714  15.818 -0.6330 -0.5834 -0.0611
11869TIP3    H157098   5.164   4.787  15.872 -0.7811  0.6846 -1.7510
11869TIP3    H257099   5.155   4.731  15.732  0.7008 -1.7568 -0.9386
11870TIP3   OH257100   4.012   6.331   3.309  0.1164  0.0946 -0.0995
11870TIP3    H157101   4.010   6.347   3.215 -0.6692 -1.2451 -0.3431
11870TIP3    H257102   4.102   6.353   3.336  0.8443 -1.0301 -1.4695
11871TIP3   OH257103   2.803   1.993   3.405  0.6850  0.1692  0.2543
11871TIP3    H157104   2.793   2.081   3.440 -0.5870  0.9009 -1.8154
11871TIP3    H257105   2.728   1.980   3.348  0.6123 -2.4356  0.7904
11872TIP3   OH257106   2.531   0.078   2.104 -0.5628 -0.3540 -0.1886
11872TIP3    H157107   2.548   0.147   2.169 -0.1394 -0.7758  0.1577
11872TIP3    H257108   2.584   0.103   2.028 -2.8687  1.4325 -1.3291
11873TIP3   OH257109   2.486   3.193  15.005 -0.9576 -0.2494  0.6207
11873TIP3    H157110   2.464   3.247  14.929 -4.7069 -2.5002 -0.1308
11873TIP3    H257111   2.485   3.255  15.079  0.3172  1.5611 -0.7894
11874TIP3   OH257112   0.494   4.462   1.601 -0.2902  0.0276  0.1826
11874TIP3    H157113   0.562   4.518   1.563 -0.5913 -0.5263 -1.2186
11874TIP3    H257114   0.442   4.522   1.655  1.1503  0.5027  1.0808
11875TIP3   OH257115   5.968   2.569   4.189 -0.3949  0.4620 -0.3357
11875TIP3    H157116   6.056   2.550   4.220 -0.3846  0.4448 -0.3748
11875TIP3    H257117   5.911   2.515   4.244 -0.4841  1.4604  0.5889
11876TIP3   OH257118   0.591   1.610  16.329 -0.2555  0.0061  0.1293
11876TIP3    H157119   0.644   1.663  16.269  1.8890  0.6640  2.4839
11876TIP3    H257120   0.538   1.674  16.377 -0.6714 -0.3780  0.1920
11877TIP3   OH257121   2.183   1.870   3.065 -0.0627  0.4304  0.4084
11877TIP3    H157122   2.156   1.779   3.076  2.0382 -0.2038  0.7697
11877TIP3    H257123   2.166   1.911   3.149 -1.3585  0.4912  0.1335
11878TIP3   OH257124   2.889   2.345  13.034 -0.0726  0.0639  0.5207
11878TIP3    H157125   2.830   2.272  13.015  0.6999 -0.5931  0.5682
11878TIP3    H257126   2.977   2.306  13.029  0.3730  1.0976  0.0744
11879TIP3   OH257127   0.559   4.118  14.728 -0.0486  0.1307  0.9033
11879TIP3    H157128   0.580   4.069  14.808 -2.0102 -1.0528  0.7253
11879TIP3    H257129   0.479   4.166  14.750 -1.2238 -1.0376 -0.6497
11880TIP3   OH257130   6.633   1.680  13.744 -0.5888  0.1802  0.4384
11880TIP3    H157131   6.656   1.674  13.837 -0.1631  0.4596  0.3525
11880TIP3    H257132   6.670   1.602  13.705  0.6309  0.8505  0.2188
11881TIP3   OH257133   2.804   1.783  14.822  0.9706 -0.2833 -0.2428
11881TIP3    H157134   2.891   1.791  14.860  0.2694 -1.4386  1.7647
11881TIP3    H257135   2.745   1.807  14.893 -0.3677  0.2223 -1.4841
11882TIP3   OH257136   2.490   2.555  11.034 -0.4145  0.5617  0.0053
11882TIP3    H157137   2.422   2.611  10.998 -0.2290  1.5962  1.1686
11882TIP3    H257138   2.572   2.597  11.009 -0.2749  0.9750  1.0740
11883TIP3   OH257139   2.312   1.817   3.602 -0.0132 -0.3191 -0.3192
11883TIP3    H157140   2.339   1.854   3.686 -1.1495 -0.9132  0.3388
11883TIP3    H257141   2.238   1.760   3.624 -0.3539 -0.4575 -1.7282
11884TIP3   OH257142   1.813   4.794   2.220  0.3792 -0.5933 -0.1927
11884TIP3    H157143   1.864   4.837   2.288 -1.4089 -0.7965  1.3674
11884TIP3    H257144   1.877   4.771   2.153  2.0554  0.5312  0.9371
11885TIP3   OH257145   6.260   0.148  12.653  0.7692 -0.1868 -0.3333
11885TIP3    H157146   6.185   0.157  12.712 -1.2321 -3.4468 -2.1330
11885TIP3    H257147   6.314   0.081  12.694 -0.0067 -1.5782 -1.5352
11886TIP3   OH257148   0.017   0.652   3.107  0.0992 -0.5941  0.4855
11886TIP3    H157149  -0.030   0.727   3.069  0.1973 -1.1061 -0.7148
11886TIP3    H257150   0.052   0.685   3.189 -1.8179 -0.0098  1.1259
11887TIP3   OH257151   5.069   4.683  10.798  0.1147  0.2404  0.2483
11887TIP3    H157152   5.048   4.777  10.798 -0.4474  0.1499  2.2304
11887TIP3    H257153   5.085   4.663  10.705 -1.4772  1.9056 -0.4610
11888TIP3   OH257154   2.590   6.023   1.582  0.4932 -0.2594  0.3568
11888TIP3    H157155   2.537   6.007   1.504  0.5433 -0.1561  0.3020
11888TIP3    H257156   2.648   6.094   1.557 -0.1364  0.4202  0.8056
11889TIP3   OH257157   6.835   4.599   6.319  0.0666 -0.5546  0.3049
11889TIP3    H157158   6.749   4.606   6.359  0.6154  0.6449  1.3565
11889TIP3    H257159   6.896   4.606   6.392  1.0615 -0.5959 -0.5045
11890TIP3   OH257160   6.037   4.277   5.356 -0.1937  0.0683  0.0905
11890TIP3    H157161   6.018   4.361   5.398  0.8255 -0.3316  1.3999
11890TIP3    H257162   5.954   4.252   5.314 -0.4843  1.7454 -0.3846
11891TIP3   OH257163   6.011   5.019  15.263 -0.1369  0.2594  0.0803
11891TIP3    H157164   5.972   4.959  15.200  0.0577  0.1682  0.0436
11891TIP3    H257165   5.988   4.982  15.348  0.5373 -0.2368  0.0567
11892TIP3   OH257166   0.422   4.683  16.622  0.5856 -0.8521  0.0550
11892TIP3    H157167   0.393   4.606  16.572  0.0539 -0.1736 -0.6986
11892TIP3    H257168   0.405   4.757  16.564  1.9442 -0.2379  0.4048
11893TIP3   OH257169   3.470   5.952   0.396 -0.1237  0.0399 -0.3710
11893TIP3    H157170   3.517   5.868   0.388 -1.1278 -0.5559 -0.2188
11893TIP3    H257171   3.434   5.967   0.309  0.8772  0.8358 -0.6657
11894TIP3   OH257172   3.705   1.744   4.767 -0.3755 -0.6967 -0.0514
11894TIP3    H157173   3.726   1.676   4.702 -0.3816 -0.0128 -0.7847
11894TIP3    H257174   3.720   1.701   4.851  1.7265 -0.9732 -0.4969
11895TIP3   OH257175   4.636   4.629   0.847  0.0661 -0.0572  0.0577
11895TIP3    H157176   4.676   4.566   0.787  0.9819  0.7465 -0.2030
11895TIP3    H257177   4.710   4.667   0.894 -0.2613  2.0778 -1.0348
11896TIP3   OH257178   2.125   5.067  13.000  1.1224 -0.5944  0.3766
11896TIP3    H157179   2.212   5.102  13.019  0.4817  1.0033  0.4873
11896TIP3    H257180   2.102   5.103  12.915  0.2377 -0.3244  0.7180
11897TIP3   OH257181   0.306   4.771  10.237  0.4259 -0.2434  0.2271
11897TIP3    H157182   0.269   4.785  10.324 -0.1334 -2.0472  0.3203
11897TIP3    H257183   0.383   4.716  10.252 -0.3364 -1.5657 -0.4649
11898TIP3   OH257184   3.726   0.370  13.511 -0.3897  0.6435  0.8704
11898TIP3    H157185   3.661   0.350  13.578 -1.5866  0.0447 -0.3986
11898TIP3    H257186   3.692   0.448  13.467 -1.2524 -0.6827 -0.9565
11899TIP3   OH257187   4.741   6.272   6.060 -0.1321 -0.9429  0.2195
11899TIP3    H157188   4.776   6.227   5.983  0.1253  1.9015 -1.4902
11899TIP3    H257189   4.817   6.281   6.118 -0.0267 -1.9662  0.2673
11900TIP3   OH257190   2.034   6.839  12.247  0.6714 -0.3098 -0.9379
11900TIP3    H157191   2.079   6.867  12.326  0.2972  0.0184 -0.8336
11900TIP3    H257192   2.104   6.815  12.186  0.9730 -0.1157 -0.6705
11901TIP3   OH257193   0.627   1.946   2.779 -0.1772  0.4577  0.1113
11901TIP3    H157194   0.653   1.859   2.751 -1.3657  0.2369 -0.3818
11901TIP3    H257195   0.543   1.961   2.735  0.9938  2.7191 -1.5240
11902TIP3   OH257196   3.146   1.087   1.829 -0.1320 -0.4462  0.2085
11902TIP3    H157197   3.137   1.009   1.883  0.6818  0.0958  1.1722
11902TIP3    H257198   3.240   1.094   1.811 -0.3019 -0.2039 -0.6720
11903TIP3   OH257199   0.637   3.291  15.812  0.3309  0.3130 -0.5787
11903TIP3    H157200   0.716   3.294  15.866 -0.0365 -0.0284 -0.0046
11903TIP3    H257201   0.618   3.382  15.792 -0.3061  0.5716  1.0543
11904TIP3   OH257202   4.936   4.517  15.517 -1.0712 -0.7631  0.2128
11904TIP3    H157203   4.883   4.531  15.438 -2.0025  0.7372  1.0447
11904TIP3    H257204   5.006   4.459  15.489  0.1447  1.7202 -2.3995
11905TIP3   OH257205   2.505   2.113  16.748  0.1285 -0.4620 -0.2991
11905TIP3    H157206   2.553   2.031  16.758  1.6378  0.3123 -0.7114
11905TIP3    H257207   2.428   2.104  16.803  1.6305 -1.1441  1.8131
11906TIP3   OH257208   4.658   3.420   3.902  0.0169  0.6118  0.4737
11906TIP3    H157209   4.742   3.389   3.936 -0.8461  0.4520  2.5997
11906TIP3    H257210   4.598   3.346   3.915 -0.4288  0.5990 -1.3182
11907TIP3   OH257211   3.952   2.020   2.418 -0.5283  0.7373 -0.0441
11907TIP3    H157212   3.860   1.996   2.400 -0.6346  1.8167 -0.9858
11907TIP3    H257213   3.985   1.946   2.471 -1.8425  0.1879  0.0624
11908TIP3   OH257214   2.197   6.733   0.704 -0.4214 -0.2735  0.0850
11908TIP3    H157215   2.117   6.682   0.687 -0.8214  0.1112  0.7598
11908TIP3    H257216   2.252   6.673   0.755 -0.4686 -0.3785  0.0151
11909TIP3   OH257217   5.772   2.337   1.308 -0.0541 -0.4504  0.1603
11909TIP3    H157218   5.695   2.281   1.320 -0.0104 -0.3489  0.9758
11909TIP3    H257219   5.742   2.425   1.329  0.0553 -0.2646 -0.4363
11910TIP3   OH257220   1.949   0.264  15.632  0.0606  0.3742 -0.5362
11910TIP3    H157221   1.861   0.244  15.599 -0.7447 -0.3513  1.8361
11910TIP3    H257222   1.934   0.316  15.711  1.6013 -1.7688  1.2821
11911TIP3   OH257223   1.295   1.382  13.339  0.3882  0.3934  0.1472
11911TIP3    H157224   1.297   1.465  13.386 -0.0262  0.6349 -0.2504
11911TIP3    H257225   1.257   1.320  13.401 -0.9806  0.9035 -0.1488
11912TIP3   OH257226   0.352   4.845   5.530 -0.4809 -0.7487 -0.6726
11912TIP3    H157227   0.414   4.825   5.600  1.1785 -0.1408 -1.8902
11912TIP3    H257228   0.297   4.768   5.523 -0.2930 -1.0566  0.8826
11913TIP3   OH257229   3.366   4.771   0.534  0.4384  0.3167 -0.0859
11913TIP3    H157230   3.374   4.692   0.588 -1.2576 -0.5192 -0.9588
11913TIP3    H257231   3.311   4.743   0.460 -0.3779  2.3861 -0.3087
11914TIP3   OH257232   0.997   4.422  14.078 -0.4359  0.5545 -0.4501
11914TIP3    H157233   1.064   4.480  14.114 -1.3566  1.5558 -0.3140
11914TIP3    H257234   0.917   4.474  14.078 -0.8635 -0.0254 -2.2171
11915TIP3   OH257235   0.256   1.956   6.597  0.1726 -0.2533  0.1875
11915TIP3    H157236   0.298   2.039   6.621  0.2428 -0.5621  1.1879
11915TIP3    H257237   0.258   1.904   6.677  0.9222 -1.5777 -0.6481
11916TIP3   OH257238   5.528   6.689   2.436  0.3499 -0.5410 -0.0962
11916TIP3    H157239   5.608   6.725   2.473 -0.0304  0.1593  0.0533
11916TIP3    H257240   5.556   6.646   2.355  0.9476 -0.7399  0.2115
11917TIP3   OH257241   4.167   1.759  15.040  0.6350 -0.3954  0.1075
11917TIP3    H157242   4.144   1.836  15.092  3.1441  0.6704 -0.2536
11917TIP3    H257243   4.088   1.705  15.042 -1.3105  2.2525  0.2031
11918TIP3   OH257244   3.573   4.031   0.778  0.3227 -0.0269 -0.0479
11918TIP3    H157245   3.602   3.977   0.705  0.3113  0.8444 -0.7267
11918TIP3    H257246   3.605   4.119   0.756 -0.2645  0.3768  0.6638
11919TIP3   OH257247   5.557   6.556   3.115 -0.4039 -0.0651 -0.2208
11919TIP3    H157248   5.548   6.482   3.056 -0.7453  0.7159 -1.1741
11919TIP3    H257249   5.471   6.567   3.154 -0.6094  0.3982 -0.7892
11920TIP3   OH257250   2.116   6.364  16.030  0.1005  0.3981 -0.2317
11920TIP3    H157251   2.211   6.356  16.019 -0.1002 -1.1062 -1.0870
11920TIP3    H257252   2.095   6.309  16.105  0.0568  1.9156  0.9199
11921TIP3   OH257253   0.234   6.161   6.450 -0.9911 -0.1352  0.0421
11921TIP3    H157254   0.318   6.174   6.405 -0.3951 -0.2111  1.0928
11921TIP3    H257255   0.240   6.216   6.528 -2.4089  0.7674 -0.4560
11922TIP3   OH257256   5.301   4.371  12.158 -0.0246  0.2768 -0.6438
11922TIP3    H157257   5.313   4.437  12.090  0.2964 -1.0544 -1.9412
11922TIP3    H257258   5.347   4.294  12.125  0.0753 -0.4544  1.0625
11923TIP3   OH257259   6.178   4.962  13.887  0.2178  0.6071  0.0295
11923TIP3    H157260   6.219   4.958  13.973 -1.0703  1.4147  0.7109
11923TIP3    H257261   6.146   4.873  13.871 -0.1383  0.6143  0.6924
11924TIP3   OH257262   6.394   6.088  16.088  0.0710 -0.0382 -0.0019
11924TIP3    H157263   6.320   6.127  16.134  0.0014 -0.9165  0.6549
11924TIP3    H257264   6.463   6.154  16.092 -0.1901  0.1954  0.6987
11925TIP3   OH257265   4.434   5.259  12.815 -0.6693  0.2720 -0.0250
11925TIP3    H157266   4.529   5.269  12.812 -0.5203 -0.1453  1.6872
11925TIP3    H257267   4.419   5.166  12.801 -0.5713 -0.1418  2.1504
11926TIP3   OH257268   0.363   0.708  12.105 -0.6121  0.0289 -0.4321
11926TIP3    H157269   0.360   0.792  12.060 -0.9540  0.9826  1.2967
11926TIP3    H257270   0.409   0.650  12.043  0.0281  1.5766 -1.4855
11927TIP3   OH257271   3.044   1.190  13.716 -0.1529 -0.2221 -0.0629
11927TIP3    H157272   3.036   1.272  13.667  1.2580 -1.1996 -2.0611
11927TIP3    H257273   3.019   1.213  13.805 -1.5165  1.9603 -0.9296
11928TIP3   OH257274   2.723   0.781  13.428  1.0704 -0.0170  0.2272
11928TIP3    H157275   2.669   0.731  13.489  0.4292 -0.5542 -0.7502
11928TIP3    H257276   2.675   0.863  13.415  0.3325 -0.5767 -0.7995
11929TIP3   OH257277   0.142   2.786  12.825  0.4770 -0.3829  0.8196
11929TIP3    H157278   0.232   2.817  12.819  0.5050 -0.5284  0.4944
11929TIP3    H257279   0.144   2.719  12.894  0.8725 -1.2895 -0.0503
11930TIP3   OH257280   2.560   0.622   4.680 -0.0342  0.1463  0.1929
11930TIP3    H157281   2.642   0.595   4.722  1.8375  2.6622 -1.5685
11930TIP3    H257282   2.562   0.718   4.682 -2.6317  0.2926 -0.5440
11931TIP3   OH257283   5.435   4.468  15.228 -0.3386  0.3192 -0.3132
11931TIP3    H157284   5.511   4.412  15.245 -0.2196  0.7863  0.7801
11931TIP3    H257285   5.467   4.557  15.241 -1.3072  0.4794  1.2043
11932TIP3   OH257286   0.312   4.084   4.565 -0.0615 -0.7762  0.1080
11932TIP3    H157287   0.345   4.173   4.582  1.3754 -1.5103  1.3934
11932TIP3    H257288   0.362   4.054   4.490 -0.7282 -0.4338 -0.4882
11933TIP3   OH257289   4.963   5.129   3.308  0.8975  0.6731 -0.1673
11933TIP3    H157290   4.985   5.184   3.233  0.5215  0.6601 -0.2882
11933TIP3    H257291   5.044   5.124   3.359  2.1692 -1.8350 -2.1507
11934TIP3   OH257292   5.095   6.361   5.019  0.4011  0.4102 -0.0442
11934TIP3    H157293   5.156   6.316   4.961 -1.0498 -1.5561 -0.1559
11934TIP3    H257294   5.025   6.392   4.961  0.0255  0.3436  0.3642
11935TIP3   OH257295   0.604   1.303   0.543 -0.2123  0.1667  0.2788
11935TIP3    H157296   0.617   1.214   0.574  1.3781 -0.1861 -1.2526
11935TIP3    H257297   0.582   1.293   0.450 -1.4503  1.3228  0.4188
11936TIP3   OH257298   2.293   4.012  11.710 -0.5459 -0.3379 -0.4904
11936TIP3    H157299   2.256   3.950  11.774  0.9439 -1.6282 -0.8259
11936TIP3    H257300   2.376   3.973  11.684 -0.9446  0.2755 -3.0046
11937TIP3   OH257301   6.016   2.534  14.761 -0.1007  0.1470  0.5449
11937TIP3    H157302   6.061   2.611  14.795 -1.9548  2.1941 -1.3332
11937TIP3    H257303   6.083   2.486  14.713  0.9184  1.0234  1.0604
11938TIP3   OH257304   6.427   4.233   2.492 -0.4237  0.1520  0.8272
11938TIP3    H157305   6.494   4.251   2.558  2.3552 -1.7257 -1.2215
11938TIP3    H257306   6.432   4.307   2.431 -0.9307  0.4818  1.1809
11939TIP3   OH257307   5.897   0.542  12.371 -0.5209 -0.2713 -0.2613
11939TIP3    H157308   5.950   0.592  12.432  0.9791  1.2265 -2.6088
11939TIP3    H257309   5.930   0.452  12.379 -1.8300 -0.5880  2.5367
11940TIP3   OH257310   5.165   4.087  11.124  0.2490 -1.2711 -0.2262
11940TIP3    H157311   5.127   4.143  11.056  0.1104  0.7407  1.4228
11940TIP3    H257312   5.189   4.006  11.078 -0.6220 -0.3205 -2.4706
11941TIP3   OH257313   6.426   3.530  15.149 -0.2561 -0.3669 -0.3803
11941TIP3    H157314   6.440   3.523  15.054  1.3513 -2.1495 -0.0744
11941TIP3    H257315   6.466   3.450  15.184 -0.6724  0.3496  1.8303
11942TIP3   OH257316   0.355   6.397  15.229 -0.0147  0.2779 -0.5709
11942TIP3    H157317   0.297   6.472  15.217  0.5961  0.3873 -3.7284
11942TIP3    H257318   0.314   6.327  15.177 -0.0804 -1.3464  1.5342
11943TIP3   OH257319   1.213   3.759   2.219 -0.3435 -0.4703  0.9459
11943TIP3    H157320   1.286   3.812   2.250  0.4424 -1.3718  0.6596
11943TIP3    H257321   1.186   3.708   2.295 -0.8211  0.0026  1.1045
11944TIP3   OH257322   5.226   5.112  13.299  0.3356  0.4776  0.0426
11944TIP3    H157323   5.154   5.147  13.246  0.8649  0.7158 -0.5268
11944TIP3    H257324   5.214   5.151  13.385 -1.4076 -1.0310  0.5748
11945TIP3   OH257325   4.244   0.657  16.995 -0.0967  0.2659 -0.2030
11945TIP3    H157326   4.174   0.683  17.054 -0.4988 -0.7842 -0.1988
11945TIP3    H257327   4.323   0.696  17.032 -0.7734  2.1727 -0.6753
11946TIP3   OH257328   4.359   4.039   5.490  0.3282  0.1293 -0.5739
11946TIP3    H157329   4.406   4.123   5.485  0.4596  0.0917 -0.0653
11946TIP3    H257330   4.412   3.985   5.548 -0.7484  0.3713  0.6956
11947TIP3   OH257331   1.427   1.391   5.035 -0.4368 -1.3137  0.0027
11947TIP3    H157332   1.363   1.417   5.101  0.3375  1.2234 -0.1550
11947TIP3    H257333   1.421   1.459   4.968  2.9859 -0.4425  0.4027
11948TIP3   OH257334   3.893   5.217  15.084  0.1916 -0.0025 -0.5082
11948TIP3    H157335   3.962   5.205  15.149  0.3766  0.2598 -0.6528
11948TIP3    H257336   3.939   5.227  15.001  0.1851  2.8483 -0.2951
11949TIP3   OH257337   5.741   4.576  16.922 -0.3896 -0.5677  0.0594
11949TIP3    H157338   5.666   4.538  16.969  0.2854  0.8443  2.4667
11949TIP3    H257339   5.798   4.501  16.904 -0.6076 -1.1822  1.7367
11950TIP3   OH257340   3.935   2.784   2.938  0.0787  0.0459 -0.0003
11950TIP3    H157341   3.967   2.697   2.915  2.1124  1.3183 -2.4572
11950TIP3    H257342   3.870   2.768   3.007  1.6826 -3.2237  0.9592
11951TIP3   OH257343   1.224   3.579   0.777  0.0483  0.5174  0.2947
11951TIP3    H157344   1.198   3.529   0.855  1.9103 -0.3873  0.4139
11951TIP3    H257345   1.243   3.511   0.711 -1.2163  1.2583 -0.8788
11952TIP3   OH257346   5.817   2.183  15.830 -0.0109  0.0260  0.2120
11952TIP3    H157347   5.800   2.090  15.845  1.0190 -0.4420 -1.3809
11952TIP3    H257348   5.895   2.201  15.882 -0.5222  0.1545  0.9544
11953TIP3   OH257349   5.961   6.206   2.034 -0.9484 -0.3462  0.0384
11953TIP3    H157350   6.035   6.157   1.999  0.5735  0.3322  2.1039
11953TIP3    H257351   5.887   6.178   1.981  0.7745 -0.9761 -2.1965
11954TIP3   OH257352   4.689   5.362  12.801  0.0479  1.2854  0.1407
11954TIP3    H157353   4.723   5.403  12.721 -0.9191  2.4759  0.2972
11954TIP3    H257354   4.734   5.407  12.872  0.6951  0.4290  0.2735
11955TIP3   OH257355   3.328   6.291   5.579 -0.4882  0.0729 -0.3828
11955TIP3    H157356   3.305   6.325   5.492 -2.0497 -1.1798 -0.5104
11955TIP3    H257357   3.244   6.278   5.623  0.1554 -1.3811  0.5014
11956TIP3   OH257358   2.808   6.693  14.681  0.2597 -0.4055 -0.1037
11956TIP3    H157359   2.805   6.613  14.629 -2.8325  0.6888 -1.8584
11956TIP3    H257360   2.741   6.681  14.748 -0.4528  0.7711 -0.5741
11957TIP3   OH257361   0.138   6.542   2.066 -0.0522 -0.6226  0.6677
11957TIP3    H157362   0.139   6.520   1.973 -0.8161  0.0453  0.4930
11957TIP3    H257363   0.211   6.602   2.078 -0.1809 -0.4203  0.4270
11958TIP3   OH257364   4.818   4.929  14.998  0.0033  0.1674 -0.4381
11958TIP3    H157365   4.735   4.965  15.029  0.2409  1.2306 -0.9717
11958TIP3    H257366   4.793   4.851  14.948 -0.5615 -0.2078  0.4038
11959TIP3   OH257367   2.527   3.422   0.955 -0.2241 -0.1400 -0.0904
11959TIP3    H157368   2.436   3.445   0.975  0.3211  1.3853  0.7751
11959TIP3    H257369   2.553   3.485   0.888 -0.5206 -2.1600 -2.2608
11960TIP3   OH257370   3.547   1.585   0.878  0.1299  0.3899 -0.0847
11960TIP3    H157371   3.536   1.662   0.933  2.2655  1.4814 -1.0888
11960TIP3    H257372   3.466   1.582   0.826  0.8400  3.3218 -1.5969
11961TIP3   OH257373   2.301   2.465  14.271 -0.9190 -0.0759 -0.4063
11961TIP3    H157374   2.395   2.483  14.280 -0.9366  0.0708 -0.5328
11961TIP3    H257375   2.297   2.370  14.259 -0.5905  0.1817 -3.1140
11962TIP3   OH257376   3.317   6.184  15.718 -0.0940 -0.0272 -0.0158
11962TIP3    H157377   3.305   6.273  15.750  0.3078  0.1005 -0.2112
11962TIP3    H257378   3.406   6.183  15.682 -0.4218 -0.2341 -0.8638
11963TIP3   OH257379   1.527   2.222  12.627 -0.1712 -0.3163 -0.0728
11963TIP3    H157380   1.490   2.147  12.580  0.0107  0.1111 -0.9231
11963TIP3    H257381   1.455   2.286  12.630 -0.1931 -0.3567  0.2696
11964TIP3   OH257382   4.529   5.779  12.998  0.2294  0.0659 -0.0196
11964TIP3    H157383   4.530   5.734  13.083 -1.0158  0.0620  0.0151
11964TIP3    H257384   4.440   5.767  12.966  0.2715  1.2893 -0.6711
11965TIP3   OH257385   4.284   6.445   4.478 -0.5973  0.4822  0.3282
11965TIP3    H157386   4.272   6.352   4.462 -0.5226  0.4752  0.3112
11965TIP3    H257387   4.233   6.488   4.410  0.3150  0.4493 -0.3951
11966TIP3   OH257388   5.384   6.441  11.679  0.8605 -0.4326 -0.0343
11966TIP3    H157389   5.400   6.399  11.595  3.2974 -0.0575  0.1673
11966TIP3    H257390   5.331   6.378  11.728  1.9225 -1.9792 -0.7975
11967TIP3   OH257391   4.891   5.375   5.012 -0.8264 -0.2426  0.2044
11967TIP3    H157392   4.959   5.429   4.972 -1.1969 -1.4222 -2.1898
11967TIP3    H257393   4.936   5.296   5.041 -1.0922 -0.9934 -1.3183
11968TIP3   OH257394   5.761   0.753  13.101  0.5541  0.1840 -0.2327
11968TIP3    H157395   5.790   0.724  13.015 -0.2154 -0.6529 -0.2128
11968TIP3    H257396   5.684   0.807  13.084  0.7855  0.5658 -0.1060
11969TIP3   OH257397   2.758   3.149   1.857  0.4014 -0.4330 -0.3435
11969TIP3    H157398   2.810   3.135   1.936 -1.8245 -1.6824  1.0071
11969TIP3    H257399   2.768   3.242   1.838 -0.0997  0.2504  2.2966
11970TIP3   OH257400   1.096   3.290  15.334 -0.2185 -0.5741 -0.5589
11970TIP3    H157401   1.184   3.327  15.348 -0.8454  1.2905 -1.1916
11970TIP3    H257402   1.097   3.207  15.381  2.0544 -0.8629 -0.9930
11971TIP3   OH257403   2.389   4.231  12.382 -0.4906  0.3672 -0.2954
11971TIP3    H157404   2.402   4.145  12.341 -1.3607 -0.0880  0.3608
11971TIP3    H257405   2.440   4.291  12.327  1.8004 -0.8373  0.3780
11972TIP3   OH257406   1.735   5.728   3.535  0.5631  0.2151  0.3913
11972TIP3    H157407   1.642   5.752   3.531  0.4496 -0.2739 -0.0495
11972TIP3    H257408   1.745   5.662   3.466  1.2923  0.4390  0.2835
11973TIP3   OH257409   1.434   4.802   5.270  0.5456  0.1795 -0.0200
11973TIP3    H157410   1.474   4.715   5.267 -0.4564 -0.2907 -0.1735
11973TIP3    H257411   1.404   4.818   5.181 -2.6194 -0.9703  0.7047
11974TIP3   OH257412   4.246   2.102   1.779 -0.2167  0.6529 -0.3015
11974TIP3    H157413   4.236   2.137   1.690 -0.0953  1.0598 -0.1576
11974TIP3    H257414   4.303   2.165   1.823  1.5312 -0.6929 -0.5624
11975TIP3   OH257415   0.171   5.850  14.593  0.7138 -0.9480  0.2490
11975TIP3    H157416   0.235   5.857  14.522 -0.7968  0.0569 -1.0856
11975TIP3    H257417   0.199   5.773  14.643  1.3379 -2.2619 -1.9659
11976TIP3   OH257418   5.709   4.981   2.864  0.0358 -0.4590 -0.8184
11976TIP3    H157419   5.672   4.993   2.952  0.8374  0.4474 -0.5937
11976TIP3    H257420   5.773   4.911   2.874  0.5160  0.0109 -0.5504
11977TIP3   OH257421   3.117   3.071   5.907 -0.5744  0.4241  0.0423
11977TIP3    H157422   3.110   3.097   5.999 -1.1209  0.1629  0.0779
11977TIP3    H257423   3.147   2.981   5.910 -1.1459  0.2279 -0.0181
11978TIP3   OH257424   2.696   4.003  15.227 -0.5434 -0.9083  0.2118
11978TIP3    H157425   2.733   4.090  15.209 -0.5013 -0.6967  1.2467
11978TIP3    H257426   2.672   3.969  15.141 -1.2103  0.4223 -0.1593
11979TIP3   OH257427   6.170   3.774  16.109 -0.6497  0.0232  0.0215
11979TIP3    H157428   6.231   3.702  16.097 -1.8265 -1.1821  0.9754
11979TIP3    H257429   6.084   3.734  16.098 -1.3422  1.2080  0.9123
11980TIP3   OH257430   6.398   1.619  15.856  0.6442  0.4158 -0.1484
11980TIP3    H157431   6.345   1.539  15.859  1.1037  0.0592 -1.2045
11980TIP3    H257432   6.334   1.690  15.852  0.2350  0.0953  0.5283
11981TIP3   OH257433   5.341   1.497   3.296 -0.0082 -0.2084 -0.4110
11981TIP3    H157434   5.345   1.562   3.366  0.9114 -1.2050  0.4898
11981TIP3    H257435   5.359   1.547   3.216 -1.2234  0.9713  0.0037
11982TIP3   OH257436   0.316   1.416  15.343 -0.0890 -0.2692 -0.2597
11982TIP3    H157437   0.342   1.324  15.349  1.9358  0.1771 -1.1116
11982TIP3    H257438   0.222   1.415  15.358 -0.1078 -2.4541 -0.0775
11983TIP3   OH257439   4.943   6.779  16.808 -0.4682 -0.3432  0.2014
11983TIP3    H157440   4.871   6.826  16.766 -0.4273  0.4096  0.9557
11983TIP3    H257441   4.984   6.730  16.736 -1.0597  0.0682 -0.4319
11984TIP3   OH257442   4.133   1.068   4.867  0.1707  0.5025  0.4594
11984TIP3    H157443   4.142   1.014   4.789  0.8154 -2.0955  2.2139
11984TIP3    H257444   4.209   1.126   4.865  1.7308 -1.4499  0.5200
11985TIP3   OH257445   5.168   0.758  12.082  0.7658  0.1657  0.0779
11985TIP3    H157446   5.185   0.841  12.127 -0.1158  0.7213 -0.5632
11985TIP3    H257447   5.116   0.707  12.144 -2.9039  2.0134 -1.1626
11986TIP3   OH257448   6.182   4.395   0.369 -0.5287 -0.2089 -0.2789
11986TIP3    H157449   6.229   4.464   0.323 -2.4313  0.6187 -1.1233
11986TIP3    H257450   6.223   4.391   0.455  1.3862  0.0645 -1.1412
11987TIP3   OH257451   1.523   4.564   5.209 -0.3171 -0.2637  0.2365
11987TIP3    H157452   1.496   4.504   5.139  0.2354 -0.9278  0.5786
11987TIP3    H257453   1.510   4.514   5.289  0.6116 -0.1063  0.4921
11988TIP3   OH257454   6.250   5.963   4.959 -0.2074 -0.2878  0.3975
11988TIP3    H157455   6.243   5.873   4.990 -1.1723 -0.3925 -0.0855
11988TIP3    H257456   6.345   5.979   4.954  0.0415 -1.9141 -1.2871
11989TIP3   OH257457   2.106   1.516  13.816  0.1353 -0.2339 -0.2782
11989TIP3    H157458   2.179   1.460  13.841  1.7951  1.8984 -0.1425
11989TIP3    H257459   2.028   1.469  13.847  1.6698 -0.6409  3.3835
11990TIP3   OH257460   6.239   5.456  10.725  0.6482 -0.2952  0.4582
11990TIP3    H157461   6.244   5.551  10.711  1.0357 -0.2974  0.5701
11990TIP3    H257462   6.164   5.428  10.673  0.6317  0.0502  0.2924
11991TIP3   OH257463   0.167   2.641  13.742  0.4316  0.4331  0.4616
11991TIP3    H157464   0.248   2.649  13.791  0.3775 -1.6564  0.9961
11991TIP3    H257465   0.120   2.569  13.784 -2.0036  1.9296  0.5344
11992TIP3   OH257466   4.413   5.696   3.661  0.1411 -0.6573 -0.1007
11992TIP3    H157467   4.419   5.648   3.578 -1.1223  1.0580 -1.2539
11992TIP3    H257468   4.319   5.704   3.677  0.3519  0.1066  0.8437
11993TIP3   OH257469   0.644   6.733  15.280  0.1672  0.2623 -0.4977
11993TIP3    H157470   0.566   6.718  15.226 -1.5932  1.0920  1.6408
11993TIP3    H257471   0.650   6.828  15.287  0.8664  0.1838  0.0643
11994TIP3   OH257472   3.436   0.532   4.930 -0.3311  0.0205  0.0647
11994TIP3    H157473   3.340   0.523   4.930 -0.4485  0.3200  2.8425
11994TIP3    H257474   3.463   0.497   4.845 -2.7750 -1.5459 -0.1808
11995TIP3   OH257475   5.164   4.486   2.030 -0.0124 -0.0643  0.1079
11995TIP3    H157476   5.148   4.391   2.031 -0.4457 -0.0590 -2.0851
11995TIP3    H257477   5.223   4.499   1.956 -1.4470  1.5761 -0.8128
11996TIP3   OH257478   6.192   5.907   6.483 -0.0518 -0.1780  0.1468
11996TIP3    H157479   6.139   5.837   6.521 -1.1881  0.1488 -0.7942
11996TIP3    H257480   6.133   5.952   6.423  1.6394 -0.6547 -1.9939
11997TIP3   OH257481   3.020   6.390  15.183  0.0900  0.0416 -0.3651
11997TIP3    H157482   2.967   6.401  15.104 -0.9936  0.9171  0.4610
11997TIP3    H257483   3.045   6.297  15.182  2.7524  0.6096 -3.3385
11998TIP3   OH257484   1.607   0.730   3.000  0.2537 -0.4601 -0.2268
11998TIP3    H157485   1.629   0.731   2.907  0.3039 -2.2631 -0.2823
11998TIP3    H257486   1.688   0.757   3.044 -0.4311  2.7660 -0.7083
11999TIP3   OH257487   6.637   6.818  14.685  0.0931  0.0484  0.0069
11999TIP3    H157488   6.696   6.892  14.697 -0.2187  0.6756 -2.0052
11999TIP3    H257489   6.637   6.773  14.770  1.0280  1.7977  0.9778
12000TIP3   OH257490   2.877   6.158   2.802 -0.2048  0.3611 -0.3709
12000TIP3    H157491   2.856   6.167   2.895  0.6120  0.9148 -0.2263
12000TIP3    H257492   2.804   6.199   2.756 -0.9987 -0.6163 -0.0121
12001TIP3   OH257493   1.428   5.938  10.857  0.2898  0.0100 -0.5771
12001TIP3    H157494   1.372   6.003  10.815 -0.6822 -0.4243  0.0293
12001TIP3    H257495   1.515   5.979  10.857 -0.2336  1.1676 -0.4959
12002TIP3   OH257496   3.091   3.882   4.153 -0.9589 -0.3925 -0.0037
12002TIP3    H157497   3.086   3.838   4.238 -2.5446  0.0359  0.1590
12002TIP3    H257498   3.052   3.968   4.169 -1.3941 -0.3551 -1.1951
12003TIP3   OH257499   4.289   3.557  12.281 -0.3246 -0.3768 -0.2726
12003TIP3    H157500   4.277   3.623  12.212  3.5422  2.0723  1.0376
12003TIP3    H257501   4.382   3.536  12.277 -0.4979 -2.1314  2.5653
12004TIP3   OH257502   2.706   1.484  13.784  0.3636 -0.1020 -0.0298
12004TIP3    H157503   2.719   1.578  13.790 -0.7744  0.0368  0.3912
12004TIP3    H257504   2.764   1.448  13.852 -1.0626  0.4800  1.5650
12005TIP3   OH257505   3.038   3.456  14.371  0.2988  0.0803  0.3926
12005TIP3    H157506   3.087   3.537  14.388 -1.2941  1.4546 -1.2290
12005TIP3    H257507   3.050   3.440  14.278 -1.8273  0.1680  0.0526
12006TIP3   OH257508   6.270   6.604  11.479  0.0398 -0.4798 -0.0521
12006TIP3    H157509   6.327   6.668  11.523 -0.2052  2.1223 -3.1395
12006TIP3    H257510   6.302   6.519  11.509  4.3529  0.8633 -0.1702
12007TIP3   OH257511   2.549   2.374  12.948 -0.1237 -0.0592  0.1012
12007TIP3    H157512   2.532   2.299  12.892  3.0290 -1.4668  0.8247
12007TIP3    H257513   2.630   2.413  12.913 -1.0931  2.4227  0.3831
12008TIP3   OH257514   4.458   6.437   0.208  0.8296  0.2977  0.3915
12008TIP3    H157515   4.524   6.476   0.152 -0.4840 -0.6414 -1.9375
12008TIP3    H257516   4.495   6.353   0.236  1.8171  1.1254  1.7029
12009TIP3   OH257517   4.907   0.893  16.087 -0.2719 -0.6220 -0.0932
12009TIP3    H157518   4.848   0.933  16.023 -1.6392 -1.0934  0.8194
12009TIP3    H257519   4.991   0.884  16.041 -1.4005 -1.6674 -2.0841
12010TIP3   OH257520   0.526   1.663  12.262  0.1396 -0.2724  0.6409
12010TIP3    H157521   0.467   1.729  12.227 -0.9831 -1.1132  0.9057
12010TIP3    H257522   0.603   1.713  12.292 -0.6697  0.9055  0.8235
12011TIP3   OH257523   4.540   6.847   0.275  0.1189 -0.2492  0.1306
12011TIP3    H157524   4.556   6.941   0.274 -0.8813 -0.0530 -1.2055
12011TIP3    H257525   4.539   6.822   0.182 -1.1094 -1.2941  0.3983
12012TIP3   OH257526   6.008   0.173  15.321  0.8729  0.5073  0.6525
12012TIP3    H157527   6.088   0.123  15.312 -0.6595 -1.8627 -0.7871
12012TIP3    H257528   5.954   0.122  15.381 -0.3007  1.0280  0.0815
12013TIP3   OH257529   1.200   0.476  11.792 -0.0729 -0.0790 -0.1755
12013TIP3    H157530   1.253   0.532  11.849 -1.0566  1.7952 -0.9947
12013TIP3    H257531   1.253   0.465  11.713  0.1409 -0.3665  0.0053
12014TIP3   OH257532   5.981   5.022  11.371 -0.5266 -0.4108 -0.0858
12014TIP3    H157533   5.970   5.080  11.296 -0.4630  0.3969  0.5060
12014TIP3    H257534   6.055   4.966  11.348  0.7447  1.1037  0.1257
12015TIP3   OH257535   0.077   1.697   4.967 -0.8747 -0.2157 -0.9434
12015TIP3    H157536   0.139   1.763   4.937 -0.0853 -0.8077 -0.6426
12015TIP3    H257537   0.003   1.748   5.001 -0.1195  0.5349 -0.3718
12016TIP3   OH257538   6.072   1.108   3.898  0.1119  0.1165  0.0824
12016TIP3    H157539   6.092   1.100   3.805 -0.3516 -1.2923  0.0905
12016TIP3    H257540   5.990   1.157   3.901 -0.5406 -0.9396 -0.3146
12017TIP3   OH257541   5.954   5.647   1.491 -0.4990 -0.1759 -0.2940
12017TIP3    H157542   5.984   5.637   1.401 -0.5214 -1.3124 -0.1926
12017TIP3    H257543   5.862   5.674   1.483 -0.0988  1.1431 -0.6004
12018TIP3   OH257544   1.968   0.529   1.360 -0.5422 -0.0118 -0.0932
12018TIP3    H157545   2.051   0.577   1.356 -0.7858  0.4898  0.7672
12018TIP3    H257546   1.901   0.596   1.351 -0.8893 -0.1684  1.1786
12019TIP3   OH257547   4.086   4.664  15.220 -0.3920  0.2018  0.4014
12019TIP3    H157548   4.083   4.684  15.313  2.2304  0.0452  0.5770
12019TIP3    H257549   4.120   4.744  15.179 -1.8384  0.3937 -0.4959
12020TIP3   OH257550   3.209   4.292  14.581  0.3128 -0.4066 -0.2292
12020TIP3    H157551   3.281   4.261  14.528 -0.0144  0.3776 -1.1761
12020TIP3    H257552   3.250   4.336  14.656  0.7695 -2.5130  0.8187
12021TIP3   OH257553   3.867   0.623   6.753 -0.1574 -0.6678 -0.2408
12021TIP3    H157554   3.801   0.581   6.807 -0.2241  0.5252  0.6388
12021TIP3    H257555   3.820   0.646   6.672 -0.8984  0.3274  0.4420
12022TIP3   OH257556   3.610   1.709  16.773 -0.3934  0.0558 -1.0260
12022TIP3    H157557   3.627   1.623  16.735  2.9242  0.1243  0.0007
12022TIP3    H257558   3.675   1.718  16.843 -2.2905  2.3903  0.6193
12023TIP3   OH257559   2.884   5.214  15.351  0.2910  0.4258  0.5517
12023TIP3    H157560   2.940   5.243  15.279  1.1779 -1.4903  0.3897
12023TIP3    H257561   2.824   5.151  15.311 -1.1433  1.4466  0.9933
12024TIP3   OH257562   2.547   4.749  12.254 -0.3683  0.0418  0.0030
12024TIP3    H157563   2.600   4.739  12.333 -1.1168 -0.4206  0.4532
12024TIP3    H257564   2.611   4.754  12.183  0.3306  1.0497  0.6822
12025TIP3   OH257565   3.621   1.205   2.976  0.0134  0.0417  0.4216
12025TIP3    H157566   3.678   1.259   3.031 -1.5922  1.8368  0.4431
12025TIP3    H257567   3.659   1.211   2.888 -0.8032  2.3319  0.1647
12026TIP3   OH257568   3.867   2.894  14.321 -0.4053 -0.0704  0.6108
12026TIP3    H157569   3.781   2.919  14.289 -0.1280 -0.6848 -0.6755
12026TIP3    H257570   3.856   2.803  14.351  0.1087 -0.6930 -0.9740
12027TIP3   OH257571   0.080   1.440  12.677 -0.3419 -0.5582  0.2024
12027TIP3    H157572   0.054   1.411  12.764 -1.9385 -1.1236 -0.4119
12027TIP3    H257573   0.014   1.401  12.619 -1.7306  2.9757 -0.8745
12028TIP3   OH257574   0.361   1.246   3.506 -0.1784 -0.2764  0.3370
12028TIP3    H157575   0.419   1.310   3.545 -1.2575 -0.8558  3.1212
12028TIP3    H257576   0.352   1.273   3.415  1.8543  1.6544  0.6528
12029TIP3   OH257577   6.079   6.020   2.580  0.0682 -0.2196  0.4242
12029TIP3    H157578   6.030   6.029   2.498 -0.0370 -0.0665  0.5015
12029TIP3    H257579   6.075   6.108   2.619  1.0617 -0.0052  0.0642
12030TIP3   OH257580   0.700   1.072   2.716 -0.4702 -0.0590 -0.4765
12030TIP3    H157581   0.741   1.052   2.800  0.2551 -0.5007 -0.9153
12030TIP3    H257582   0.773   1.103   2.661 -0.7774 -0.5538 -1.1819
12031TIP3   OH257583   6.475   3.959   5.792  0.5338  0.4449  0.1406
12031TIP3    H157584   6.481   3.908   5.712  0.8421  1.3376 -0.4252
12031TIP3    H257585   6.432   3.902   5.855 -1.1823  0.2854 -1.1183
12032TIP3   OH257586   3.133   0.540  14.938 -0.6503 -0.3537 -0.1883
12032TIP3    H157587   3.042   0.510  14.944 -0.1999 -1.5583  2.2302
12032TIP3    H257588   3.149   0.583  15.022  0.2973  2.2768 -1.6100
12033TIP3   OH257589   0.026   0.087   5.997  0.4146 -0.2226  0.0097
12033TIP3    H157590   0.037   0.033   6.075  0.5936 -0.7988 -0.4088
12033TIP3    H257591   0.042   0.176   6.027  0.2957 -0.4204  0.6710
12034TIP3   OH257592   0.763   5.973  10.734 -0.1553  0.0708  0.2278
12034TIP3    H157593   0.671   5.983  10.709 -0.0008 -0.1089 -0.4285
12034TIP3    H257594   0.787   6.058  10.771 -0.5639  0.1408  0.3312
12035TIP3   OH257595   5.256   4.038   5.757  0.4560  0.0051 -0.1548
12035TIP3    H157596   5.343   4.068   5.734  0.8150 -0.3112  0.7437
12035TIP3    H257597   5.240   4.074   5.844 -0.0067 -0.5506 -0.0010
12036TIP3   OH257598   0.247   2.256  11.470 -0.7055 -0.5786  0.0516
12036TIP3    H157599   0.290   2.338  11.494 -2.8772  0.9095 -0.8793
12036TIP3    H257600   0.262   2.199  11.546  0.2832  0.8739  1.0121
12037TIP3   OH257601   6.225   5.584   6.349 -0.0923 -0.5441  0.0875
12037TIP3    H157602   6.185   5.656   6.300  0.1659  0.8412  1.7817
12037TIP3    H257603   6.282   5.541   6.286  1.4757  2.1557 -0.5238
12038TIP3   OH257604   2.050   0.780   3.172 -0.9429  0.5744  0.1944
12038TIP3    H157605   2.094   0.849   3.222 -0.0999 -1.0392  1.8321
12038TIP3    H257606   2.115   0.754   3.106 -0.2333 -0.3408  1.2210
12039TIP3   OH257607   0.913   4.086  15.361  0.0433  0.3552 -0.0800
12039TIP3    H157608   0.918   3.990  15.352 -1.2097  0.3888 -1.7511
12039TIP3    H257609   0.897   4.100  15.454 -1.7647 -1.2145 -0.0824
12040TIP3   OH257610   2.978   2.306   3.956 -0.5993  0.4589 -0.0251
12040TIP3    H157611   3.014   2.238   3.900  0.5416 -1.6988  3.0227
12040TIP3    H257612   3.028   2.385   3.934  0.0432 -0.3666 -1.6909
12041TIP3   OH257613   2.040   6.831   1.093 -0.2003 -0.5281 -0.6791
12041TIP3    H157614   2.059   6.738   1.087  1.0234 -0.3614  0.3574
12041TIP3    H257615   2.110   6.868   1.146 -0.6848  0.9876 -1.0171
12042TIP3   OH257616   3.890   4.314  16.724  0.9322 -0.2766  0.3747
12042TIP3    H157617   3.861   4.387  16.779 -1.0624 -1.4758  0.9997
12042TIP3    H257618   3.962   4.273  16.773  0.6118 -0.0375  1.0424
12043TIP3   OH257619   0.720   2.852  13.012 -0.2430 -0.3830  0.3440
12043TIP3    H157620   0.712   2.945  13.035 -1.7637 -0.7607  1.5152
12043TIP3    H257621   0.685   2.805  13.087 -1.6203 -1.8251 -1.1058
12044TIP3   OH257622   1.882   6.740  15.452  0.2820  0.0913  0.3640
12044TIP3    H157623   1.901   6.737  15.546  0.5955 -0.3507  0.2904
12044TIP3    H257624   1.969   6.735  15.411  0.1318  0.0952  0.0467
12045TIP3   OH257625   1.396   2.421  14.320  0.2549  0.1444 -0.5065
12045TIP3    H157626   1.457   2.444  14.250  0.5320  0.8466 -0.0458
12045TIP3    H257627   1.429   2.339  14.356  0.9460  0.5256 -0.2523
12046TIP3   OH257628   6.812   0.787  12.570  0.0849 -0.4649 -0.2531
12046TIP3    H157629   6.905   0.776  12.552  0.2461 -2.9194  1.5411
12046TIP3    H257630   6.809   0.831  12.655 -0.5082  2.1335 -1.5313
12047TIP3   OH257631   1.366   1.725  16.765 -0.5260 -0.2465  0.0851
12047TIP3    H157632   1.422   1.780  16.820 -1.7661  2.1454 -0.8877
12047TIP3    H257633   1.427   1.676  16.710  0.6519 -0.6503  1.6708
12048TIP3   OH257634   1.393   5.555  14.383  0.2632 -0.1799 -0.0627
12048TIP3    H157635   1.467   5.612  14.363  1.4761 -1.1450  1.4227
12048TIP3    H257636   1.432   5.481  14.430 -1.3484 -1.8634 -1.2286
12049TIP3   OH257637   6.007   6.811   0.710  0.2761  0.3703 -0.7682
12049TIP3    H157638   5.951   6.733   0.703 -2.5858  1.9984  1.3948
12049TIP3    H257639   6.086   6.780   0.754 -1.3521 -1.1844  1.3109
12050TIP3   OH257640   1.423   1.922   6.582  0.2681  0.2788 -0.6922
12050TIP3    H157641   1.466   1.878   6.656  1.2774 -0.1730 -1.5300
12050TIP3    H257642   1.332   1.891   6.586  0.3531  0.1215  0.2541
12051TIP3   OH257643   2.725   5.879  14.710  0.3332 -0.2862 -0.0252
12051TIP3    H157644   2.737   5.974  14.713  1.6361 -0.4569  0.7223
12051TIP3    H257645   2.739   5.850  14.800  0.8494 -1.2877 -0.4163
12052TIP3   OH257646   0.862   0.790  10.455 -0.1584  0.2411  0.5074
12052TIP3    H157647   0.902   0.709  10.423  1.5627  1.7175 -1.3684
12052TIP3    H257648   0.768   0.775  10.448  0.0138 -0.1943 -4.1540
12053TIP3   OH257649   2.030   5.397  11.397 -0.6052 -0.0598 -0.2820
12053TIP3    H157650   2.019   5.481  11.353  0.6167  0.3290  0.1151
12053TIP3    H257651   2.054   5.336  11.327  0.7504  0.4291 -0.2755
12054TIP3   OH257652   3.940   3.011   5.926 -0.6738  0.4042 -0.1156
12054TIP3    H157653   3.959   2.918   5.913  1.2549  0.5607  1.1881
12054TIP3    H257654   3.852   3.013   5.963 -1.2513 -0.7904 -1.3600
12055TIP3   OH257655   0.930   2.608   4.223  0.1877 -0.1842  0.1827
12055TIP3    H157656   0.865   2.600   4.293  0.6333 -2.8898  0.4047
12055TIP3    H257657   1.015   2.599   4.268  0.6381  0.8868 -0.4060
12056TIP3   OH257658   1.096   4.069   4.140 -0.4475 -0.1199 -0.4971
12056TIP3    H157659   1.099   4.083   4.045  0.0280  0.3403 -0.4152
12056TIP3    H257660   1.093   4.157   4.178  1.2645 -0.2356 -0.0310
12057TIP3   OH257661   5.496   5.818   0.635 -0.5461  0.7165  0.3485
12057TIP3    H157662   5.570   5.777   0.589 -0.6387  0.7032  0.2124
12057TIP3    H257663   5.441   5.744   0.662  0.6154  0.5161  2.4469
12058TIP3   OH257664   5.076   4.870   2.009 -0.3419  0.1105 -0.8595
12058TIP3    H157665   5.093   4.823   1.928 -0.7253  0.5892 -1.2253
12058TIP3    H257666   4.997   4.922   1.991  0.0204  0.8276 -0.4440
12059TIP3   OH257667   2.471   1.823  11.786 -0.2443 -0.4469  0.6830
12059TIP3    H157668   2.446   1.909  11.751 -0.3267 -0.7089  0.0791
12059TIP3    H257669   2.509   1.777  11.711 -0.9942 -1.2516  0.7917
12060TIP3   OH257670   3.894   1.167   1.695 -0.0894  0.2407 -0.1370
12060TIP3    H157671   3.839   1.144   1.620  1.8774 -3.1674 -0.7401
12060TIP3    H257672   3.939   1.247   1.669 -0.7838  0.1199 -1.8158
12061TIP3   OH257673   4.635   3.200   2.486 -0.5277 -0.3679 -0.4017
12061TIP3    H157674   4.683   3.220   2.566  0.2720 -0.1541 -0.9232
12061TIP3    H257675   4.553   3.161   2.516 -0.8588  1.0212  0.5487
12062TIP3   OH257676   2.686   1.893  12.106 -0.1056  0.0638  0.1581
12062TIP3    H157677   2.594   1.865  12.102 -0.3606  0.7360  0.9254
12062TIP3    H257678   2.720   1.878  12.018 -0.1078 -2.9931  0.5785
12063TIP3   OH257679   6.506   0.908  15.729  0.0472  0.0955  0.1940
12063TIP3    H157680   6.526   0.999  15.749  0.2356  0.0336  0.2857
12063TIP3    H257681   6.434   0.912  15.666 -0.4095  0.2962  0.7179
12064TIP3   OH257682   6.211   6.646   2.601 -0.5408 -0.1450 -0.4119
12064TIP3    H157683   6.221   6.741   2.598 -0.3220 -0.1492  0.0391
12064TIP3    H257684   6.135   6.632   2.659 -1.3364 -0.2094 -1.4431
12065TIP3   OH257685   4.293   4.079   1.241 -0.1271 -0.0487  0.0496
12065TIP3    H157686   4.237   4.039   1.174  0.0004 -0.3262  0.1043
12065TIP3    H257687   4.236   4.088   1.317 -0.6493  1.5060 -0.4954
12066TIP3   OH257688   0.404   2.395   5.580  0.0804 -0.0346  0.3149
12066TIP3    H157689   0.464   2.416   5.508  1.1690 -1.5102  0.7305
12066TIP3    H257690   0.438   2.445   5.655 -0.6757  1.0061 -0.0155
12067TIP3   OH257691   3.593   4.818  17.020 -0.3447 -0.4799 -0.4096
12067TIP3    H157692   3.534   4.816  17.095  0.1314 -0.2345 -0.0171
12067TIP3    H257693   3.584   4.732  16.979 -1.3017 -0.2879 -0.6230
12068TIP3   OH257694   5.735   1.391   0.986  0.5392 -0.2299 -0.2435
12068TIP3    H157695   5.715   1.467   1.041  0.0885 -0.4466 -0.0988
12068TIP3    H257696   5.757   1.428   0.901 -1.0621  0.0249 -0.5889
12069TIP3   OH257697   1.332   0.272   6.610  0.1793  0.0135 -0.1216
12069TIP3    H157698   1.347   0.248   6.701 -0.5677 -0.2738 -0.0673
12069TIP3    H257699   1.341   0.368   6.609  1.8443 -0.1175 -0.0836
12070TIP3   OH257700   2.628   5.256  15.922 -0.2200 -0.5086 -0.2596
12070TIP3    H157701   2.592   5.294  16.002 -1.6975  0.4245 -1.3374
12070TIP3    H257702   2.707   5.307  15.905 -0.0271 -0.5554  0.4386
12071TIP3   OH257703   0.068   1.383  14.018 -0.6723 -0.3766 -0.0524
12071TIP3    H157704   0.039   1.425  13.937 -0.3411  0.9342  0.4821
12071TIP3    H257705   0.144   1.434  14.045  0.2750 -1.8718  0.1826
12072TIP3   OH257706   3.341   0.524  16.427  0.0868 -0.1725  0.4763
12072TIP3    H157707   3.436   0.535  16.435 -0.1430  0.9288  2.2709
12072TIP3    H257708   3.330   0.459  16.358  2.1114  0.4474 -0.4990
12073TIP3   OH257709   2.830   3.962  12.647  0.3236  0.5019  0.3883
12073TIP3    H157710   2.761   3.958  12.581  0.4752  0.6581  0.2206
12073TIP3    H257711   2.852   3.870  12.664  1.2799  0.4811 -0.8282
12074TIP3   OH257712   3.555   2.756  13.573 -0.2921 -0.3033  0.3065
12074TIP3    H157713   3.614   2.772  13.647 -0.3445  0.8815  0.1212
12074TIP3    H257714   3.612   2.728  13.502 -0.0460  0.0217  0.3723
12075TIP3   OH257715   2.381   5.531  11.997 -0.0004  0.6993  0.4945
12075TIP3    H157716   2.327   5.546  11.919  2.7867 -0.0256 -1.7090
12075TIP3    H257717   2.453   5.476  11.967  2.0424  1.6410  3.2405
12076TIP3   OH257718   6.759   5.548  15.868 -0.1011 -0.0600 -0.2917
12076TIP3    H157719   6.781   5.611  15.800 -1.9798  1.4179  0.3810
12076TIP3    H257720   6.705   5.483  15.824  0.0755 -0.0234 -0.5619
12077TIP3   OH257721   2.915   2.975  15.946 -0.2642  0.1782  0.3580
12077TIP3    H157722   2.871   2.968  16.031 -0.7284 -0.5384  0.0776
12077TIP3    H257723   2.853   3.022  15.891  1.0399  2.8910  1.0359
12078TIP3   OH257724   4.517   3.358  13.508  0.2881  0.0717 -0.4880
12078TIP3    H157725   4.484   3.428  13.452 -0.7191 -0.1689 -0.2050
12078TIP3    H257726   4.478   3.278  13.472  0.2334 -0.1683  0.0980
12079TIP3   OH257727   2.221   6.155  15.406  0.7018  0.2643  0.1215
12079TIP3    H157728   2.181   6.223  15.461  0.3715 -0.0861  0.3197
12079TIP3    H257729   2.280   6.203  15.348  1.3918  0.5956  1.0799
12080TIP3   OH257730   3.651   5.390   6.405 -0.2165  0.3954 -0.0006
12080TIP3    H157731   3.579   5.334   6.436  0.4732 -0.0336  0.8826
12080TIP3    H257732   3.615   5.436   6.329 -1.5854  0.5746  0.7279
12081TIP3   OH257733   0.927   5.372   5.884  0.0600  0.5880  0.1136
12081TIP3    H157734   0.836   5.360   5.911  0.2564 -2.8718 -0.3179
12081TIP3    H257735   0.978   5.349   5.961  0.5619  0.4654 -0.2486
12082TIP3   OH257736   5.198   0.105   2.120 -0.2847 -0.1626 -0.7269
12082TIP3    H157737   5.243   0.188   2.139 -2.0914  0.4313  1.2453
12082TIP3    H257738   5.107   0.130   2.103 -0.7812 -1.7187 -0.4865
12083TIP3   OH257739   1.987   1.986  13.348  0.0730  0.3451  0.0046
12083TIP3    H157740   1.927   2.054  13.316 -0.5844 -0.5510 -0.7218
12083TIP3    H257741   1.929   1.919  13.384  0.5089 -1.1752 -1.9532
12084TIP3   OH257742   2.342   1.502  15.313  0.0195  0.3344  0.2373
12084TIP3    H157743   2.266   1.446  15.327  0.8536 -0.7345  0.7136
12084TIP3    H257744   2.347   1.556  15.392  0.2128 -0.1799  0.5853
12085TIP3   OH257745   4.168   3.069  17.195  0.5432  0.5260  0.2118
12085TIP3    H157746   4.228   3.118  17.139 -1.1267  2.5631  0.0835
12085TIP3    H257747   4.153   3.127  17.270  0.1293 -0.7287  1.1325
12086TIP3   OH257748   0.166   2.668  10.970 -0.3928  0.4115 -0.0766
12086TIP3    H157749   0.183   2.739  10.908  2.6838  0.1845  0.3362
12086TIP3    H257750   0.116   2.603  10.920 -1.4516  1.9415 -1.0655
12087TIP3   OH257751   4.625   4.767  15.828 -0.4323 -0.1243 -0.2269
12087TIP3    H157752   4.594   4.704  15.893  0.2707 -0.2394  0.0084
12087TIP3    H257753   4.555   4.832  15.822 -0.8970 -0.6039 -0.0249
12088TIP3   OH257754   5.511   6.301   3.557  0.2620 -0.0149  0.1247
12088TIP3    H157755   5.540   6.283   3.468  0.5976 -0.7232  0.3661
12088TIP3    H257756   5.415   6.298   3.553  0.1943  1.7304 -0.5527
12089TIP3   OH257757   4.446   6.234   1.070 -0.6271 -0.1561  0.4037
12089TIP3    H157758   4.358   6.271   1.079 -0.0968  0.7827  2.3872
12089TIP3    H257759   4.499   6.307   1.037 -0.5418 -0.6806 -0.6593
12090TIP3   OH257760   2.528   0.685  13.593  0.2955  0.3767  0.5635
12090TIP3    H157761   2.436   0.660  13.603  0.2768  0.7180  1.3142
12090TIP3    H257762   2.570   0.654  13.674  0.7283  0.7161  0.4704
12091TIP3   OH257763   6.536   4.056  13.173 -0.2091 -0.0877 -0.5419
12091TIP3    H157764   6.492   4.103  13.244 -1.0360 -2.3049  0.5225
12091TIP3    H257765   6.482   4.073  13.096 -1.4673 -0.6675  0.1915
12092TIP3   OH257766   4.452   5.767  13.379  0.2915 -0.5225 -0.1887
12092TIP3    H157767   4.535   5.744  13.336  0.3940  1.5779 -1.2089
12092TIP3    H257768   4.454   5.862  13.387 -0.7795 -0.6513  2.4388
12093TIP3   OH257769   0.151   3.605   5.107 -0.2404 -0.0720 -0.0607
12093TIP3    H157770   0.150   3.636   5.017  1.1028 -0.9926 -0.4370
12093TIP3    H257771   0.062   3.574   5.124 -0.3898 -0.2972 -1.2276
12094TIP3   OH257772   6.432   5.013   3.626  0.0824  0.0647  0.4898
12094TIP3    H157773   6.340   4.987   3.634 -0.3138  1.6725  1.5258
12094TIP3    H257774   6.452   5.058   3.707  1.6432  0.2480  0.0404
12095TIP3   OH257775   3.888   6.614   3.241 -0.0744  0.3127  0.1618
12095TIP3    H157776   3.852   6.620   3.153 -1.5849 -3.9412  0.2598
12095TIP3    H257777   3.981   6.595   3.227 -0.3030 -0.3354 -0.5348
12096TIP3   OH257778   6.138   1.290  12.230  0.3125 -0.7300  0.1154
12096TIP3    H157779   6.110   1.290  12.138  0.0438 -1.2857  0.1960
12096TIP3    H257780   6.078   1.230  12.274  0.3124 -0.3193  0.6975
12097TIP3   OH257781   4.155   4.165   4.199 -0.2216  0.0065 -0.2023
12097TIP3    H157782   4.086   4.100   4.211 -1.4910  1.5128  1.3387
12097TIP3    H257783   4.235   4.114   4.186 -1.4292 -1.8093 -0.8159
12098TIP3   OH257784   2.580   6.662  15.922 -0.0515  0.2921  0.2356
12098TIP3    H157785   2.567   6.611  15.842 -0.1525 -0.5393  0.7661
12098TIP3    H257786   2.672   6.648  15.945  0.2467  1.3391 -0.2674
12099TIP3   OH257787   6.559   1.696  10.711  0.0737  0.0170 -1.1288
12099TIP3    H157788   6.510   1.641  10.650 -0.0968 -0.6889 -0.3685
12099TIP3    H257789   6.645   1.655  10.717  0.2361  0.3391 -1.2303
12100TIP3   OH257790   4.408   3.923   2.820  0.3102  0.7936 -0.2508
12100TIP3    H157791   4.323   3.886   2.793 -0.5124  1.1488  1.6410
12100TIP3    H257792   4.436   3.976   2.746 -1.0565  0.5456 -0.9914
12101TIP3   OH257793   4.431   2.259   2.863  0.4662 -0.2244 -0.0742
12101TIP3    H157794   4.446   2.292   2.952 -0.4954 -0.0604  0.0294
12101TIP3    H257795   4.507   2.203   2.846  0.7201 -0.1632  0.8003
12102TIP3   OH257796   2.250   0.645  14.336 -0.9683  0.6902  0.3677
12102TIP3    H157797   2.168   0.673  14.377 -1.8570 -0.5155 -0.4761
12102TIP3    H257798   2.242   0.674  14.245 -0.1806  1.0920  0.4237
12103TIP3   OH257799   0.921   1.063   4.880  0.3826 -0.2495  0.3298
12103TIP3    H157800   0.884   0.976   4.886  0.3274 -0.1291  2.7849
12103TIP3    H257801   0.853   1.121   4.915  0.2632  0.8732 -1.6034
12104TIP3   OH257802   3.696   0.387  11.981 -0.4172 -0.0663  0.1387
12104TIP3    H157803   3.747   0.306  11.985  1.4845  0.9915 -1.1013
12104TIP3    H257804   3.612   0.361  11.944  1.1026 -1.1590 -2.8781
12105TIP3   OH257805   1.908   1.417  13.121 -0.4494  0.0852 -0.4612
12105TIP3    H157806   1.883   1.342  13.175  0.9018 -0.6522 -0.8166
12105TIP3    H257807   1.990   1.447  13.159 -1.7737  2.5039  0.7427
12106TIP3   OH257808   3.609   2.072   4.863  0.3959  0.1229  0.4123
12106TIP3    H157809   3.687   2.026   4.831  0.5300 -0.1426  1.1000
12106TIP3    H257810   3.643   2.151   4.904  0.2636  0.2375  0.3012
12107TIP3   OH257811   6.269   4.841  11.807  0.2387  0.7854 -0.5220
12107TIP3    H157812   6.270   4.854  11.902 -1.5705  2.2084 -0.6454
12107TIP3    H257813   6.207   4.906  11.774  1.7239  1.1568 -2.8419
12108TIP3   OH257814   5.673   6.489   5.934  0.0859  0.2703 -0.2805
12108TIP3    H157815   5.738   6.439   5.983  0.0015  0.5952  0.1670
12108TIP3    H257816   5.655   6.435   5.857  1.8258  0.7492 -1.0787
12109TIP3   OH257817   2.724   2.448   2.599  0.4538 -0.2639  0.7905
12109TIP3    H157818   2.648   2.436   2.656 -1.6757  3.0482 -1.0151
12109TIP3    H257819   2.784   2.502   2.649 -0.9659  1.8025  0.3847
12110TIP3   OH257820   1.281   4.584   0.038 -0.0312  0.0147  0.6298
12110TIP3    H157821   1.209   4.537  -0.005  0.5769  0.4594 -0.9142
12110TIP3    H257822   1.265   4.676   0.018  0.9267  0.1250  0.3233
12111TIP3   OH257823   2.536   6.284   1.688  0.4258  0.0703 -0.5714
12111TIP3    H157824   2.499   6.248   1.608 -0.7112  0.9298 -0.4558
12111TIP3    H257825   2.625   6.311   1.664  0.5522 -0.8691 -1.1899
12112TIP3   OH257826   0.660   4.616   4.444  0.1730  0.4604  0.0529
12112TIP3    H157827   0.699   4.530   4.430  0.1643  0.5861 -0.7707
12112TIP3    H257828   0.705   4.651   4.521 -0.4079 -0.6164  0.9074
12113TIP3   OH257829   1.314   6.524  16.454 -0.1088 -0.3699  0.8219
12113TIP3    H157830   1.398   6.484  16.476 -1.1214 -3.3118 -0.2135
12113TIP3    H257831   1.313   6.526  16.358 -1.1831 -0.3191  0.8227
12114TIP3   OH257832   3.756   0.901   0.625  0.0315 -0.1869  0.0790
12114TIP3    H157833   3.826   0.908   0.689 -0.2483  0.0852  0.3609
12114TIP3    H257834   3.798   0.919   0.541  0.0046  1.6039  0.4058
12115TIP3   OH257835   1.661   0.559   3.552  0.3456 -0.2275 -0.7009
12115TIP3    H157836   1.601   0.634   3.553 -2.1242 -2.0681 -0.2767
12115TIP3    H257837   1.748   0.598   3.557 -0.8641  2.5621  1.1643
12116TIP3   OH257838   5.102   6.633   1.155  0.6246  0.2308  0.5168
12116TIP3    H157839   5.196   6.639   1.172  0.7977 -0.0288 -0.3394
12116TIP3    H257840   5.093   6.641   1.060 -0.3604  1.9306  0.7196
12117TIP3   OH257841   2.522   4.110  15.540  0.1922  0.3966  0.3989
12117TIP3    H157842   2.442   4.058  15.539 -0.5233  1.4815  0.1293
12117TIP3    H257843   2.516   4.164  15.462  1.9627 -0.6300 -0.5084
12118TIP3   OH257844   4.489   1.231  11.450  0.4036  1.0532 -0.1559
12118TIP3    H157845   4.438   1.151  11.440  1.8360 -0.3088  2.3658
12118TIP3    H257846   4.432   1.289  11.501  0.9316 -0.1244  1.8876
12119TIP3   OH257847   2.954   5.420  14.099 -0.2939  0.2380  0.3787
12119TIP3    H157848   2.887   5.442  14.164 -0.5008  0.3340  0.1344
12119TIP3    H257849   3.016   5.493  14.103  0.1604 -0.1785  1.0877
12120TIP3   OH257850   6.339   6.413  14.577  0.0641 -0.0363  0.4751
12120TIP3    H157851   6.426   6.374  14.563 -0.0393 -0.0370 -0.1619
12120TIP3    H257852   6.357   6.506  14.586 -0.0138  0.1518 -1.1270
12121TIP3   OH257853   1.297   3.675   5.005  0.3128  0.0132  0.1808
12121TIP3    H157854   1.381   3.687   5.050 -0.5081 -0.5780  1.9764
12121TIP3    H257855   1.276   3.582   5.016  0.3130 -0.2680 -1.9343
12122TIP3   OH257856   0.101   6.450   0.241 -0.2008 -0.2032  0.1358
12122TIP3    H157857   0.038   6.521   0.256  0.6245  0.6204 -0.1647
12122TIP3    H257858   0.125   6.460   0.149  0.4640 -0.4281  0.2857
12123TIP3   OH257859   6.557   2.865   3.467 -0.2439 -0.3396 -0.1299
12123TIP3    H157860   6.495   2.880   3.539  1.2252  0.9612  0.9201
12123TIP3    H257861   6.612   2.793   3.498 -0.5397 -0.7972 -0.6313
12124TIP3   OH257862   2.233   5.091   4.882  0.6035 -0.0913 -0.0251
12124TIP3    H157863   2.225   5.168   4.826 -0.4559 -0.0067  0.2382
12124TIP3    H257864   2.283   5.028   4.829  0.1044  0.1939 -0.8409
12125TIP3   OH257865   6.071   3.160   1.230 -0.0756 -0.6176 -0.2896
12125TIP3    H157866   5.998   3.203   1.185 -0.1691  0.3043  0.6865
12125TIP3    H257867   6.149   3.191   1.185 -0.2238 -0.7731 -0.6623
12126TIP3   OH257868   5.639   1.832  12.071 -0.0435 -0.0266  0.4205
12126TIP3    H157869   5.560   1.868  12.031 -0.1870  0.4442  1.0985
12126TIP3    H257870   5.711   1.877  12.027 -0.1052 -1.0517 -0.7770
12127TIP3   OH257871   4.871   2.241   1.916  0.1642  0.2988  0.1815
12127TIP3    H157872   4.821   2.301   1.970  2.4997  0.1804  2.7146
12127TIP3    H257873   4.895   2.292   1.839  1.6382  2.5704  2.0096
12128TIP3   OH257874   0.310   3.793  12.198 -0.4536 -0.4655 -0.0113
12128TIP3    H157875   0.355   3.856  12.254 -0.1501  0.2078 -0.9956
12128TIP3    H257876   0.380   3.748  12.151 -0.6762 -1.4034  0.5143
12129TIP3   OH257877   2.108   4.220  16.164 -0.0547 -0.0608 -0.5213
12129TIP3    H157878   2.106   4.311  16.136  1.0021 -0.2007 -1.0983
12129TIP3    H257879   2.196   4.190  16.142  0.3699 -0.6048  1.6634
12130TIP3   OH257880   5.133   0.755  14.646  0.4794  0.8386 -0.5665
12130TIP3    H157881   5.191   0.828  14.665  0.5802  0.4756  0.6064
12130TIP3    H257882   5.114   0.716  14.732 -0.2655  0.0210 -1.0793
12131TIP3   OH257883   2.070   4.892   5.021  0.2056  0.0283 -0.6388
12131TIP3    H157884   2.135   4.946   4.976 -0.6897  0.7505 -1.0897
12131TIP3    H257885   2.120   4.816   5.053  1.0852  0.0988 -1.7910
12132TIP3   OH257886   1.375   2.361  12.389  0.0236 -0.0807 -0.2389
12132TIP3    H157887   1.426   2.382  12.311  0.6350  1.0885  0.4408
12132TIP3    H257888   1.431   2.389  12.462 -1.6931  1.5516  0.5289
12133TIP3   OH257889   4.799   3.310  16.460 -0.5006 -1.1987 -0.4696
12133TIP3    H157890   4.814   3.222  16.426  0.3985 -2.3455  2.5753
12133TIP3    H257891   4.712   3.306  16.500 -1.3175 -0.0350 -2.0001
12134TIP3   OH257892   6.572   5.812   2.078 -0.7363 -0.5533  0.2098
12134TIP3    H157893   6.667   5.802   2.079 -0.6278 -0.5847 -2.7595
12134TIP3    H257894   6.538   5.726   2.053 -1.5316 -0.4018  0.7027
12135TIP3   OH257895   5.236   2.701   3.028  0.0715  0.0216 -0.0338
12135TIP3    H157896   5.165   2.665   3.081  0.0527  2.6144  1.9421
12135TIP3    H257897   5.307   2.716   3.090  1.2722  0.2180 -1.3956
12136TIP3   OH257898   4.428   3.790  10.583  0.3612 -0.7305  0.7905
12136TIP3    H157899   4.499   3.830  10.533 -0.4388  0.9260  0.9303
12136TIP3    H257900   4.417   3.703  10.542  0.7286 -0.0134 -0.9426
12137TIP3   OH257901   2.604   0.243  15.530 -0.3497 -0.2556 -0.0183
12137TIP3    H157902   2.630   0.334  15.516 -1.8648  0.0299 -1.2651
12137TIP3    H257903   2.676   0.205  15.580  1.2973  1.0633 -1.2654
12138TIP3   OH257904   0.821   6.168   0.709 -0.6698 -0.6361 -0.2474
12138TIP3    H157905   0.736   6.160   0.664 -0.6074 -0.6143 -0.3689
12138TIP3    H257906   0.850   6.256   0.690  0.1168 -1.1462 -1.5101
12139TIP3   OH257907   3.782   0.123   6.219  0.0307 -0.6250  0.1548
12139TIP3    H157908   3.801   0.170   6.138  1.9685  1.2173  1.5302
12139TIP3    H257909   3.829   0.040   6.210 -0.3784 -0.7593 -0.8733
12140TIP3   OH257910   0.751   2.733  15.585  0.3185 -0.1355 -0.0044
12140TIP3    H157911   0.791   2.661  15.537 -0.9935 -1.0830  0.2738
12140TIP3    H257912   0.678   2.693  15.633  0.5575  1.0752  1.4641
12141TIP3   OH257913   1.882   0.685   5.847 -0.6366 -0.4966  0.0585
12141TIP3    H157914   1.925   0.770   5.852  0.7139 -1.1668  0.1651
12141TIP3    H257915   1.848   0.671   5.936  0.2333 -0.6064  0.3889
12142TIP3   OH257916   1.093   4.755  12.419 -0.1276  0.2713 -0.4157
12142TIP3    H157917   1.157   4.739  12.488 -1.4227 -1.8250  0.4312
12142TIP3    H257918   1.070   4.847  12.426 -0.8636 -0.0508  2.6315
12143TIP3   OH257919   6.642   1.357  14.620  0.2714 -0.4575 -0.5238
12143TIP3    H157920   6.690   1.274  14.620 -0.6137 -0.9788 -0.9630
12143TIP3    H257921   6.568   1.342  14.561 -0.2434  0.4463 -0.1277
12144TIP3   OH257922   0.385   5.070   5.729  0.2813 -0.0569  0.1401
12144TIP3    H157923   0.372   5.163   5.749 -0.5990  0.2198 -1.5230
12144TIP3    H257924   0.404   5.029   5.813 -0.0568  1.5066  1.0062
12145TIP3   OH257925   2.200   4.617  12.989 -0.1242 -0.1786  0.1343
12145TIP3    H157926   2.172   4.591  12.901  0.3181 -2.4344  0.5955
12145TIP3    H257927   2.267   4.683  12.974 -0.6726  0.1103 -1.1996
12146TIP3   OH257928   0.216   2.859   3.944  0.6975 -0.6457 -0.5469
12146TIP3    H157929   0.282   2.889   4.006  1.1501 -1.2163 -0.7331
12146TIP3    H257930   0.182   2.778   3.982 -0.4383  0.0206 -0.0913
12147TIP3   OH257931   3.854   1.083   3.220 -0.3706  0.5771 -0.4131
12147TIP3    H157932   3.861   1.003   3.273  0.9074 -0.1494 -1.5880
12147TIP3    H257933   3.918   1.142   3.259  1.2085 -0.2717 -1.5794
12148TIP3   OH257934   4.558   1.157   0.146 -0.3657  0.5454 -0.6559
12148TIP3    H157935   4.634   1.119   0.191  0.0149  1.3649 -0.5798
12148TIP3    H257936   4.518   1.083   0.100 -0.5208 -0.2245  0.6782
12149TIP3   OH257937   1.832   0.775   1.740 -0.3178 -0.6428  0.3690
12149TIP3    H157938   1.818   0.853   1.686  0.9237  0.5651  1.6947
12149TIP3    H257939   1.757   0.718   1.721 -0.8527  0.5273 -1.2100
12150TIP3   OH257940   0.958   5.797   5.622 -0.3805  0.3502 -0.3428
12150TIP3    H157941   0.890   5.823   5.560  0.0239  2.0247 -0.1219
12150TIP3    H257942   1.013   5.874   5.632  0.0530 -0.1436  1.4646
12151TIP3   OH257943   4.645   2.497   0.597  0.2998  0.7390 -0.3770
12151TIP3    H157944   4.624   2.527   0.685  2.0170 -2.2470  1.2189
12151TIP3    H257945   4.741   2.489   0.596  0.1704 -4.3931 -0.4295
12152TIP3   OH257946   2.479   3.953  12.378 -0.8383  0.3085 -0.1365
12152TIP3    H157947   2.540   3.885  12.350 -1.9079 -0.4132 -0.7935
12152TIP3    H257948   2.525   3.998  12.450  0.9768  0.6527 -1.4483
12153TIP3   OH257949   1.811   4.960   5.285  0.3190  0.7674  0.0626
12153TIP3    H157950   1.834   5.010   5.207 -0.3020  1.6906  0.4541
12153TIP3    H257951   1.788   4.873   5.252  1.9138  0.5620 -0.5729
12154TIP3   OH257952   5.524   3.370   4.208  0.5907 -0.0086  0.1527
12154TIP3    H157953   5.504   3.463   4.196 -1.9027 -0.6320 -1.0883
12154TIP3    H257954   5.460   3.340   4.273  1.4926 -0.8449  0.6829
12155TIP3   OH257955   6.017   1.224  11.734  0.1881 -0.3360  0.3838
12155TIP3    H157956   5.946   1.162  11.719 -0.0181  0.2015 -0.9977
12155TIP3    H257957   6.077   1.212  11.660  0.0829  1.1665  0.0080
12156TIP3   OH257958   5.684   2.929   5.276  0.1525 -0.3550  0.7472
12156TIP3    H157959   5.712   2.911   5.365  0.5899  0.0243  0.6886
12156TIP3    H257960   5.602   2.979   5.286  0.6936  0.5092  0.9559
12157TIP3   OH257961   4.041   5.632   1.953  0.3715 -0.4065 -0.3736
12157TIP3    H157962   3.989   5.710   1.970  1.3996  0.4033 -0.7833
12157TIP3    H257963   4.046   5.588   2.038  0.2789  0.3033  0.0158
12158TIP3   OH257964   0.835   6.470  11.477 -0.0032 -0.2367 -0.2832
12158TIP3    H157965   0.818   6.386  11.436  0.2621 -0.1862 -0.5028
12158TIP3    H257966   0.793   6.534  11.419 -0.0914 -0.2093 -0.1884
12159TIP3   OH257967   6.441   6.146  11.898 -0.2596  0.2687  0.8372
12159TIP3    H157968   6.376   6.211  11.925 -0.4015 -0.0288  1.2210
12159TIP3    H257969   6.410   6.064  11.936 -0.7213 -0.2667 -0.6541
12160TIP3   OH257970   5.130   6.009   0.551  0.3952 -0.3796  0.1820
12160TIP3    H157971   5.141   6.004   0.456  3.0983  0.9418  0.3178
12160TIP3    H257972   5.082   6.090   0.566 -0.6977 -0.9729 -0.0738
12161TIP3   OH257973   0.599   1.427   1.686 -0.5023  0.4017  0.2628
12161TIP3    H157974   0.666   1.482   1.645 -0.5190 -0.0444 -0.3900
12161TIP3    H257975   0.646   1.372   1.748 -0.1914 -0.1625 -0.4516
12162TIP3   OH257976   3.685   3.321   0.892  0.5878  0.9308  0.1450
12162TIP3    H157977   3.687   3.243   0.837  1.6735  0.9214  0.1679
12162TIP3    H257978   3.611   3.372   0.860 -0.6076 -0.4352  0.6152
12163TIP3   OH257979   4.594   0.826  13.183 -0.3998  0.6367  0.2105
12163TIP3    H157980   4.539   0.902  13.199 -0.3672  0.6126  0.4334
12163TIP3    H257981   4.670   0.839  13.240  0.2630  1.1318 -0.7467
12164TIP3   OH257982   2.715   1.159   4.711 -0.0776 -0.3331 -0.0526
12164TIP3    H157983   2.713   1.224   4.641  0.1778 -1.1054 -0.7910
12164TIP3    H257984   2.639   1.180   4.766  1.2294  1.9825  1.0369
12165TIP3   OH257985   0.377   3.386   3.961 -0.5792 -0.5980 -0.3443
12165TIP3    H157986   0.460   3.339   3.949 -0.8408 -1.1154 -0.1768
12165TIP3    H257987   0.363   3.385   4.056 -0.8456 -0.6390 -0.3843
12166TIP3   OH257988   6.720   5.833   5.676  0.0247 -0.0275  0.0651
12166TIP3    H157989   6.664   5.887   5.732 -0.6328 -0.0211 -0.5928
12166TIP3    H257990   6.804   5.880   5.675 -0.2379  0.4596  0.3095
12167TIP3   OH257991   2.864   2.439   2.946  0.2145 -0.3176  0.4920
12167TIP3    H157992   2.931   2.378   2.915  1.4500  0.3789  1.6787
12167TIP3    H257993   2.797   2.383   2.985  0.7467 -0.9670  0.5008
12168TIP3   OH257994   0.477   5.374   4.380 -0.1414  0.2615  0.1836
12168TIP3    H157995   0.561   5.419   4.387  0.1397 -0.3153  0.6052
12168TIP3    H257996   0.412   5.445   4.373  0.4431  0.6978 -0.9743
12169TIP3   OH257997   3.695   4.329  15.733 -0.6706 -0.1839 -0.0710
12169TIP3    H157998   3.738   4.271  15.796 -1.6061  1.5282  2.3218
12169TIP3    H257999   3.603   4.303  15.736 -0.5850 -0.7143 -1.5197
12170TIP3   OH258000   1.307   0.093  13.902  0.4664  0.5660  0.3351
12170TIP3    H158001   1.272   0.168  13.949 -1.4029  0.5064 -0.8641
12170TIP3    H258002   1.351   0.131  13.826 -0.6848  0.4644 -0.3982
12171TIP3   OH258003   6.006   2.212  14.087 -0.0368 -0.1110  0.5530
12171TIP3    H158004   6.042   2.214  14.176  0.0562  0.9536  0.5002
12171TIP3    H258005   6.024   2.123  14.056  1.9469  0.1792  0.7643
12172TIP3   OH258006   3.916   2.905  11.759 -0.1017 -0.2847 -0.0477
12172TIP3    H158007   3.959   2.985  11.787  1.4083 -0.8166 -0.7059
12172TIP3    H258008   3.823   2.922  11.769  0.1142  2.0392 -1.4096
12173TIP3   OH258009   6.151   3.120  16.041 -0.2576 -0.8412 -0.1210
12173TIP3    H158010   6.230   3.173  16.029 -1.9278  2.4873  1.8538
12173TIP3    H258011   6.161   3.081  16.127 -0.4601 -0.9693 -0.1554
12174TIP3   OH258012   3.357   3.114  14.206  0.5147 -0.6726  0.2734
12174TIP3    H158013   3.376   3.032  14.161 -0.0358 -1.9779  2.3191
12174TIP3    H258014   3.306   3.164  14.142  1.0613 -1.8094 -1.1027
12175TIP3   OH258015   5.842   0.984   0.729 -0.0289 -0.2109 -0.0760
12175TIP3    H158016   5.815   1.039   0.802  0.4606  0.5463 -0.4472
12175TIP3    H258017   5.902   0.920   0.767  0.2975  0.2399  0.1737
12176TIP3   OH258018   4.348   6.710   2.350 -0.4557 -0.3956  0.3295
12176TIP3    H158019   4.418   6.721   2.287  0.8211  0.4471  1.8142
12176TIP3    H258020   4.294   6.788   2.341 -1.2106 -1.0172 -0.7721
12177TIP3   OH258021   0.936   1.192   2.838  0.2576 -0.1992  0.1734
12177TIP3    H158022   0.932   1.096   2.842 -0.7350 -0.2434 -1.3343
12177TIP3    H258023   0.879   1.216   2.765  0.4770  1.5550  0.5344
12178TIP3   OH258024   5.358   2.628   5.218 -0.0335  0.5411  0.1474
12178TIP3    H158025   5.444   2.647   5.181  0.3156 -0.6266  0.3164
12178TIP3    H258026   5.352   2.533   5.217 -0.7984  0.5575  1.3204
12179TIP3   OH258027   4.418   3.431   1.331  0.0149  0.1595  0.6699
12179TIP3    H158028   4.334   3.414   1.374 -0.5549 -0.3925 -0.6095
12179TIP3    H258029   4.482   3.430   1.402 -0.7042 -2.1247  1.3671
12180TIP3   OH258030   4.570   3.445  11.262 -0.0935  0.0076  0.5791
12180TIP3    H158031   4.590   3.352  11.265 -0.8065 -0.1530  0.4342
12180TIP3    H258032   4.558   3.464  11.169 -0.0199  0.2276  0.6137
12181TIP3   OH258033   5.524   3.295   2.978 -0.4228 -0.3464 -0.1768
12181TIP3    H158034   5.487   3.282   3.065 -2.0585  1.1863 -0.5703
12181TIP3    H258035   5.458   3.261   2.918  0.2758 -0.5385 -0.8631
12182TIP3   OH258036   5.456   5.263   3.250  0.2230 -0.0267 -0.0162
12182TIP3    H158037   5.545   5.286   3.280  0.4193  1.6663 -1.7026
12182TIP3    H258038   5.411   5.348   3.243 -0.8241 -0.6656 -1.2990
12183TIP3   OH258039   6.161   4.743  12.675 -0.1445 -0.3064  0.0542
12183TIP3    H158040   6.239   4.697  12.706 -0.1430 -0.8109 -0.6626
12183TIP3    H258041   6.125   4.784  12.753  1.2936  0.6360  0.2713
12184TIP3   OH258042   5.546   4.788   0.298  0.1318 -0.3894 -0.0973
12184TIP3    H158043   5.492   4.720   0.338 -0.8773 -0.3253 -1.3026
12184TIP3    H258044   5.535   4.864   0.355 -0.3922 -0.6252  0.1222
12185TIP3   OH258045   4.265   5.074   0.069 -0.0177 -0.4755  0.4503
12185TIP3    H158046   4.177   5.036   0.070 -0.0932 -0.3901 -0.7465
12185TIP3    H258047   4.254   5.159   0.112 -0.6458 -0.2382 -0.1497
12186TIP3   OH258048   6.741   3.992   2.453  0.9430  0.6742  0.1369
12186TIP3    H158049   6.702   4.040   2.379  0.8458  1.1426  0.4927
12186TIP3    H258050   6.740   3.900   2.424 -1.7214  0.4543  0.6623
12187TIP3   OH258051   2.795   5.466   3.291 -0.2233  0.0886 -0.0749
12187TIP3    H158052   2.714   5.487   3.245  0.3575 -2.4204 -2.4592
12187TIP3    H258053   2.825   5.385   3.252  1.7408 -0.8672  3.0527
12188TIP3   OH258054   1.693   0.645   2.243  0.7472  0.2302 -0.0101
12188TIP3    H158055   1.718   0.582   2.175  0.4249  1.6146 -1.4703
12188TIP3    H258056   1.601   0.626   2.260  1.2497 -1.2566  1.3722
12189TIP3   OH258057   3.202   2.504   2.831 -0.4225  0.3136 -0.2142
12189TIP3    H158058   3.164   2.561   2.897  1.0483  1.0636  0.0183
12189TIP3    H258059   3.221   2.561   2.757 -1.9634 -0.5002 -1.2998
12190TIP3   OH258060   2.200   4.117  15.323 -0.5057  0.1288 -0.1544
12190TIP3    H158061   2.210   4.086  15.234  1.7990  1.0595 -0.2883
12190TIP3    H258062   2.197   4.038  15.377  0.5966 -0.4147 -0.8668
12191TIP3   OH258063   4.166   5.837   2.264 -0.1816  0.3465  0.4312
12191TIP3    H158064   4.194   5.885   2.186  1.9378  1.2072  1.6282
12191TIP3    H258065   4.221   5.758   2.264 -1.3826 -0.5144  0.1796
12192TIP3   OH258066   5.090   4.050   5.106 -0.3481  0.6550  0.4512
12192TIP3    H158067   5.131   4.030   5.022  0.4082 -3.3729  1.5400
12192TIP3    H258068   5.046   4.134   5.092  0.4250  0.6024 -3.6578
12193TIP3   OH258069   3.640   6.187  14.935  0.0363 -0.3645  0.3838
12193TIP3    H158070   3.649   6.187  14.840  0.8429  0.3806  0.4420
12193TIP3    H258071   3.547   6.176  14.951 -0.1685  0.0211 -0.5049
12194TIP3   OH258072   2.640   6.439  12.893  0.2780  0.3532 -0.4034
12194TIP3    H158073   2.620   6.522  12.937  0.7579 -0.6879  1.9242
12194TIP3    H258074   2.729   6.419  12.921  1.1464  0.2620 -3.0070
12195TIP3   OH258075   1.750   1.916   4.434 -0.0125  0.1935 -0.4412
12195TIP3    H158076   1.777   1.825   4.448 -0.0826  0.3459  0.8303
12195TIP3    H258077   1.736   1.950   4.523 -1.5288  0.9774 -0.9535
12196TIP3   OH258078   6.595   5.761  15.376 -0.5707  0.3115  0.0712
12196TIP3    H158079   6.572   5.677  15.416 -1.0244  1.1757  1.7328
12196TIP3    H258080   6.523   5.819  15.400 -0.7103  0.9785 -1.8116
12197TIP3   OH258081   2.880   4.095   1.052 -0.0188 -0.3338 -0.0207
12197TIP3    H158082   2.928   4.164   1.006  0.9415 -0.8105  0.2504
12197TIP3    H258083   2.941   4.062   1.118 -0.4561 -1.4560 -0.1502
12198TIP3   OH258084   0.671   1.699  12.836  0.1833 -0.0960 -0.1824
12198TIP3    H158085   0.645   1.630  12.775 -2.2503  0.8192 -0.2665
12198TIP3    H258086   0.736   1.657  12.893 -1.3796 -2.5465 -0.0820
12199TIP3   OH258087   1.942   6.463   3.756 -0.8533  0.0213 -0.1953
12199TIP3    H158088   2.035   6.440   3.763 -0.7767  0.4377  0.1442
12199TIP3    H258089   1.898   6.403   3.816 -0.8792 -0.6003 -0.8174
12200TIP3   OH258090   6.849   4.269   4.141 -0.1739 -0.0141 -0.1956
12200TIP3    H158091   6.908   4.336   4.175  0.6324 -0.2525 -1.1236
12200TIP3    H258092   6.816   4.305   4.059 -1.1833  0.0242  0.1987
12201TIP3   OH258093   3.983   1.283  11.763 -0.2022 -0.1518 -0.3922
12201TIP3    H158094   4.061   1.240  11.799 -0.2725  0.1676  0.1467
12201TIP3    H258095   3.913   1.220  11.776  0.0084 -0.5463 -1.1108
12202TIP3   OH258096   0.110   2.236  12.384  0.0541 -0.8172 -0.0866
12202TIP3    H158097   0.108   2.324  12.421  0.5664 -0.7220 -0.2767
12202TIP3    H258098   0.046   2.187  12.436 -1.4256  0.0494 -1.0169
12203TIP3   OH258099   6.050   4.481   0.765  0.1272 -0.2802  0.0273
12203TIP3    H158100   5.974   4.426   0.782 -1.4392  1.5942 -0.5107
12203TIP3    H258101   6.041   4.506   0.673  1.1574  0.3177  0.0802
12204TIP3   OH258102   4.369   2.966  14.823 -0.3750 -0.1592 -0.5300
12204TIP3    H158103   4.399   2.880  14.852 -2.4635 -0.7639  0.0179
12204TIP3    H258104   4.367   2.960  14.728 -0.3270 -0.6545 -0.5016
12205TIP3   OH258105   5.818   3.199  14.706  0.1117  0.0376  0.7697
12205TIP3    H158106   5.748   3.248  14.664  1.3347  1.8322  0.7171
12205TIP3    H258107   5.817   3.230  14.797  0.4822 -0.3418  0.9036
12206TIP3   OH258108   2.609   3.828   6.058 -0.3698  0.0706  0.6418
12206TIP3    H158109   2.533   3.886   6.066  0.5931  1.3437  0.8963
12206TIP3    H258110   2.683   3.882   6.085  0.7227 -0.9389 -0.2389
12207TIP3   OH258111   1.316   5.369   4.154 -0.4574 -0.0969  0.0930
12207TIP3    H158112   1.353   5.322   4.229 -0.4016 -1.1358 -0.5595
12207TIP3    H258113   1.391   5.403   4.106 -0.4601  0.0207  0.1742
12208TIP3   OH258114   3.281   2.292  12.387 -0.4241 -0.2199 -0.2090
12208TIP3    H158115   3.327   2.375  12.396 -0.6847 -0.3042  2.6531
12208TIP3    H258116   3.190   2.312  12.406 -0.2638 -1.3454  2.0602
12209TIP3   OH258117   6.113   3.423   0.723  0.2356  0.4060  0.4308
12209TIP3    H158118   6.182   3.357   0.733 -1.6085 -1.5167  1.1884
12209TIP3    H258119   6.094   3.452   0.812 -1.1840 -0.4659  0.4324
12210TIP3   OH258120   0.127   6.604   3.910 -0.4294  0.2375 -0.0912
12210TIP3    H158121   0.059   6.603   3.842  0.5164 -0.0498 -1.0682
12210TIP3    H258122   0.179   6.525   3.892  0.4389  0.7065  0.3379
12211TIP3   OH258123   1.994   0.612  11.554  0.0527  0.6063 -0.1039
12211TIP3    H158124   2.031   0.676  11.615  1.0665  0.4439 -0.5167
12211TIP3    H258125   2.047   0.533  11.568  1.4130  1.0452 -2.2838
12212TIP3   OH258126   5.763   5.096  14.464  0.2905  0.6813 -0.5434
12212TIP3    H158127   5.699   5.078  14.533  1.4029 -0.5541  0.2001
12212TIP3    H258128   5.709   5.106  14.385 -0.9192  1.0046  0.2850
12213TIP3   OH258129   3.630   6.747  14.425 -0.2310 -0.3830  0.2264
12213TIP3    H158130   3.721   6.719  14.437 -0.6440 -1.0630  2.1262
12213TIP3    H258131   3.582   6.701  14.493 -2.0024  0.0566 -0.6723
12214TIP3   OH258132   0.544   6.548   3.497 -0.2566  0.1024  0.0150
12214TIP3    H158133   0.546   6.517   3.407  2.4517 -0.8706  0.3028
12214TIP3    H258134   0.474   6.499   3.538  0.7167 -2.0844 -0.7747
12215TIP3   OH258135   1.199   2.000   2.994  0.2224  0.0893 -0.2768
12215TIP3    H158136   1.137   2.012   3.065  1.0443  1.0837  0.2909
12215TIP3    H258137   1.152   1.946   2.930 -1.8248  2.1805 -0.6404
12216TIP3   OH258138   4.547   2.697  13.113  0.1744 -0.1647 -0.1367
12216TIP3    H158139   4.480   2.654  13.167 -1.3300  2.2507  0.0736
12216TIP3    H258140   4.630   2.659  13.143 -0.9651 -2.2843  0.5301
12217TIP3   OH258141   3.824   3.527   1.238  0.1734  0.0126 -0.5656
12217TIP3    H158142   3.857   3.514   1.149 -0.6129 -0.5684 -0.7910
12217TIP3    H258143   3.729   3.533   1.227  0.2014  2.3136 -0.0193
12218TIP3   OH258144   6.677   6.346   1.094  0.2392  0.0360  0.0388
12218TIP3    H158145   6.663   6.385   1.180 -0.0609  0.1353 -0.0539
12218TIP3    H258146   6.771   6.332   1.089  0.6462  2.4743 -0.6679
12219TIP3   OH258147   5.275   4.506  14.487  0.1821  0.1116 -0.2764
12219TIP3    H158148   5.247   4.489  14.577 -0.4075 -0.0687 -0.4946
12219TIP3    H258149   5.369   4.524  14.495  0.0935  0.2939  0.3991
12220TIP3   OH258150   1.686   5.173   4.408  0.3493 -0.5514 -0.7126
12220TIP3    H158151   1.710   5.261   4.378  0.5321 -0.4681 -0.3211
12220TIP3    H258152   1.747   5.153   4.478 -1.4927  0.1888  1.2011
12221TIP3   OH258153   6.831   0.248   5.287 -0.0165  0.8442 -0.0905
12221TIP3    H158154   6.843   0.207   5.373 -1.4265  0.2602 -0.1398
12221TIP3    H258155   6.849   0.179   5.224 -1.2251  0.6114 -0.2009
12222TIP3   OH258156   5.826   0.299  15.537 -0.4244 -0.4425 -0.2850
12222TIP3    H158157   5.741   0.336  15.560  0.8236  2.6897 -0.2802
12222TIP3    H258158   5.866   0.364  15.478  1.6033 -2.2435 -1.0399
12223TIP3   OH258159   3.779   0.274   5.619  0.7929  0.0919  0.1595
12223TIP3    H158160   3.826   0.310   5.544  1.6608  1.3256  1.2560
12223TIP3    H258161   3.686   0.281   5.594  1.0871 -0.4837 -1.1989
12224TIP3   OH258162   5.109   5.128  11.911 -0.4466  0.4405 -0.3322
12224TIP3    H158163   5.082   5.113  12.002  0.7726  2.7385  0.5047
12224TIP3    H258164   5.035   5.176  11.873 -1.1864 -0.9949 -0.7460
12225TIP3   OH258165   6.702   2.466   5.866  0.5064  0.4136 -0.4190
12225TIP3    H158166   6.772   2.511   5.819  0.2276 -0.4968 -1.7442
12225TIP3    H258167   6.728   2.374   5.865 -0.8693  0.0191 -1.2277
12226TIP3   OH258168   3.754   6.409   1.736  0.2327 -0.3426 -0.2605
12226TIP3    H158169   3.713   6.364   1.662  0.3177  0.2189 -0.6505
12226TIP3    H258170   3.684   6.418   1.800 -0.5786  1.5682 -1.3460
12227TIP3   OH258171   0.405   3.001  15.764 -0.3267 -0.1246 -0.9885
12227TIP3    H158172   0.358   2.924  15.733  0.0351 -0.8815  0.2781
12227TIP3    H258173   0.426   2.981  15.855 -1.0824  1.8693 -0.3186
12228TIP3   OH258174   4.279   6.668   1.866  0.3095 -0.5860 -0.3381
12228TIP3    H158175   4.219   6.595   1.886  1.3634 -1.2891  0.3319
12228TIP3    H258176   4.350   6.627   1.818  0.2036  0.2728 -1.2437
12229TIP3   OH258177   6.424   2.315  15.371  0.0926  0.1157 -0.6660
12229TIP3    H158178   6.415   2.346  15.281 -0.3748 -3.2629 -1.9474
12229TIP3    H258179   6.343   2.344  15.415  0.5092  2.1441 -1.1419
12230TIP3   OH258180   2.169   4.128   0.838 -0.4225  0.5332  0.1334
12230TIP3    H158181   2.215   4.151   0.919  2.4725  0.0055 -1.2549
12230TIP3    H258182   2.162   4.033   0.841  1.5851  0.2858 -1.0782
12231TIP3   OH258183   0.747   2.247   1.333 -0.3044  0.0856 -0.6415
12231TIP3    H158184   0.663   2.209   1.358 -0.4320  0.8290  0.1104
12231TIP3    H258185   0.726   2.306   1.260 -0.1746 -0.9218 -1.5111
12232TIP3   OH258186   4.049   4.153  10.746  0.1622  0.0910 -0.9547
12232TIP3    H158187   3.977   4.097  10.717 -0.2796 -0.9239  1.7759
12232TIP3    H258188   4.124   4.125  10.694 -0.8610 -0.4954 -2.1688
12233TIP3   OH258189   5.226   5.056   2.856  0.8125 -0.1938 -0.3559
12233TIP3    H158190   5.229   5.140   2.902  0.8627  0.1403 -0.9621
12233TIP3    H258191   5.315   5.044   2.822  0.1649  0.8371 -2.5967
12234TIP3   OH258192   1.171   6.575   0.379 -0.0439  0.2396 -0.5118
12234TIP3    H158193   1.152   6.495   0.330 -1.6718  0.5006 -0.3609
12234TIP3    H258194   1.092   6.628   0.371  0.9266  1.7719 -0.4462
12235TIP3   OH258195   0.749   1.771  16.150  0.1982  0.0264  0.2412
12235TIP3    H158196   0.757   1.814  16.065  3.1165 -0.0481  0.3653
12235TIP3    H258197   0.833   1.788  16.193 -0.3935 -1.7388  2.2475
12236TIP3   OH258198   3.117   3.593  11.812  0.1812  0.2350 -0.6215
12236TIP3    H158199   3.076   3.665  11.764 -1.3777  0.9218  1.5877
12236TIP3    H258200   3.191   3.633  11.857  1.1923 -0.2560 -1.7781
12237TIP3   OH258201   6.685   3.836  13.512  0.0293  0.5736 -0.0346
12237TIP3    H158202   6.652   3.860  13.599 -1.1901 -0.0766 -0.3046
12237TIP3    H258203   6.772   3.799  13.529  0.1538  1.2406  0.8157
12238TIP3   OH258204   3.643   3.515  11.324 -0.3680  0.2794  0.0221
12238TIP3    H158205   3.682   3.599  11.297  1.2338  0.0043  1.3140
12238TIP3    H258206   3.549   3.527  11.312 -0.2123  2.4122  0.5574
12239TIP3   OH258207   2.297   2.093   0.199  0.2493  0.4659 -0.2074
12239TIP3    H158208   2.322   2.117   0.289 -0.0033  1.5845 -0.4239
12239TIP3    H258209   2.298   1.998   0.199 -2.6234  0.3246  1.8327
12240TIP3   OH258210   0.792   6.523   1.002  0.1164  0.2049 -0.1842
12240TIP3    H158211   0.766   6.472   0.924 -0.1304  0.1557 -0.0701
12240TIP3    H258212   0.791   6.614   0.972 -1.2620  0.3060  0.1033
12241TIP3   OH258213   2.400   0.128   4.900 -0.6942  0.1788  0.4522
12241TIP3    H158214   2.404   0.035   4.877  1.9349  0.5914 -1.1735
12241TIP3    H258215   2.491   0.157   4.899 -1.3154  2.4794  2.4047
12242TIP3   OH258216   1.302   2.777  10.633 -0.5503 -0.1145  0.1026
12242TIP3    H158217   1.361   2.702  10.622  0.0743  0.4688 -0.5774
12242TIP3    H258218   1.328   2.815  10.717  0.6050  0.6110 -0.5550
12243TIP3   OH258219   2.251   1.198   3.307  0.0134 -0.1634 -0.3394
12243TIP3    H158220   2.308   1.122   3.294 -0.7138 -1.1431  1.7275
12243TIP3    H258221   2.179   1.185   3.245  2.0579  1.2679 -3.2266
12244TIP3   OH258222   4.605   4.438  10.864  0.1598  0.4265 -0.0714
12244TIP3    H158223   4.519   4.477  10.873  0.3842  0.8426  0.3312
12244TIP3    H258224   4.660   4.508  10.829  0.1956 -0.0221 -0.9407
12245TIP3   OH258225   1.727   5.642   0.929  0.4630  0.1230  0.2073
12245TIP3    H158226   1.690   5.728   0.948  0.6524  0.1737  0.3479
12245TIP3    H258227   1.821   5.657   0.921  0.8011 -0.4078  2.4741
12246TIP3   OH258228   6.772   5.082  15.271 -0.2829  0.6800  0.7026
12246TIP3    H158229   6.791   4.992  15.298 -0.6403  0.7199  1.1186
12246TIP3    H258230   6.699   5.074  15.210  0.6279  0.5776 -0.3892
12247TIP3   OH258231   5.702   5.758  15.826 -0.1670  0.4638 -0.0660
12247TIP3    H158232   5.731   5.716  15.745  1.4750 -1.4694  1.4261
12247TIP3    H258233   5.727   5.850  15.815  2.9180 -0.3261 -0.5852
12248TIP3   OH258234   5.597   5.662  16.070  0.3052 -0.2054  0.1063
12248TIP3    H158235   5.612   5.697  15.982 -0.1861  0.4291  0.2650
12248TIP3    H258236   5.682   5.625  16.096  0.5131 -0.1938 -0.5418
12249TIP3   OH258237   4.082   5.976  16.932  0.0691  0.5084  0.4113
12249TIP3    H158238   4.000   6.000  16.975 -0.7094  1.5886 -1.5613
12249TIP3    H258239   4.062   5.895  16.886 -0.3172  1.4514 -1.1323
12250TIP3   OH258240   1.237   0.348  13.511  0.1500  0.0450 -0.6374
12250TIP3    H158241   1.185   0.340  13.591 -1.4421 -0.4964 -1.7054
12250TIP3    H258242   1.268   0.439  13.513 -1.1647  0.5084 -0.1716
12251TIP3   OH258243   2.070   5.932   1.451 -0.0795  0.3247 -0.8311
12251TIP3    H158244   2.114   5.847   1.458  0.5486  0.5881 -1.4142
12251TIP3    H258245   2.057   5.960   1.541 -0.4766 -0.4799 -0.6273
12252TIP3   OH258246   6.066   5.166  10.407 -0.9281  0.2643  0.4131
12252TIP3    H158247   6.082   5.124  10.322 -0.9204 -0.4232  0.7450
12252TIP3    H258248   6.059   5.093  10.468 -0.4103  0.7763  1.0945
12253TIP3   OH258249   2.747   5.202   1.256 -0.6743  0.2376  0.7296
12253TIP3    H158250   2.740   5.155   1.339  2.1804  0.8849  1.4404
12253TIP3    H258251   2.810   5.272   1.273  1.0233 -0.3619 -2.2443
12254TIP3   OH258252   4.688   2.680  13.371 -0.0112 -0.3538 -0.1455
12254TIP3    H158253   4.773   2.658  13.409 -0.0795 -0.1277  0.1463
12254TIP3    H258254   4.697   2.771  13.342  0.0790 -0.5618 -0.7912
12255TIP3   OH258255   5.853   5.141   6.270  0.7223  0.6799  0.3195
12255TIP3    H158256   5.873   5.052   6.239  0.7015  0.9735 -0.5662
12255TIP3    H258257   5.909   5.152   6.346  1.4720  0.2600 -0.1500
12256TIP3   OH258258   6.077   0.465   5.775 -0.3594  0.3003 -0.3082
12256TIP3    H158259   6.104   0.501   5.690  3.1045  0.2813  0.6429
12256TIP3    H258260   5.992   0.506   5.791 -0.0204  2.2251 -2.6666
12257TIP3   OH258261   1.778   6.400  13.232 -0.0419 -0.4109 -0.0335
12257TIP3    H158262   1.724   6.474  13.258 -0.9447 -0.6248 -1.2156
12257TIP3    H258263   1.766   6.336  13.302 -2.5237 -1.0431 -0.9593
12258TIP3   OH258264   6.020   0.955  14.046 -0.4125 -0.3327 -0.2589
12258TIP3    H158265   6.092   0.908  14.005 -0.2176 -0.1208 -0.1606
12258TIP3    H258266   5.987   0.895  14.113 -1.0912 -0.9101 -1.0776
12259TIP3   OH258267   1.671   0.151  14.369 -0.1606 -0.3728  0.0713
12259TIP3    H158268   1.684   0.105  14.451 -1.3672  1.7464  1.5424
12259TIP3    H258269   1.606   0.099  14.322 -3.7427  1.0840  2.9395
12260TIP3   OH258270   6.712   3.168  12.397  0.0607 -0.2059  0.2109
12260TIP3    H158271   6.680   3.174  12.307 -0.3463 -0.0085  0.3655
12260TIP3    H258272   6.690   3.252  12.436  0.0055 -0.3840  0.5688
12261TIP3   OH258273   2.629   1.767   1.987 -0.4329 -0.1834  0.1331
12261TIP3    H158274   2.682   1.725   1.919 -0.1042 -1.3259  1.0667
12261TIP3    H258275   2.552   1.712   1.995 -0.5862  0.0789  0.5192
12262TIP3   OH258276   2.795   2.977  12.911  0.1787 -0.3690  1.0569
12262TIP3    H158277   2.799   2.916  12.985  0.6000  0.4571  1.7307
12262TIP3    H258278   2.861   3.043  12.931  2.1639 -1.5029 -1.3216
12263TIP3   OH258279   0.549   2.818   3.790  0.3923 -0.2894  0.4315
12263TIP3    H158280   0.612   2.770   3.844  1.5348  0.7245  0.0335
12263TIP3    H258281   0.468   2.766   3.796  1.4311 -1.9761  0.4142
12264TIP3   OH258282   0.570   4.947  11.016  0.0596  0.5005 -0.3759
12264TIP3    H158283   0.657   4.988  11.019 -0.5073  1.8009 -0.8966
12264TIP3    H258284   0.546   4.947  10.923 -0.6385  0.4688 -0.2024
12265TIP3   OH258285   1.271   3.608  12.742  0.3861 -0.3556  0.4024
12265TIP3    H158286   1.267   3.538  12.677  1.7835  0.1109 -0.2120
12265TIP3    H258287   1.239   3.568  12.823 -2.1789 -0.7217 -0.7123
12266TIP3   OH258288   2.101   5.516  14.821 -0.1295 -0.3396  0.2954
12266TIP3    H158289   2.125   5.425  14.803  0.4721 -0.0385 -0.4613
12266TIP3    H258290   2.179   5.567  14.798 -0.7843  0.4579 -0.2070
12267TIP3   OH258291   6.106   6.032   6.026  0.5279  0.7562  0.0112
12267TIP3    H158292   6.182   6.007   5.973  0.5725  0.4494  0.2217
12267TIP3    H258293   6.077   6.115   5.987  1.9130  1.7015  0.8886
12268TIP3   OH258294   4.852   3.141   5.645  0.3028 -0.2289 -0.2898
12268TIP3    H158295   4.867   3.113   5.736  2.6087 -0.9721 -0.8112
12268TIP3    H258296   4.797   3.218   5.652  0.5155 -0.2017  1.7658
12269TIP3   OH258297   1.004   1.123   3.576 -0.2790  0.6570  0.1743
12269TIP3    H158298   0.995   1.082   3.662  1.0435  3.6023  1.8616
12269TIP3    H258299   1.064   1.066   3.528 -0.7380 -0.8303  1.3010
12270TIP3   OH258300   1.929   3.152   1.314 -0.3116  0.4289 -0.2983
12270TIP3    H158301   1.911   3.211   1.240 -1.0465  1.3079  0.5514
12270TIP3    H258302   1.980   3.205   1.375 -0.4709 -0.0110  0.2204
12271TIP3   OH258303   0.669   5.102  15.799  0.7671  0.6612 -0.3850
12271TIP3    H158304   0.744   5.069  15.848  0.3766 -0.1417 -0.2985
12271TIP3    H258305   0.652   5.188  15.836  0.9013  0.3446  0.4327
12272TIP3   OH258306   3.020   1.779  12.491 -0.5102 -0.6932  0.6114
12272TIP3    H158307   3.009   1.867  12.456  0.7076 -1.0557 -0.7572
12272TIP3    H258308   2.933   1.753  12.520 -1.1795  0.3681 -0.3978
12273TIP3   OH258309   5.674   5.613  11.610  0.1141 -0.1407  0.5273
12273TIP3    H158310   5.664   5.692  11.557 -0.5060 -0.3421  0.3358
12273TIP3    H258311   5.639   5.636  11.696 -0.5273 -0.3508  0.3291
12274TIP3   OH258312   4.664   2.645  11.901 -0.7986  0.4467  0.1824
12274TIP3    H158313   4.574   2.651  11.934 -0.3080  0.0968  1.6561
12274TIP3    H258314   4.714   2.610  11.975 -0.0699 -2.9434 -1.7593
12275TIP3   OH258315   5.292   1.845  13.944  0.6038  0.4326 -0.0194
12275TIP3    H158316   5.276   1.883  14.031 -0.3799  1.2285 -0.5316
12275TIP3    H258317   5.262   1.755  13.951  0.8744  0.3866  0.5747
12276TIP3   OH258318   5.601   6.382   4.581 -0.0816  0.2562 -0.0195
12276TIP3    H158319   5.689   6.375   4.545 -0.1173 -0.5367  0.0183
12276TIP3    H258320   5.600   6.319   4.654 -0.3040  1.1376  0.7589
12277TIP3   OH258321   4.480   1.066   5.949  0.8539  0.3762 -0.4028
12277TIP3    H158322   4.564   1.064   5.996  0.5181 -1.4044  0.2107
12277TIP3    H258323   4.414   1.073   6.018  0.4438  0.0460 -0.7570
12278TIP3   OH258324   4.085   5.548  16.101 -0.5553 -0.2630  0.3699
12278TIP3    H158325   4.168   5.501  16.106 -0.7722 -0.9043 -1.3919
12278TIP3    H258326   4.021   5.487  16.138 -0.3455  0.0120  1.2121
12279TIP3   OH258327   2.897   0.294  15.191  0.7792  0.1133 -0.0933
12279TIP3    H158328   2.962   0.264  15.127  1.8367  1.0397  0.5189
12279TIP3    H258329   2.844   0.359  15.144 -0.4438 -1.3997 -0.9164
12280TIP3   OH258330   0.837   2.649  17.165 -0.0876  0.2591 -0.0572
12280TIP3    H158331   0.764   2.660  17.226  0.3966  1.5517  0.3016
12280TIP3    H258332   0.805   2.582  17.103 -2.2018  1.8589 -0.8315
12281TIP3   OH258333   3.196   6.022   2.158 -0.0544 -0.1886 -0.0212
12281TIP3    H158334   3.248   6.015   2.238  1.0056 -1.3604 -0.7890
12281TIP3    H258335   3.108   5.996   2.185  0.3536 -0.8652  0.6949
12282TIP3   OH258336   4.751   0.239   6.520  0.0297 -0.2057 -0.1702
12282TIP3    H158337   4.796   0.295   6.456  1.2097 -1.2720 -0.3010
12282TIP3    H258338   4.660   0.269   6.518  0.6232  1.7145 -0.2169
12283TIP3   OH258339   3.872   1.164  14.647  0.3117  0.2629 -0.1005
12283TIP3    H158340   3.790   1.211  14.665  0.9223  1.3766 -0.0902
12283TIP3    H258341   3.870   1.088  14.704 -0.6569  0.3500 -0.0048
12284TIP3   OH258342   1.453   3.661   6.078  0.2445 -0.4359 -0.4506
12284TIP3    H158343   1.455   3.743   6.029  0.1000 -0.9989 -1.4275
12284TIP3    H258344   1.359   3.643   6.090  0.2853  0.0181  0.5913
12285TIP3   OH258345   4.092   1.659   3.831  0.2970 -0.8297 -0.0173
12285TIP3    H158346   4.181   1.664   3.868 -0.0025  2.0689  0.5789
12285TIP3    H258347   4.034   1.661   3.907 -0.2983 -0.9316 -0.4614
12286TIP3   OH258348   2.124   5.669   1.195  0.1272 -0.4193  0.3229
12286TIP3    H158349   2.161   5.587   1.164  1.0711  0.6809 -1.7285
12286TIP3    H258350   2.177   5.737   1.152  0.6116  1.3287  3.3886
12287TIP3   OH258351   4.684   1.493   0.547  0.0009 -0.3889  0.2122
12287TIP3    H158352   4.681   1.584   0.578  0.1657 -0.2064 -0.2961
12287TIP3    H258353   4.610   1.451   0.590 -0.9928  0.3630 -0.6886
12288TIP3   OH258354   1.183   3.254  13.590 -0.0544 -0.3057  0.3301
12288TIP3    H158355   1.223   3.199  13.522  0.3153  1.0648 -0.5883
12288TIP3    H258356   1.215   3.216  13.672  1.4146 -0.5514 -0.3200
12289TIP3   OH258357   6.275   0.814   5.206  0.0116 -0.0877 -0.4563
12289TIP3    H158358   6.275   0.808   5.302  2.1941  1.8515 -0.2363
12289TIP3    H258359   6.326   0.738   5.178 -1.0573 -0.9438 -0.1574
12290TIP3   OH258360   0.185   6.084  11.790  0.1737 -1.0685 -0.0851
12290TIP3    H158361   0.117   6.095  11.857  1.6864  0.4078  1.3111
12290TIP3    H258362   0.175   6.161  11.734  0.9130 -0.6258  0.3717
12291TIP3   OH258363   1.268   6.341  14.043  0.2601 -0.6331  0.0970
12291TIP3    H158364   1.174   6.346  14.061  0.5447  0.8402  1.3195
12291TIP3    H258365   1.277   6.378  13.955 -0.1182  1.0505  0.7324
12292TIP3   OH258366   5.789   4.804  17.051  0.4663 -0.0241 -0.7092
12292TIP3    H158367   5.782   4.713  17.021 -1.1435 -0.6826  1.3947
12292TIP3    H258368   5.717   4.849  17.009  0.9367  0.1578 -1.3290
12293TIP3   OH258369   6.803   6.698  13.690 -0.4297 -0.2643  0.2024
12293TIP3    H158370   6.877   6.647  13.721 -0.3609 -0.2514  0.0619
12293TIP3    H258371   6.733   6.634  13.679  0.2060 -0.6790 -1.8159
12294TIP3   OH258372   5.378   4.099  13.386  0.0237 -0.7169  0.2888
12294TIP3    H158373   5.312   4.161  13.355 -0.1686 -1.2630 -0.4332
12294TIP3    H258374   5.462   4.139  13.363 -0.1027 -0.8341 -0.4251
12295TIP3   OH258375   0.195   5.930  10.846  0.3265 -0.9071 -0.3305
12295TIP3    H158376   0.231   5.849  10.881  1.5334 -0.8822 -1.4161
12295TIP3    H258377   0.221   5.929  10.753 -0.8532  0.0527 -0.6931
12296TIP3   OH258378   0.474   6.533   6.083 -0.1324  0.3380  0.2575
12296TIP3    H158379   0.555   6.542   6.132  0.6062 -2.1375 -0.3990
12296TIP3    H258380   0.467   6.440   6.063 -2.8703  0.5396 -0.1889
12297TIP3   OH258381   5.829   5.158   2.690 -0.0878 -0.7744 -0.6782
12297TIP3    H158382   5.757   5.179   2.630 -1.3664  1.9191  1.5559
12297TIP3    H258383   5.789   5.107   2.760  0.6912 -1.1609 -0.4971
12298TIP3   OH258384   4.140   4.513  16.299  0.3733  0.0990  0.5694
12298TIP3    H158385   4.215   4.516  16.358  0.7632  0.2885  0.0694
12298TIP3    H258386   4.070   4.471  16.351  1.3745 -1.8856  0.4162
12299TIP3   OH258387   5.163   0.551  13.950  0.1965 -0.2671 -0.0563
12299TIP3    H158388   5.256   0.564  13.969 -0.0358  1.6048  0.0452
12299TIP3    H258389   5.162   0.493  13.873  1.4142 -0.7854  0.2929
12300TIP3   OH258390   5.575   6.483  16.648 -0.4432  0.0984  0.5485
12300TIP3    H158391   5.626   6.420  16.597  0.2389  0.3154  0.9477
12300TIP3    H258392   5.574   6.446  16.737 -0.2437  0.5256  0.7305
12301TIP3   OH258393   6.304   0.657  12.892 -0.1827  0.0617 -0.6517
12301TIP3    H158394   6.215   0.652  12.928  0.1107 -0.6009  0.0165
12301TIP3    H258395   6.347   0.726  12.943 -0.4290  0.6632 -1.2491
12302TIP3   OH258396   3.848   4.629  11.794  0.7080  0.3099 -0.3419
12302TIP3    H158397   3.763   4.590  11.813  0.2510  1.5326  0.2160
12302TIP3    H258398   3.831   4.690  11.722  0.9760  1.0261  0.1952
12303TIP3   OH258399   4.649   1.412   1.765  0.1201  0.0331  0.3245
12303TIP3    H158400   4.606   1.391   1.682  0.4828  0.5112  0.0090
12303TIP3    H258401   4.652   1.328   1.812 -0.7931 -0.0827  0.1910
12304TIP3   OH258402   1.769   0.391   1.498  0.3994 -0.6474  0.1400
12304TIP3    H158403   1.701   0.435   1.448 -1.3932 -1.3692  1.8378
12304TIP3    H258404   1.846   0.447   1.490 -1.0533  1.4153  0.0960
12305TIP3   OH258405   0.555   4.444   2.749 -0.0480 -0.1350 -0.1344
12305TIP3    H158406   0.605   4.525   2.735 -0.7166 -0.0385 -2.5312
12305TIP3    H258407   0.600   4.379   2.695 -1.0805 -0.6350 -0.4285
12306TIP3   OH258408   5.845   0.892  16.618  0.5769 -0.5168  0.1597
12306TIP3    H158409   5.843   0.805  16.579 -1.2240  0.0367 -1.1233
12306TIP3    H258410   5.817   0.879  16.709  0.5738 -1.2842  0.0495
12307TIP3   OH258411   1.456   2.911   2.585  0.0823  0.0785 -0.3613
12307TIP3    H158412   1.511   2.855   2.531  0.6547  2.0070 -1.8810
12307TIP3    H258413   1.444   2.991   2.534 -1.0972  1.1862  1.4972
12308TIP3   OH258414   0.639   4.848   4.296  0.7495  0.3187 -0.3489
12308TIP3    H158415   0.643   4.773   4.356  1.6442 -1.2064 -2.1920
12308TIP3    H258416   0.554   4.889   4.315 -0.0608 -1.5264  0.3384
12309TIP3   OH258417   3.910   1.968  12.957  0.1765 -1.0511  0.1639
12309TIP3    H158418   3.831   1.948  13.008  0.5368 -0.2479  1.0754
12309TIP3    H258419   3.905   2.062  12.942  0.9245 -1.0114  0.1687
12310TIP3   OH258420   1.502   2.258   3.241  0.1167  0.1048 -0.1568
12310TIP3    H158421   1.465   2.286   3.157 -1.5716 -0.6922  0.2860
12310TIP3    H258422   1.434   2.204   3.280  1.8234 -1.5157  0.6836
12311TIP3   OH258423   5.483   0.738  12.569  0.1021  0.7025 -0.2126
12311TIP3    H158424   5.574   0.746  12.599  0.0075 -0.7232  0.5875
12311TIP3    H258425   5.478   0.649  12.535 -0.7326  1.1390 -1.2524
12312TIP3   OH258426   0.896   0.542  14.386  0.0950  0.0970  0.4035
12312TIP3    H158427   0.802   0.554  14.378  0.3155  2.0542  0.1379
12312TIP3    H258428   0.913   0.543  14.480 -0.1364 -0.0960  0.4465
12313TIP3   OH258429   5.324   2.272   0.075 -0.8641 -0.1026  0.2737
12313TIP3    H158430   5.310   2.365   0.059 -0.2256 -0.2817 -1.5796
12313TIP3    H258431   5.255   2.228   0.025  1.6501 -0.7184 -3.0559
12314TIP3   OH258432   6.561   5.703   4.977 -0.2723  0.2509 -0.4339
12314TIP3    H158433   6.482   5.723   4.928 -0.1644 -1.0691 -1.2006
12314TIP3    H258434   6.632   5.713   4.914  0.0160 -0.1090 -0.1731
12315TIP3   OH258435   6.548   4.198  13.422  0.0406 -0.0007 -0.5629
12315TIP3    H158436   6.507   4.155  13.498 -0.2304  1.1986 -0.0023
12315TIP3    H258437   6.641   4.197  13.442 -0.1839  3.1568  1.4588
12316TIP3   OH258438   3.507   3.143  11.481 -0.1764 -0.5253  0.3727
12316TIP3    H158439   3.554   3.148  11.398  0.9122  1.3054  1.0112
12316TIP3    H258440   3.488   3.050  11.494 -0.2920 -0.8502 -1.8492
12317TIP3   OH258441   3.212   3.632   5.606  0.3446  0.2267  0.3021
12317TIP3    H158442   3.125   3.602   5.581  0.5939  0.7170 -1.2515
12317TIP3    H258443   3.200   3.671   5.693 -0.9492  0.1752  0.1598
12318TIP3   OH258444   4.237   0.658  14.201 -0.0350 -0.7108  0.1277
12318TIP3    H158445   4.227   0.709  14.121 -0.9243 -0.0639  0.6307
12318TIP3    H258446   4.329   0.667  14.224  0.1107 -0.4668 -0.5366
12319TIP3   OH258447   1.515   1.346  13.137 -0.3077  0.1539 -0.4832
12319TIP3    H158448   1.570   1.421  13.160 -0.5450  0.2538 -0.2331
12319TIP3    H258449   1.460   1.332  13.215  1.5600 -1.9524  0.5678
12320TIP3   OH258450   4.985   1.594  11.325 -0.2284  0.4336 -0.0854
12320TIP3    H158451   5.032   1.576  11.244 -0.1516 -2.2804  0.4760
12320TIP3    H258452   4.965   1.688  11.320  0.5455  0.5538 -2.7923
12321TIP3   OH258453   5.575   3.710  12.657  0.1325 -0.2022  0.1592
12321TIP3    H158454   5.574   3.624  12.616 -0.7467 -0.1749  0.0957
12321TIP3    H258455   5.563   3.772  12.584  0.3393 -0.0494  0.2527
12322TIP3   OH258456   3.674   0.004  14.753 -0.0594  0.1091  0.0538
12322TIP3    H158457   3.639   0.072  14.811  0.4279  0.3089  0.1198
12322TIP3    H258458   3.764   0.031  14.737 -0.5532  0.7613 -1.8543
12323TIP3   OH258459   6.592   3.337   0.196 -0.7937  0.1000 -0.2295
12323TIP3    H158460   6.497   3.341   0.205 -0.6192  2.3784  1.7225
12323TIP3    H258461   6.623   3.421   0.230  1.9546 -0.6585 -0.5719
12324TIP3   OH258462   3.053   4.588   3.997  0.4444 -0.3011 -0.0550
12324TIP3    H158463   3.042   4.589   4.092 -0.8531  0.0735 -0.1882
12324TIP3    H258464   2.969   4.618   3.963  1.6066  1.8910 -1.2575
12325TIP3   OH258465   5.014   1.640  11.879 -0.1666 -0.3382  0.1308
12325TIP3    H158466   5.054   1.701  11.817  0.0032 -0.7824 -0.1976
12325TIP3    H258467   5.087   1.606  11.931 -0.2706 -0.2069  0.3656
12326TIP3   OH258468   3.522   1.434  14.376  0.0263  0.1579 -0.3788
12326TIP3    H158469   3.507   1.339  14.382 -1.2224  0.3962  0.9377
12326TIP3    H258470   3.559   1.458  14.461  1.2422  0.7253 -1.0480
12327TIP3   OH258471   5.448   0.681   3.318 -0.7234  0.3569 -0.2516
12327TIP3    H158472   5.437   0.588   3.340 -0.3130  0.2401 -0.5210
12327TIP3    H258473   5.368   0.723   3.350 -0.4404  0.0925  0.8285
12328TIP3   OH258474   1.484   3.767  14.582 -0.4633 -0.1208  0.1295
12328TIP3    H158475   1.475   3.857  14.614 -2.7776  0.2493 -1.3160
12328TIP3    H258476   1.436   3.714  14.646  0.8267 -0.3563  0.9344
12329TIP3   OH258477   5.184   3.138  13.702  0.0833  0.6309 -0.1324
12329TIP3    H158478   5.121   3.119  13.771  0.8018  1.5803  0.8227
12329TIP3    H258479   5.162   3.226  13.671 -1.2374 -0.3651 -2.2954
12330TIP3   OH258480   0.639   0.314   2.908 -0.4758  0.2810 -0.0270
12330TIP3    H158481   0.729   0.295   2.931 -0.3717  0.3921 -0.3386
12330TIP3    H258482   0.640   0.405   2.878 -0.9056  0.6819  1.1122
12331TIP3   OH258483   3.218   3.024   0.506 -0.1525  0.1460  0.1524
12331TIP3    H158484   3.179   2.947   0.464 -0.0026 -0.4624  1.1146
12331TIP3    H258485   3.216   3.092   0.438 -1.4557 -0.3324 -0.3150
12332TIP3   OH258486   2.282   0.957  14.154 -0.5654 -0.6368  0.3269
12332TIP3    H158487   2.233   0.875  14.142 -1.6563  0.0286  0.0908
12332TIP3    H258488   2.310   0.981  14.066 -3.4094  1.1146 -0.2177
12333TIP3   OH258489   5.648   5.589  13.808  0.1261 -0.1845 -0.4093
12333TIP3    H158490   5.588   5.622  13.875  1.0728  0.8793 -0.0530
12333TIP3    H258491   5.716   5.656  13.801  1.3716 -1.4204 -0.6799
12334TIP3   OH258492   2.934   3.832   5.336  0.7000 -0.0819  0.6076
12334TIP3    H158493   3.003   3.780   5.296 -0.0229 -0.1544 -0.5798
12334TIP3    H258494   2.943   3.815   5.430  1.2566 -1.3766  0.3416
12335TIP3   OH258495   4.202   3.665  11.022  0.6720 -0.2036 -0.0484
12335TIP3    H158496   4.125   3.693  10.972 -0.7165 -0.9231  1.6000
12335TIP3    H258497   4.178   3.580  11.059  1.0645  0.8390  2.8955
12336TIP3   OH258498   1.495   2.407  16.041  0.7349  0.5840  0.3881
12336TIP3    H158499   1.443   2.385  16.118  0.4601  0.8380  0.2772
12336TIP3    H258500   1.493   2.503  16.037  0.7106  0.5718  0.0434
12337TIP3   OH258501   3.822   1.393   4.112  0.4274  0.6083 -0.2080
12337TIP3    H158502   3.730   1.366   4.115  0.6120 -0.8365 -3.1825
12337TIP3    H258503   3.857   1.372   4.198 -1.4334 -1.3099  0.1675
12338TIP3   OH258504   1.516   1.914  14.398  0.0111 -0.1502 -0.1057
12338TIP3    H158505   1.540   1.885  14.310  1.2529  0.7791 -0.1019
12338TIP3    H258506   1.453   1.848  14.429 -1.9631  0.5228 -2.3937
12339TIP3   OH258507   5.269   1.518  13.374 -0.3046 -0.0641 -0.2418
12339TIP3    H158508   5.245   1.561  13.456 -1.8942 -1.8674  0.2973
12339TIP3    H258509   5.343   1.462  13.397 -0.1688  0.1028 -0.2659
12340TIP3   OH258510   3.014   4.176  15.786  0.3814 -0.4445  0.5314
12340TIP3    H158511   3.069   4.255  15.787 -0.8254  0.4643 -0.6438
12340TIP3    H258512   3.053   4.121  15.717  0.1689 -0.0417  0.0790
12341TIP3   OH258513   6.246   2.683   5.134  0.2934 -0.6570 -0.0131
12341TIP3    H158514   6.335   2.647   5.133 -0.1291 -1.7105 -0.2743
12341TIP3    H258515   6.196   2.623   5.189 -0.8242 -1.4922 -1.8606
12342TIP3   OH258516   4.166   0.947  14.203  0.4958  0.1259  0.1266
12342TIP3    H158517   4.155   0.905  14.288  0.8967  1.1552  0.6909
12342TIP3    H258518   4.238   1.008  14.215 -0.5015  1.4702 -0.4937
12343TIP3   OH258519   1.727   2.775  10.801  0.7438 -0.4324 -0.3413
12343TIP3    H158520   1.763   2.701  10.752  0.8007 -0.6696  0.0528
12343TIP3    H258521   1.711   2.842  10.735  0.6556 -0.8106 -0.7110
12344TIP3   OH258522   2.602   6.313  11.441 -1.1953  0.8933 -0.4125
12344TIP3    H158523   2.622   6.386  11.499  2.2536 -0.9553  1.0351
12344TIP3    H258524   2.679   6.305  11.384 -0.5719 -2.5166  0.6525
12345TIP3   OH258525   6.656   0.530   4.563 -0.1878 -0.1867 -0.1725
12345TIP3    H158526   6.560   0.539   4.567 -0.1469  1.3234 -1.5220
12345TIP3    H258527   6.675   0.526   4.470  1.0904 -0.0927  0.0737
12346TIP3   OH258528   5.590   1.770  14.262  0.0804 -0.4562  0.1926
12346TIP3    H158529   5.625   1.794  14.348 -0.1886 -1.4839  0.6165
12346TIP3    H258530   5.496   1.764  14.276 -0.1248  0.7591 -0.5470
12347TIP3   OH258531   4.444   5.630   4.620  0.0932  0.1446 -0.3862
12347TIP3    H158532   4.355   5.605   4.646  0.0126 -1.4763 -1.9629
12347TIP3    H258533   4.501   5.570   4.667  0.5211  2.0737  1.6910
12348TIP3   OH258534   0.142   5.381   3.402  0.2316 -0.4392  0.4586
12348TIP3    H158535   0.114   5.426   3.481  0.2594 -0.1773  0.3199
12348TIP3    H258536   0.205   5.316   3.433  1.4698  0.7331  0.4957
12349TIP3   OH258537   2.776   1.643  15.860  0.7437 -0.0668  0.4143
12349TIP3    H158538   2.691   1.616  15.893  1.2396 -0.5909  1.3178
12349TIP3    H258539   2.807   1.567  15.809  0.7619  0.0376  0.2698
12350TIP3   OH258540   1.159   2.040   4.348 -0.6024  0.3564  0.4832
12350TIP3    H158541   1.200   2.047   4.434 -0.4516 -1.1110  0.5565
12350TIP3    H258542   1.231   2.024   4.287 -0.8635 -0.3775  0.3502
12351TIP3   OH258543   6.169   2.088  14.447 -0.2578  0.2858 -0.1731
12351TIP3    H158544   6.180   2.004  14.402  1.4657 -0.1445  0.9268
12351TIP3    H258545   6.089   2.078  14.498 -0.0544 -0.7202 -0.0341
12352TIP3   OH258546   5.440   3.072   5.249 -0.4087 -0.2722 -0.0689
12352TIP3    H158547   5.362   3.025   5.279 -1.1217  0.7749 -0.1886
12352TIP3    H258548   5.422   3.092   5.157 -0.3013  0.5508  0.0825
12353TIP3   OH258549   3.709   0.835   3.220  0.3837  0.5548  0.1581
12353TIP3    H158550   3.675   0.899   3.283  1.7976  0.7285  0.7872
12353TIP3    H258551   3.653   0.845   3.143 -1.4299  0.2935  1.3807
12354TIP3   OH258552   3.276   4.893  12.075 -0.5876  0.2567 -0.1583
12354TIP3    H158553   3.349   4.935  12.030  1.1499 -3.0685 -0.7529
12354TIP3    H258554   3.259   4.949  12.150  1.1314  2.2607 -1.1567
12355TIP3   OH258555   2.178   1.306  11.859 -0.3869  0.4579 -0.1782
12355TIP3    H158556   2.182   1.373  11.927 -0.5618  1.3438 -1.0126
12355TIP3    H258557   2.261   1.313  11.813 -0.6667  0.5518 -0.6805
12356TIP3   OH258558   3.740   1.858   5.667 -0.2331  0.5610  0.1532
12356TIP3    H158559   3.816   1.800   5.660 -1.2488 -0.8137  0.1129
12356TIP3    H258560   3.751   1.921   5.595 -1.2168 -2.2029 -2.6430
12357TIP3   OH258561   0.302   6.514   6.480  0.3478 -0.3151 -0.0433
12357TIP3    H158562   0.257   6.463   6.547 -0.5171  0.2039 -0.2123
12357TIP3    H258563   0.395   6.498   6.495  0.2886  1.1216  2.3900
12358TIP3   OH258564   4.184   5.613   3.537  0.3155 -0.1864  0.0026
12358TIP3    H158565   4.141   5.558   3.471  0.7954 -1.1029  0.4291
12358TIP3    H258566   4.226   5.682   3.488  0.4984 -0.7480 -0.6398
12359TIP3   OH258567   5.236   1.967  14.186  0.1158 -0.2042 -0.4499
12359TIP3    H158568   5.283   2.050  14.196  0.0485 -0.0572 -1.2999
12359TIP3    H258569   5.272   1.911  14.255  0.7533  0.2646 -0.3954
12360TIP3   OH258570   2.704   6.436  12.109 -0.3615 -0.3624  0.2047
12360TIP3    H158571   2.638   6.388  12.059 -2.6560  1.2732  1.4945
12360TIP3    H258572   2.725   6.378  12.183 -0.3027 -0.9041 -0.2328
12361TIP3   OH258573   2.380   2.629   1.691 -1.1531 -0.1372  0.5669
12361TIP3    H158574   2.431   2.693   1.740  0.1243  0.6485 -1.6493
12361TIP3    H258575   2.444   2.563   1.664 -1.7382 -0.3257 -0.3966
12362TIP3   OH258576   3.411   3.551   3.991 -0.1844  0.4958  0.1518
12362TIP3    H158577   3.330   3.513   4.023  0.2383 -0.0179  0.6372
12362TIP3    H258578   3.386   3.637   3.957 -1.0713 -0.0025 -0.4964
12363TIP3   OH258579   6.631   4.266   1.558 -0.0441  0.3521 -0.0776
12363TIP3    H158580   6.617   4.317   1.478 -1.1863 -1.5495 -1.1551
12363TIP3    H258581   6.598   4.322   1.628  0.3420  1.7719 -0.9815
12364TIP3   OH258582   1.846   3.339  10.596 -0.0988  0.2273 -0.3683
12364TIP3    H158583   1.870   3.319  10.505  0.3447 -0.5618 -0.0927
12364TIP3    H258584   1.801   3.260  10.626  0.5868  0.1192  0.3873
12365TIP3   OH258585   4.825   6.313   3.933 -0.2025 -0.2523  0.2696
12365TIP3    H158586   4.730   6.305   3.935 -0.2325  0.1918  1.5494
12365TIP3    H258587   4.858   6.229   3.965 -0.2655  0.5608  2.6692
12366TIP3   OH258588   3.022   6.364   3.879 -0.2003  0.2390  0.0527
12366TIP3    H158589   3.041   6.323   3.963  0.2612  1.0622  0.3653
12366TIP3    H258590   3.052   6.301   3.814 -0.8048 -0.5216  0.4918
12367TIP3   OH258591   3.489   1.838   2.155 -0.0303  0.5611  0.7724
12367TIP3    H158592   3.558   1.796   2.104  1.6106  1.6450  2.0240
12367TIP3    H258593   3.411   1.785   2.138  0.4427  0.7826 -2.7032
12368TIP3   OH258594   3.412   1.906  16.827 -0.0768  0.1045 -0.0260
12368TIP3    H158595   3.483   1.844  16.812  0.1236  0.1073  0.8438
12368TIP3    H258596   3.438   1.954  16.906 -1.5781 -0.6959  1.0055
12369TIP3   OH258597   3.707   4.852  13.392 -0.3985  0.0241  0.4581
12369TIP3    H158598   3.655   4.926  13.423 -1.5484 -1.3109  1.8745
12369TIP3    H258599   3.651   4.809  13.327 -0.5673 -0.6943  1.0635
12370TIP3   OH258600   2.543   6.727   3.132 -0.1344 -0.3242 -0.5484
12370TIP3    H158601   2.458   6.702   3.095 -0.8510  1.3082 -0.0690
12370TIP3    H258602   2.523   6.794   3.197  1.3369 -1.3267  1.0298
12371TIP3   OH258603   1.183   3.745   4.580  0.6591  0.2748 -0.4882
12371TIP3    H158604   1.189   3.706   4.493 -0.9057 -0.5618 -0.2517
12371TIP3    H258605   1.235   3.825   4.574 -0.7109  1.0732 -2.6769
12372TIP3   OH258606   6.808   1.478   0.428  0.1512  0.1767  0.6715
12372TIP3    H158607   6.832   1.415   0.361 -0.0481 -0.4686  1.2003
12372TIP3    H258608   6.797   1.561   0.380 -1.3434 -0.5458 -0.3246
12373TIP3   OH258609   3.424   3.398   0.154 -0.4916 -0.5906  0.3367
12373TIP3    H158610   3.354   3.454   0.188 -0.5216  1.3785 -2.5385
12373TIP3    H258611   3.502   3.454   0.156  0.2401 -1.5825  0.3699
12374TIP3   OH258612   6.308   3.394  14.250  0.4634  0.1630  0.1385
12374TIP3    H158613   6.298   3.461  14.318  0.4760 -0.2865  0.5917
12374TIP3    H258614   6.283   3.312  14.294 -0.1164 -0.0541 -0.5706
12375TIP3   OH258615   3.432   4.852  11.260  0.5302  0.2946  0.5504
12375TIP3    H158616   3.471   4.924  11.309  0.2118  0.6431  0.2971
12375TIP3    H258617   3.367   4.815  11.320  0.0174  0.8320  0.3318
12376TIP3   OH258618   5.805   4.209   5.258 -0.0866  0.3419  0.4133
12376TIP3    H158619   5.753   4.275   5.304 -0.0087  1.5331 -1.1259
12376TIP3    H258620   5.753   4.129   5.263 -0.1624  0.4715  2.3594
12377TIP3   OH258621   5.880   0.027   3.083  0.0249  0.1984 -0.1763
12377TIP3    H158622   5.843   0.037   3.170  0.6835  0.6407  0.0590
12377TIP3    H258623   5.823  -0.036   3.040  0.6604 -1.3341  1.1407
12378TIP3   OH258624   0.596   0.935   4.322  0.3425 -0.2928  0.1222
12378TIP3    H158625   0.554   0.905   4.242 -0.0293 -1.4167  0.6990
12378TIP3    H258626   0.600   1.030   4.314  0.8628 -0.4194 -1.4758
12379TIP3   OH258627   2.861   1.296   0.731 -0.3977  0.4793  0.2772
12379TIP3    H158628   2.786   1.343   0.768 -1.5412 -0.5273 -0.6559
12379TIP3    H258629   2.914   1.272   0.807 -1.6651  0.1672  1.1050
12380TIP3   OH258630   4.061   0.896   6.099  0.2373  0.1038 -0.0950
12380TIP3    H158631   4.025   0.863   6.016 -0.0680  0.1288  0.0255
12380TIP3    H258632   4.079   0.817   6.149 -0.4493  0.1098  0.1743
12381TIP3   OH258633   2.246   5.923  16.749 -0.6120 -0.3638  0.4212
12381TIP3    H158634   2.199   5.992  16.795  0.3889  1.3499 -0.9981
12381TIP3    H258635   2.264   5.857  16.817 -1.4286  0.8363  1.8718
12382TIP3   OH258636   2.258   4.773   0.424 -0.3139 -0.3675  0.3411
12382TIP3    H158637   2.223   4.721   0.497 -0.6653  1.0671  1.2259
12382TIP3    H258638   2.346   4.797   0.452  0.7038 -2.2575 -1.0153
12383TIP3   OH258639   6.260   6.386  12.669  0.1717 -0.1671  0.1707
12383TIP3    H158640   6.221   6.335  12.598  0.2950  0.7647 -0.5878
12383TIP3    H258641   6.344   6.343  12.686 -0.7207 -1.6106  1.1677
12384TIP3   OH258642   6.743   5.069  11.549 -0.1203  0.2343  0.0821
12384TIP3    H158643   6.782   5.136  11.493  1.7105 -0.7663  0.0666
12384TIP3    H258644   6.773   4.986  11.511 -0.7028 -0.5284  1.2318
12385TIP3   OH258645   1.439   1.860  10.972  0.3969  0.4961  0.3232
12385TIP3    H158646   1.368   1.840  10.911  0.8120 -0.4711  0.1374
12385TIP3    H258647   1.500   1.914  10.922  0.9504 -0.6519 -0.2784
12386TIP3   OH258648   0.670   3.262  12.258 -0.1116 -0.4543 -0.2731
12386TIP3    H158649   0.717   3.288  12.337 -0.6558 -0.6514  0.1208
12386TIP3    H258650   0.579   3.258  12.285 -0.2445 -1.0084 -0.7881
12387TIP3   OH258651   0.120   5.563   5.090 -0.5335 -0.3749  0.1067
12387TIP3    H158652   0.097   5.482   5.045 -0.8663 -0.6872  0.8221
12387TIP3    H258653   0.101   5.546   5.182  2.4818 -0.6618  0.8061
12388TIP3   OH258654   4.987   2.290  14.245  0.1219 -0.3563  0.1194
12388TIP3    H158655   5.073   2.321  14.215  0.2490 -0.7261  0.0967
12388TIP3    H258656   4.941   2.264  14.166 -0.0713 -0.0107  0.1179
12389TIP3   OH258657   0.829   5.594  11.908  0.1112 -0.5616  0.6623
12389TIP3    H158658   0.762   5.529  11.885  0.7428 -0.5471 -1.4593
12389TIP3    H258659   0.893   5.545  11.960 -0.2097 -1.2514  0.4269
12390TIP3   OH258660   6.208   1.260  11.531  0.0412 -0.2914  0.3531
12390TIP3    H158661   6.146   1.246  11.459  0.8010 -1.1465 -0.1585
12390TIP3    H258662   6.294   1.256  11.489  0.6017 -2.7413  1.5441
12391TIP3   OH258663   6.106   1.954  10.916  0.1609 -0.0736  0.3099
12391TIP3    H158664   6.046   1.988  10.849  0.8129 -1.0740 -0.7948
12391TIP3    H258665   6.191   1.991  10.893  0.5921 -1.2510 -0.0453
12392TIP3   OH258666   5.230   1.547  15.613 -0.3057 -0.8396 -0.0252
12392TIP3    H158667   5.259   1.598  15.689  0.9421 -0.3171 -0.8218
12392TIP3    H258668   5.262   1.596  15.538 -2.4726 -0.7539 -0.9737
12393TIP3   OH258669   0.133   4.015  15.667 -0.7014  0.2214  0.1292
12393TIP3    H158670   0.043   3.996  15.641 -0.7132  1.9469 -1.2234
12393TIP3    H258671   0.181   3.935  15.645 -1.3976  0.2968 -1.8373
12394TIP3   OH258672   2.612   1.646  12.818  0.4777 -0.1285 -0.4396
12394TIP3    H158673   2.627   1.620  12.909  2.2288 -0.2171 -0.7213
12394TIP3    H258674   2.636   1.570  12.767  2.2840  0.8250 -1.0989
12395TIP3   OH258675   2.624   6.160   4.969 -0.5888  0.3301  0.1259
12395TIP3    H158676   2.646   6.232   4.911  0.5163  2.1362  2.6125
12395TIP3    H258677   2.701   6.150   5.026 -1.3693 -1.7277  0.9311
12396TIP3   OH258678   2.413   1.716   4.568  0.9049 -0.0102  0.2318
12396TIP3    H158679   2.501   1.753   4.571  1.6862 -1.4315 -2.5568
12396TIP3    H258680   2.392   1.709   4.475 -2.8506  1.7114  0.7598
12397TIP3   OH258681   2.125   4.742   5.704  0.6152  0.2165 -0.1798
12397TIP3    H158682   2.104   4.828   5.739  0.1966 -0.2513  0.7530
12397TIP3    H258683   2.057   4.725   5.639  0.9735  0.7777 -0.7192
12398TIP3   OH258684   5.781   0.009   4.919  0.1753 -0.3472  0.1511
12398TIP3    H158685   5.782  -0.025   4.829  1.4276 -1.3260  0.5050
12398TIP3    H258686   5.832   0.090   4.914  0.5981 -0.6148  0.0505
12399TIP3   OH258687   6.105   2.611   5.955  0.1474  0.2859 -0.5362
12399TIP3    H158688   6.050   2.552   5.903  1.5392 -2.2337  0.6880
12399TIP3    H258689   6.195   2.588   5.931  0.7666  1.1962  0.7546
12400TIP3   OH258690   2.723   2.479  11.363 -0.3338 -0.2452 -0.0747
12400TIP3    H158691   2.655   2.541  11.386  0.3839  0.3894  0.3835
12400TIP3    H258692   2.678   2.413  11.310 -1.1381  0.5778 -0.4533
12401TIP3   OH258693   6.688   6.557   3.848 -0.1408 -0.1797  0.3593
12401TIP3    H158694   6.668   6.468   3.820 -1.7662  0.6515 -1.3801
12401TIP3    H258695   6.678   6.555   3.944 -1.4893 -1.5551  0.2231
12402TIP3   OH258696   1.526   5.395   3.853  0.0937  0.5823  0.1861
12402TIP3    H158697   1.452   5.402   3.792  0.7847  2.6157 -0.5178
12402TIP3    H258698   1.496   5.442   3.931 -0.1600 -0.5650  0.8051
12403TIP3   OH258699   2.452   2.887  15.494 -0.4092  0.6892 -1.1755
12403TIP3    H158700   2.390   2.818  15.473  0.4757 -0.0903 -1.3210
12403TIP3    H258701   2.401   2.968  15.491 -1.0862  0.2422 -2.8111
12404TIP3   OH258702   5.432   4.779  13.473 -0.0055 -0.4693 -0.3654
12404TIP3    H158703   5.476   4.756  13.555 -0.2528 -1.5383 -0.5207
12404TIP3    H258704   5.400   4.696  13.438  0.7233 -0.1404 -1.9192
12405TIP3   OH258705   5.298   4.256  13.866 -0.1216  0.1374  0.1664
12405TIP3    H158706   5.298   4.177  13.920  2.3196  0.6789  1.0609
12405TIP3    H258707   5.298   4.224  13.776 -0.3919 -0.8475  0.5056
12406TIP3   OH258708   5.745   6.416  15.699  0.5639  0.1653 -0.2561
12406TIP3    H158709   5.728   6.399  15.792  1.8704 -0.1601 -0.0561
12406TIP3    H258710   5.815   6.481  15.699  1.8379 -1.1722 -0.9947
12407TIP3   OH258711   2.509   6.351  16.990 -0.2454 -0.1658 -0.1046
12407TIP3    H158712   2.589   6.335  16.940 -0.1236 -0.3709  0.1550
12407TIP3    H258713   2.454   6.276  16.971 -0.6250  0.2673 -0.7620
12408TIP3   OH258714   5.475   6.203   4.251  0.7479 -0.5243 -0.0995
12408TIP3    H158715   5.566   6.231   4.256  0.1282  1.5374  0.6410
12408TIP3    H258716   5.446   6.232   4.165  0.5736 -0.5095 -0.0348
12409TIP3   OH258717   0.316   4.364  13.215  0.6490  0.1404  0.0712
12409TIP3    H158718   0.304   4.357  13.310  0.0519 -3.0076 -0.1393
12409TIP3    H258719   0.243   4.419  13.186 -0.7759 -1.1060  1.1727
12410TIP3   OH258720   3.930   3.981  14.008 -0.0054 -0.0494  0.1228
12410TIP3    H158721   3.890   3.900  13.976 -0.1712  0.4882 -1.0770
12410TIP3    H258722   4.024   3.968  13.993  0.1265 -0.5644  1.2405
12411TIP3   OH258723   2.325   2.969  16.023  1.1016  0.4277  0.0393
12411TIP3    H158724   2.355   2.897  15.968  0.5832  0.4019 -0.2176
12411TIP3    H258725   2.354   2.947  16.111  1.8610  0.4249 -0.2107
12412TIP3   OH258726   6.310   4.640  11.297  0.2382  0.1409 -0.1501
12412TIP3    H158727   6.250   4.714  11.302 -0.6178 -0.5572  0.0639
12412TIP3    H258728   6.309   4.614  11.204  1.1751  0.8887 -0.3943
12413TIP3   OH258729   0.849   0.432   2.362  0.0963  0.5383  0.4424
12413TIP3    H158730   0.835   0.379   2.440  1.0737 -0.9668 -0.3605
12413TIP3    H258731   0.939   0.464   2.370  0.5434 -0.4236 -0.4967
12414TIP3   OH258732   5.752   3.072   1.190  0.1604  0.0573  0.3157
12414TIP3    H158733   5.678   3.012   1.179  1.6702 -1.6087 -1.4075
12414TIP3    H258734   5.724   3.152   1.147 -0.5137 -0.7063 -0.7209
12415TIP3   OH258735   1.329   4.464  10.845 -0.0025 -0.6520  0.6239
12415TIP3    H158736   1.400   4.425  10.896  1.6159  1.8264  0.4464
12415TIP3    H258737   1.357   4.555  10.831 -1.5237 -0.5413 -2.5545
12416TIP3   OH258738   1.254   6.629   5.816  0.8376 -0.9092 -0.0377
12416TIP3    H158739   1.281   6.717   5.843  2.1051 -1.0783 -0.6685
12416TIP3    H258740   1.275   6.574   5.891 -0.6148 -0.5873  0.6305
12417TIP3   OH258741   0.194   0.418   4.232 -0.0538  0.0742  0.0495
12417TIP3    H158742   0.158   0.504   4.252  1.3324  0.9136 -0.8404
12417TIP3    H258743   0.260   0.436   4.164 -0.4912 -1.8322 -0.9294
12418TIP3   OH258744   5.966   3.240   0.392  0.6792  0.4851 -0.8869
12418TIP3    H158745   5.885   3.277   0.357 -0.1584 -1.3120 -0.9710
12418TIP3    H258746   5.946   3.223   0.484  1.6859  1.9205 -0.3674
12419TIP3   OH258747   4.626   4.058  16.595 -0.4656  0.0209 -0.6260
12419TIP3    H158748   4.640   3.964  16.607 -0.7108  0.2345  1.9990
12419TIP3    H258749   4.531   4.069  16.602 -0.3490  0.5611  0.2683
12420TIP3   OH258750   2.222   0.266   6.316 -0.1561  0.0930  0.1107
12420TIP3    H158751   2.253   0.187   6.271  3.4688  0.6275  1.4106
12420TIP3    H258752   2.237   0.248   6.409 -0.3416  1.9040  0.5205
12421TIP3   OH258753   4.669   5.262  13.555  0.3172 -0.2035 -0.5711
12421TIP3    H158754   4.681   5.304  13.641  0.4722  2.0380 -1.6260
12421TIP3    H258755   4.593   5.206  13.566 -1.2628  1.9936  0.4028
12422TIP3   OH258756   6.729   6.730  14.451  0.2999  0.1215  0.1271
12422TIP3    H158757   6.739   6.638  14.476 -0.1348 -0.4286 -1.5490
12422TIP3    H258758   6.701   6.774  14.531  1.2424 -1.0589  1.1552
12423TIP3   OH258759   5.646   6.686   5.699 -0.1597 -0.0433 -0.0688
12423TIP3    H158760   5.673   6.648   5.783  0.3960 -1.3305 -0.8158
12423TIP3    H258761   5.577   6.628   5.667  1.5374 -1.2230 -1.7996
12424TIP3   OH258762   5.943   1.039   6.031 -0.2136  0.2047 -0.4578
12424TIP3    H158763   5.890   0.980   6.085  1.4949 -0.6743  0.3612
12424TIP3    H258764   5.984   1.098   6.094  0.2632  0.4640 -1.0059
12425TIP3   OH258765   5.097   1.299   2.264  0.0690 -0.2091  0.1008
12425TIP3    H158766   5.139   1.380   2.292 -0.7287 -0.3073  1.6461
12425TIP3    H258767   5.139   1.279   2.180  0.2767  1.7797 -0.3161
12426TIP3   OH258768   2.831   2.119  16.528 -0.2402  0.4230 -0.4860
12426TIP3    H158769   2.913   2.105  16.479  0.5172  1.7540  0.3442
12426TIP3    H258770   2.824   2.214  16.537 -1.1195  0.2617  0.7295
12427TIP3   OH258771   4.293   5.370   5.377 -0.0844 -0.0210  0.0909
12427TIP3    H158772   4.351   5.378   5.301 -1.5832 -0.6726 -1.1612
12427TIP3    H258773   4.313   5.284   5.413 -0.1297 -0.1687 -0.2270
12428TIP3   OH258774   5.923   1.803  14.483  0.1700 -0.4594 -0.5822
12428TIP3    H158775   5.973   1.757  14.415  0.3411 -1.6372  0.3179
12428TIP3    H258776   5.883   1.733  14.534  0.6884  0.3822  1.0229
12429TIP3   OH258777   2.207   6.642   4.096  0.0682  0.4612 -0.3077
12429TIP3    H158778   2.193   6.636   4.191 -1.7988 -1.0891 -0.6253
12429TIP3    H258779   2.254   6.562   4.074 -0.5916  0.2063 -0.8276
12430TIP3   OH258780   0.644   6.115  15.895 -0.4442 -0.3717  0.2501
12430TIP3    H158781   0.739   6.123  15.895 -0.3495 -1.1720  2.2084
12430TIP3    H258782   0.621   6.106  15.802  1.4063 -0.5336 -0.2235
12431TIP3   OH258783   5.339   5.567   0.500 -0.0401 -1.0280  0.6084
12431TIP3    H158784   5.276   5.635   0.476  0.6882 -0.8162 -0.8371
12431TIP3    H258785   5.287   5.501   0.546 -1.0116 -0.1300  0.8395
12432TIP3   OH258786   4.357   1.791  16.992 -0.0732 -0.6719  0.1721
12432TIP3    H158787   4.375   1.885  17.000 -0.1041 -0.7212  0.8595
12432TIP3    H258788   4.401   1.766  16.911 -0.9966  0.1564 -0.6213
12433TIP3   OH258789   2.535   5.303  14.212  0.2973 -0.2635  0.7574
12433TIP3    H158790   2.507   5.392  14.191  0.6231  0.0367  1.5518
12433TIP3    H258791   2.483   5.247  14.155 -0.3721  0.4037  0.7008
12434TIP3   OH258792   1.424   2.806   4.929 -0.0258 -0.8510  0.1071
12434TIP3    H158793   1.482   2.879   4.948 -0.9617 -0.1217  0.2396
12434TIP3    H258794   1.348   2.846   4.885 -0.1119 -1.8708 -0.7045
12435TIP3   OH258795   3.347   4.621   0.286 -0.0167 -0.0119 -0.4984
12435TIP3    H158796   3.270   4.677   0.289  0.7277  1.0762 -1.1117
12435TIP3    H258797   3.420   4.681   0.270  0.9536 -1.0262 -0.0114
12436TIP3   OH258798   3.346   2.468  12.608 -0.9125  0.2850  0.1182
12436TIP3    H158799   3.268   2.418  12.586 -0.5750 -1.4515  2.5308
12436TIP3    H258800   3.392   2.414  12.672  1.6687  1.8032 -0.3109
12437TIP3   OH258801   3.448   4.220   3.584 -0.3595  0.6757  0.2369
12437TIP3    H158802   3.414   4.303   3.617 -1.3574 -0.0022  0.9615
12437TIP3    H258803   3.425   4.220   3.491 -1.6421  0.6026  0.5338
12438TIP3   OH258804   3.993   5.827  12.974  0.4183  0.3370  0.0566
12438TIP3    H158805   4.026   5.912  12.946 -0.1957  1.3215  2.0992
12438TIP3    H258806   3.904   5.823  12.939 -0.3030  1.5002  1.6312
12439TIP3   OH258807   5.192   2.001   2.207 -0.6617  0.6048 -0.2751
12439TIP3    H158808   5.122   1.990   2.143 -0.8131 -1.6715  0.1779
12439TIP3    H258809   5.246   2.072   2.172 -1.2659  0.0734 -2.4435
12440TIP3   OH258810   5.573   5.254   2.135 -0.4045 -0.2335  0.2643
12440TIP3    H158811   5.587   5.177   2.080  0.9873 -1.1382  1.7979
12440TIP3    H258812   5.534   5.219   2.215 -1.4881  0.9309  0.2803
12441TIP3   OH258813   0.897   0.449  11.380  0.2813 -0.6587  0.1522
12441TIP3    H158814   0.919   0.490  11.463 -0.4261 -2.1932  1.1518
12441TIP3    H258815   0.837   0.510  11.337 -0.1525 -0.3005  1.2398
12442TIP3   OH258816   2.326   4.739  14.302 -0.0443  0.1485 -0.3140
12442TIP3    H158817   2.295   4.830  14.306  1.7366  0.7295  1.9881
12442TIP3    H258818   2.421   4.746  14.293  0.0682 -1.5307 -0.8308
12443TIP3   OH258819   5.818   2.807   4.539 -0.2522  0.3871  0.6175
12443TIP3    H158820   5.904   2.777   4.510 -0.1220  0.9542  0.4069
12443TIP3    H258821   5.812   2.898   4.509 -2.3280 -0.6327 -2.5236
12444TIP3   OH258822   2.464   4.667   6.122  0.4686 -0.2394 -0.0568
12444TIP3    H158823   2.467   4.763   6.114  2.9922 -0.4102 -2.5599
12444TIP3    H258824   2.442   4.652   6.214  1.0370  2.7588  0.6933
12445TIP3   OH258825   3.736   5.668  16.672 -0.1193  0.4372 -0.1088
12445TIP3    H158826   3.675   5.730  16.633 -0.8584 -1.6084 -2.5214
12445TIP3    H258827   3.682   5.616  16.732  0.2679  1.3845  1.0954
12446TIP3   OH258828   6.371   2.370  11.510  0.4504  0.4201 -0.2492
12446TIP3    H158829   6.437   2.362  11.442  0.3881 -0.6065 -0.2043
12446TIP3    H258830   6.419   2.403  11.586  1.2154 -1.5876  0.1849
12447TIP3   OH258831   2.180   1.621  11.668 -0.0907  0.0181 -0.4583
12447TIP3    H158832   2.252   1.612  11.605  0.3660 -0.0742  0.0743
12447TIP3    H258833   2.223   1.622  11.754 -0.8105 -1.2914 -0.0563
12448TIP3   OH258834   3.192   6.462  10.697 -0.7685  0.0250  0.0794
12448TIP3    H158835   3.288   6.456  10.702 -0.7837 -1.8204 -1.0557
12448TIP3    H258836   3.175   6.504  10.613 -0.9415 -1.5210 -0.6941
12449TIP3   OH258837   5.291   5.179   4.186  0.5970 -0.9886 -0.1555
12449TIP3    H158838   5.246   5.216   4.110 -0.0229 -1.6512 -0.1259
12449TIP3    H258839   5.317   5.255   4.238  1.7088 -0.4767 -1.3820
12450TIP3   OH258840   1.998   6.371  12.007 -0.2407  0.6016 -0.3054
12450TIP3    H158841   1.991   6.399  12.098  1.4687  1.0760 -0.2956
12450TIP3    H258842   1.996   6.453  11.957  0.0946  0.4264 -0.6072
12451TIP3   OH258843   5.203   1.052   3.663 -0.1629  0.2395 -0.3799
12451TIP3    H158844   5.206   0.968   3.710 -0.0345  0.8380  0.6992
12451TIP3    H258845   5.112   1.079   3.667 -0.2482  0.0579 -0.9286
12452TIP3   OH258846   0.037   2.201   0.638  0.0957 -0.2077 -0.5048
12452TIP3    H158847   0.044   2.289   0.675  0.8188 -0.6411  0.4094
12452TIP3    H258848  -0.021   2.212   0.562 -0.1485  0.9759 -0.1662
12453TIP3   OH258849   3.036   0.437   1.202  0.0901 -0.0451  0.7068
12453TIP3    H158850   3.124   0.439   1.165  0.0690 -0.6612  0.6152
12453TIP3    H258851   2.997   0.356   1.168 -0.4670  0.1570  0.8486
12454TIP3   OH258852   4.361   1.093  12.404 -0.1365  0.1644 -0.4281
12454TIP3    H158853   4.336   1.016  12.353  2.1094  0.4978 -2.1976
12454TIP3    H258854   4.294   1.099  12.472 -1.5314 -2.1345 -1.4579
12455TIP3   OH258855   3.216   2.584   4.451  0.0705 -0.4420 -0.3114
12455TIP3    H158856   3.124   2.597   4.472  0.0622  0.2066 -0.7317
12455TIP3    H258857   3.228   2.626   4.366  1.5007  2.7700  1.2696
12456TIP3   OH258858   4.754   0.620   0.615 -0.1532 -0.2280  0.3388
12456TIP3    H158859   4.698   0.544   0.627 -0.0240 -0.2629  0.7468
12456TIP3    H258860   4.702   0.681   0.562 -0.5868 -0.2492  0.7376
12457TIP3   OH258861   3.833   5.426   4.335 -0.5756 -0.0537 -0.2613
12457TIP3    H158862   3.764   5.483   4.366  1.1673  2.2782 -0.4394
12457TIP3    H258863   3.817   5.418   4.240  0.7279  2.5436 -0.7666
12458TIP3   OH258864   0.959   3.797   2.901  0.7254  0.3024  0.6223
12458TIP3    H158865   0.900   3.772   2.972  0.7340 -0.6424  0.3151
12458TIP3    H258866   0.924   3.880   2.868 -0.4790 -0.2731  0.3938
12459TIP3   OH258867   0.142   0.171   2.841 -0.4533  0.5448 -0.1199
12459TIP3    H158868   0.201   0.233   2.798  0.3389  0.6445  1.0541
12459TIP3    H258869   0.064   0.169   2.785 -1.2256  3.8536  0.6361
12460TIP3   OH258870   6.678   0.892   4.155 -0.6096  0.4631  0.6073
12460TIP3    H158871   6.625   0.879   4.234 -0.9884 -0.6032  0.1974
12460TIP3    H258872   6.615   0.885   4.083 -0.1065  0.3882  0.1701
12461TIP3   OH258873   0.117   2.781  17.144  0.3131  0.2527 -0.0108
12461TIP3    H158874   0.037   2.818  17.108  1.0174  1.5222 -0.3502
12461TIP3    H258875   0.146   2.717  17.079 -0.3343 -0.1104  0.0505
12462TIP3   OH258876   1.342   0.864   3.880 -0.4210 -0.2110  0.3147
12462TIP3    H158877   1.382   0.943   3.917  0.7324 -0.6876  0.1182
12462TIP3    H258878   1.344   0.877   3.786 -1.7775  0.2397  0.3217
12463TIP3   OH258879   6.732   1.409  16.350  0.4679 -0.0477  0.7062
12463TIP3    H158880   6.753   1.447  16.264  0.7592  0.3871  0.9637
12463TIP3    H258881   6.817   1.381  16.385  0.2943 -0.6615  0.6542
12464TIP3   OH258882   0.124   1.701   3.047  0.2200  0.5851  0.1369
12464TIP3    H158883   0.081   1.771   3.096 -2.1410 -1.0540  0.5431
12464TIP3    H258884   0.110   1.724   2.955  0.3651  1.1391  0.2456
12465TIP3   OH258885   6.439   3.578  13.330  0.1295 -0.5422  0.3497
12465TIP3    H158886   6.430   3.673  13.321  0.1988 -0.4389  1.3268
12465TIP3    H258887   6.534   3.562  13.323  0.0522 -0.6451 -0.6713
12466TIP3   OH258888   0.295   1.228  16.860 -0.9355 -0.2192 -0.1091
12466TIP3    H158889   0.348   1.306  16.874 -0.4448 -0.3040 -1.4017
12466TIP3    H258890   0.208   1.252  16.893 -0.4538  0.3912  0.7529
12467TIP3   OH258891   2.166   2.610   5.963 -0.4857  0.2558 -0.3494
12467TIP3    H158892   2.207   2.627   6.048  1.6188  1.6677 -1.5414
12467TIP3    H258893   2.072   2.615   5.980 -0.1667 -0.6008  2.0642
12468TIP3   OH258894   4.510   5.138   2.034 -0.1423 -0.4553 -0.8441
12468TIP3    H158895   4.417   5.114   2.027  0.0925 -2.1781  0.9033
12468TIP3    H258896   4.557   5.063   1.999  0.5919 -0.3878 -0.0388
12469TIP3   OH258897   4.414   4.685   3.621  0.0248 -1.0461  0.5518
12469TIP3    H158898   4.330   4.720   3.649  0.4592  0.9912 -0.5159
12469TIP3    H258899   4.473   4.761   3.621  1.5176 -2.1521 -0.0579
12470TIP3   OH258900   1.255   1.792  10.742 -0.3652  0.3850  0.5109
12470TIP3    H158901   1.239   1.698  10.755 -0.4189  0.4651  1.0447
12470TIP3    H258902   1.179   1.823  10.694 -0.8082  0.3417  1.1758
12471TIP3   OH258903   4.988   6.617  15.658 -0.0983 -0.2027  0.6035
12471TIP3    H158904   4.961   6.539  15.609 -0.6662 -1.0862  2.2277
12471TIP3    H258905   5.080   6.628  15.637  0.2506 -1.9129  1.0605
12472TIP3   OH258906   0.026   1.672   0.188  0.2179  0.2803 -0.6853
12472TIP3    H158907  -0.027   1.749   0.164  1.0246  0.3248 -2.5334
12472TIP3    H258908   0.098   1.708   0.240  1.8481  1.2328 -3.3783
12473TIP3   OH258909   5.980   1.790  14.846  0.5919  0.4328  0.4847
12473TIP3    H158910   6.019   1.867  14.889 -1.3378  0.8777  1.5605
12473TIP3    H258911   6.002   1.717  14.903  3.3367 -0.0816 -1.0802
12474TIP3   OH258912   2.198   0.123   0.127  0.0283 -0.2058  0.4255
12474TIP3    H158913   2.189   0.106   0.033  1.2069  0.7348  0.1243
12474TIP3    H258914   2.108   0.129   0.159 -0.4338  1.8929 -1.0920
12475TIP3   OH258915   5.122   4.224  16.531 -0.2677 -0.2772 -0.3231
12475TIP3    H158916   5.134   4.193  16.620 -1.9424  0.7703  0.3071
12475TIP3    H258917   5.117   4.319  16.539  1.8418  0.0306 -1.8389
12476TIP3   OH258918   4.685   5.965  12.142  0.5130 -0.4102  0.3876
12476TIP3    H158919   4.614   6.020  12.176 -0.4257 -1.0856 -0.4302
12476TIP3    H258920   4.691   5.989  12.049 -0.8278 -2.5727 -0.3246
12477TIP3   OH258921   3.690   0.001   3.780  0.4733  0.2844 -0.1718
12477TIP3    H158922   3.782   0.022   3.766  1.0852 -0.3994  2.2984
12477TIP3    H258923   3.691  -0.088   3.816 -1.0572  0.5784  0.7041
12478TIP3   OH258924   3.199   1.488   5.682  0.4336 -0.4352  0.1963
12478TIP3    H158925   3.120   1.542   5.683 -0.0719 -1.0811 -1.2534
12478TIP3    H258926   3.187   1.426   5.755 -0.8795 -1.1373 -0.5630
12479TIP3   OH258927   3.071   1.425  13.986 -0.4178  0.5488  0.8197
12479TIP3    H158928   3.159   1.459  13.999 -0.4201  0.7060  0.4428
12479TIP3    H258929   3.056   1.368  14.061  0.9708 -1.4794 -0.3542
12480TIP3   OH258930   1.684   0.287  13.819  0.1793 -0.5455 -0.1127
12480TIP3    H158931   1.742   0.335  13.760 -0.4055 -0.7771 -0.8791
12480TIP3    H258932   1.682   0.340  13.899 -0.1190  0.4907 -0.7877
12481TIP3   OH258933   5.631   2.594  10.799 -0.4248 -0.1692  0.2964
12481TIP3    H158934   5.546   2.611  10.841 -0.8045 -1.4934  0.1210
12481TIP3    H258935   5.612   2.595  10.705  0.5877  3.6346 -0.0074
12482TIP3   OH258936   4.060   0.589  11.687 -0.1212 -0.0141  0.5395
12482TIP3    H158937   4.067   0.524  11.618  1.0101  1.7474 -1.0932
12482TIP3    H258938   3.969   0.620  11.682 -0.2297 -0.3708  0.2981
12483TIP3   OH258939   1.989   3.271   4.923  0.6137  0.5980 -0.5789
12483TIP3    H158940   2.067   3.232   4.883  0.1528 -0.3082 -0.6287
12483TIP3    H258941   2.015   3.360   4.945  2.3623 -0.2940  1.3509
12484TIP3   OH258942   5.170   6.251   0.866  0.4446  0.4578  0.1339
12484TIP3    H158943   5.226   6.178   0.837 -0.6559  0.4488 -2.2324
12484TIP3    H258944   5.205   6.275   0.951  0.6351 -3.0845  1.2308
12485TIP3   OH258945   3.781   2.555  16.823 -0.3192  0.2365 -0.0205
12485TIP3    H158946   3.719   2.531  16.892  0.3993 -0.3872  0.4256
12485TIP3    H258947   3.841   2.617  16.865  0.3366 -0.4207  0.0191
12486TIP3   OH258948   4.038   0.399  15.965 -0.4796 -0.2007 -0.3289
12486TIP3    H158949   4.022   0.447  15.884 -0.5278  0.3449 -0.0031
12486TIP3    H258950   3.971   0.432  16.025  0.7574  0.8598  0.5318
12487TIP3   OH258951   1.339   3.380  16.252 -0.1389 -0.6182 -0.2139
12487TIP3    H158952   1.287   3.346  16.180 -2.0659 -1.2153  1.3704
12487TIP3    H258953   1.352   3.305  16.310 -1.3792  0.4913  1.5929
12488TIP3   OH258954   4.655   5.643  13.209 -0.2511 -0.0729 -0.2609
12488TIP3    H158955   4.633   5.552  13.227  1.7028 -0.5291  0.1152
12488TIP3    H258956   4.711   5.669  13.282  1.0864  0.6742 -1.4950
12489TIP3   OH258957   2.986   6.736  16.168  0.2068  0.1662  0.0163
12489TIP3    H158958   3.038   6.704  16.242  0.3540 -1.3010 -0.6668
12489TIP3    H258959   2.943   6.657  16.134  0.2996  0.7565 -1.5600
12490TIP3   OH258960   3.138   3.179   3.169  0.3393 -0.1096 -0.1113
12490TIP3    H158961   3.203   3.161   3.237  0.7690  1.5474 -0.0155
12490TIP3    H258962   3.117   3.272   3.181 -1.9177 -0.5458 -0.2798
12491TIP3   OH258963   1.236   3.390  12.552  0.5640  0.4170  0.1248
12491TIP3    H158964   1.188   3.429  12.478  0.4426  0.3707  0.1788
12491TIP3    H258965   1.168   3.367  12.615  0.7226  1.0741  0.5400
12492TIP3   OH258966   5.265   3.308  15.467 -0.0447 -0.0195  1.3232
12492TIP3    H158967   5.296   3.277  15.382 -0.9177 -0.0319  0.9969
12492TIP3    H258968   5.237   3.229  15.512  1.0242 -0.0870  1.8886
12493TIP3   OH258969   1.673   2.005  16.383  0.2590 -0.1549 -0.5046
12493TIP3    H158970   1.740   2.073  16.383 -1.2175  1.3887  0.1712
12493TIP3    H258971   1.591   2.052  16.396 -0.6925 -2.2118  1.8723
12494TIP3   OH258972   0.465   6.522  15.454  0.4422  0.2924 -0.6902
12494TIP3    H158973   0.538   6.465  15.478  0.8431 -0.1532 -2.7810
12494TIP3    H258974   0.434   6.487  15.371 -0.1713  2.3234 -1.3626
12495TIP3   OH258975   6.275   0.740   5.458 -0.0914 -0.1585  0.4317
12495TIP3    H158976   6.367   0.741   5.484 -0.4683  0.1816  1.8590
12495TIP3    H258977   6.249   0.648   5.463  0.1824 -0.2643 -0.0450
12496TIP3   OH258978   2.424   4.517   0.693 -0.1655 -0.4068  0.5436
12496TIP3    H158979   2.391   4.500   0.781 -0.6373  0.4127  0.5379
12496TIP3    H258980   2.473   4.599   0.702 -0.7600  0.0304 -0.0713
12497TIP3   OH258981   5.703   3.651  13.908 -0.4341 -0.1944  0.3366
12497TIP3    H158982   5.660   3.736  13.904  1.0369  0.5554 -0.2259
12497TIP3    H258983   5.796   3.670  13.894 -0.1652 -1.9686 -0.6210
12498TIP3   OH258984   3.046   6.470  14.591 -0.0406 -0.2592  0.0913
12498TIP3    H158985   3.026   6.392  14.539  0.6030 -0.2942 -0.1153
12498TIP3    H258986   3.111   6.518  14.539  1.6791 -0.9972  1.4386
12499TIP3   OH258987   5.143   1.193  11.356  0.6219  0.1489  0.7290
12499TIP3    H158988   5.136   1.266  11.417  0.0266  0.1434  0.6765
12499TIP3    H258989   5.168   1.232  11.273 -1.1891  0.5145  0.3068
12500TIP3   OH258990   5.604   0.380   0.430 -0.3858 -0.1009  0.0100
12500TIP3    H158991   5.592   0.432   0.509 -0.6151 -0.6453  0.3387
12500TIP3    H258992   5.554   0.426   0.363  3.4355  2.9951 -1.0723
12501TIP3   OH258993   1.568   3.302  12.209  0.4697 -0.5778  0.1553
12501TIP3    H158994   1.660   3.284  12.192  0.7166  0.5996  0.1397
12501TIP3    H258995   1.557   3.395  12.186 -1.2473 -1.2361 -2.0097
12502TIP3   OH258996   2.927   5.788   2.757 -0.8702 -0.1206  0.4910
12502TIP3    H158997   2.843   5.748   2.733 -1.4224  0.3656  1.5353
12502TIP3    H258998   2.965   5.726   2.819  0.0541 -0.8516 -0.7627
12503TIP3   OH258999   3.435   3.252  13.203 -0.4326 -0.1406  0.1818
12503TIP3    H159000   3.380   3.314  13.156 -1.4671 -1.0886  0.1018
12503TIP3    H259001   3.453   3.294  13.287 -0.5075  0.5714 -0.1555
12504TIP3   OH259002   1.577   6.792  14.218  0.2635  0.0398 -0.0557
12504TIP3    H159003   1.571   6.834  14.132 -1.1502 -2.1330 -1.1019
12504TIP3    H259004   1.535   6.707  14.206 -0.0313 -0.3095  2.8246
12505TIP3   OH259005   3.556   3.603  10.803  0.0374 -1.2666 -0.4739
12505TIP3    H159006   3.607   3.554  10.868  0.1439 -2.1354 -1.1815
12505TIP3    H259007   3.595   3.690  10.804  0.5676 -1.4941  0.0537
12506TIP3   OH259008   1.151   5.228   5.836 -0.0732  0.3209 -0.2687
12506TIP3    H159009   1.122   5.157   5.779  0.7601 -0.6537  0.4919
12506TIP3    H259010   1.081   5.293   5.831  0.0436  0.3547 -2.5126
12507TIP3   OH259011   2.966   3.203  15.129  0.2634  0.1296  0.2655
12507TIP3    H159012   2.999   3.236  15.046 -0.3201  0.5230  0.1854
12507TIP3    H259013   2.925   3.119  15.107  0.5395  0.0003  0.2410
12508TIP3   OH259014   3.107   4.287  12.201  0.4234 -0.3528  0.3019
12508TIP3    H159015   3.089   4.355  12.267  0.8021  0.5476 -0.5034
12508TIP3    H259016   3.169   4.328  12.141 -0.8420 -0.7207 -1.3113
12509TIP3   OH259017   3.582   1.417   6.233  0.0479  0.7120  0.3780
12509TIP3    H159018   3.606   1.408   6.141  0.1126 -0.0602  0.4635
12509TIP3    H259019   3.665   1.432   6.278  0.3946 -1.6830  0.6406
12510TIP3   OH259020   5.575   0.369   3.325 -0.4987  0.0889 -0.4001
12510TIP3    H159021   5.667   0.357   3.300 -0.1651  0.5358  0.5514
12510TIP3    H259022   5.579   0.415   3.409 -1.5475 -1.4101  0.5241
12511TIP3   OH259023   4.360   4.597  11.345  0.1578 -0.0907  0.0076
12511TIP3    H159024   4.422   4.553  11.286  0.6370  0.8214 -0.1831
12511TIP3    H259025   4.360   4.688  11.316 -0.7545  0.0587  0.4601
12512TIP3   OH259026   5.007   6.787   1.374 -0.2238 -0.2627 -0.3211
12512TIP3    H159027   5.039   6.737   1.298  0.1842  1.0159 -1.0233
12512TIP3    H259028   4.920   6.752   1.390 -0.6999  0.0361 -1.9905
12513TIP3   OH259029   5.884   3.634   5.749  0.0790  0.2811 -0.8507
12513TIP3    H159030   5.790   3.649   5.749 -0.0541 -0.4973 -1.4126
12513TIP3    H259031   5.894   3.543   5.777  0.7934  0.9529  1.2418
12514TIP3   OH259032   3.414   3.822   4.440 -0.4595  0.0637  0.8743
12514TIP3    H159033   3.336   3.862   4.478 -1.2841 -0.4416 -0.2192
12514TIP3    H259034   3.476   3.816   4.512 -2.0194 -1.0148  2.1940
12515TIP3   OH259035   5.158   6.794   3.621  0.1825  0.7758  0.4825
12515TIP3    H159036   5.210   6.714   3.620  1.6127  1.6568  1.2123
12515TIP3    H259037   5.164   6.827   3.531  0.0766  0.3842  0.3282
12516TIP3   OH259038   5.425   3.338   3.603  0.2336  0.5998 -0.1357
12516TIP3    H159039   5.487   3.266   3.614 -1.7167 -1.3349 -0.8698
12516TIP3    H259040   5.404   3.336   3.510 -0.9752  1.1242  0.1133
12517TIP3   OH259041   5.849   6.030  12.550  0.8517  0.0147 -0.4987
12517TIP3    H159042   5.890   6.020  12.465 -0.7327  0.6352 -1.3919
12517TIP3    H259043   5.765   5.984  12.542  1.1969 -0.9605  1.1365
12518TIP3   OH259044   4.071   5.212  14.256 -0.3458  0.4183 -0.3850
12518TIP3    H159045   4.136   5.205  14.186 -0.0019  0.9780 -0.1291
12518TIP3    H259046   3.994   5.251  14.214 -0.4799 -0.1401 -0.6639
12519TIP3   OH259047   6.185   6.713  13.371 -0.2029  0.5338 -0.6177
12519TIP3    H159048   6.232   6.758  13.440 -2.3462 -0.1629  1.4536
12519TIP3    H259049   6.092   6.728  13.391 -0.9920 -2.6791 -1.2093
12520TIP3   OH259050   1.629   4.587   1.103 -0.4551  0.3247  0.2354
12520TIP3    H159051   1.618   4.493   1.117 -0.6609  0.4295  0.8045
12520TIP3    H259052   1.543   4.624   1.126  0.7152  1.1044  4.1277
12521TIP3   OH259053   2.712   6.403  13.668 -0.8546  0.2699  0.5037
12521TIP3    H159054   2.654   6.479  13.667 -0.3776  0.6464 -0.1289
12521TIP3    H259055   2.696   6.359  13.584  1.4074  1.7141 -0.8258
12522TIP3   OH259056   4.569   4.650  16.092 -0.2379 -0.0010 -0.5412
12522TIP3    H159057   4.626   4.607  16.156 -1.2475  0.2155  0.5421
12522TIP3    H259058   4.534   4.726  16.138 -0.6649  0.4005 -1.5001
12523TIP3   OH259059   1.228   0.150  14.229 -0.0535  0.0561  0.0230
12523TIP3    H159060   1.187   0.198  14.157  2.3901  0.4537 -1.2216
12523TIP3    H259061   1.310   0.196  14.245  1.2105 -2.2020  0.4913
12524TIP3   OH259062   5.595   6.750   1.312 -0.3776  0.2801  0.1497
12524TIP3    H159063   5.637   6.720   1.232 -0.5193  1.6882 -0.4824
12524TIP3    H259064   5.634   6.697   1.381  1.8021  0.9294 -0.5034
12525TIP3   OH259065   4.765   6.557   2.061 -0.2668 -0.3096  0.4936
12525TIP3    H159066   4.671   6.540   2.062 -0.7690  2.0866  0.8994
12525TIP3    H259067   4.806   6.471   2.062 -2.4522 -1.3989  0.4300
12526TIP3   OH259068   1.908   1.319   3.406  0.0094  0.2070 -0.3214
12526TIP3    H159069   1.869   1.400   3.439  0.8131  0.3233  0.3789
12526TIP3    H259070   1.939   1.274   3.485  1.5981  0.2961 -0.8681
12527TIP3   OH259071   2.437   5.093  15.547 -0.1616 -0.2064  0.1806
12527TIP3    H159072   2.522   5.135  15.562 -0.4519  0.3756  0.2473
12527TIP3    H259073   2.383   5.122  15.620 -0.5204 -0.2865 -0.0498
12528TIP3   OH259074   1.020   2.143   3.515 -0.0335  0.1113 -0.5077
12528TIP3    H159075   0.953   2.192   3.563 -0.2673  0.4453 -1.1635
12528TIP3    H259076   1.064   2.091   3.582 -1.5135 -0.7746 -0.1737
12529TIP3   OH259077   4.927   0.969  14.531 -0.4217  0.2339 -0.3047
12529TIP3    H159078   4.885   1.024  14.465 -0.4282 -1.0192 -1.3824
12529TIP3    H259079   5.020   0.970  14.508 -0.4657 -0.4571 -0.5491
12530TIP3   OH259080   4.714   3.406   2.058 -0.0696 -0.1401  0.0873
12530TIP3    H159081   4.623   3.430   2.077  0.1893  0.9495 -0.0138
12530TIP3    H259082   4.747   3.372   2.141  0.0606  1.4842  0.7351
12531TIP3   OH259083   2.999   1.405  12.603 -0.0622 -0.1542 -0.3034
12531TIP3    H159084   3.091   1.416  12.626 -0.2893  3.0287 -0.4320
12531TIP3    H259085   2.992   1.444  12.516 -0.9152 -3.8361 -2.1143
12532TIP3   OH259086   1.376   6.442  15.332 -0.2335 -0.3729 -0.1236
12532TIP3    H159087   1.305   6.399  15.379  0.2136 -0.6594  0.3055
12532TIP3    H259088   1.335   6.478  15.254 -1.0540  0.3801  0.6386
12533TIP3   OH259089   1.520   4.610  12.623 -0.3355  0.2346 -0.1934
12533TIP3    H159090   1.565   4.586  12.704 -0.1502  0.5525 -0.1987
12533TIP3    H259091   1.516   4.529  12.573  1.2108  0.4168 -0.6705
12534TIP3   OH259092   4.884   5.313  15.966 -0.0010  0.7220 -0.4108
12534TIP3    H159093   4.888   5.403  15.935  1.2936  0.0055 -2.4785
12534TIP3    H259094   4.963   5.302  16.018 -0.6116  1.0011  0.6156
12535TIP3   OH259095   5.767   2.240  16.714 -0.0750 -0.0318 -0.2085
12535TIP3    H159096   5.818   2.321  16.724 -0.7880  0.3714  0.1925
12535TIP3    H259097   5.812   2.177  16.770  2.4706 -0.9077 -2.9680
12536TIP3   OH259098   1.264   4.070  14.081 -0.4497  0.6592 -0.4065
12536TIP3    H159099   1.307   4.153  14.101  2.2176 -0.8403  0.6886
12536TIP3    H259100   1.255   4.069  13.986  2.6125  0.8623 -0.7837
12537TIP3   OH259101   5.256   5.163  17.037  0.2882 -0.1813 -0.3451
12537TIP3    H159102   5.263   5.256  17.015 -1.9281  0.3005  0.8212
12537TIP3    H259103   5.285   5.118  16.957 -1.2007  1.5076 -1.9154
12538TIP3   OH259104   2.467   5.333   4.897 -0.0838  0.1098 -0.4348
12538TIP3    H159105   2.477   5.392   4.823 -2.7744 -0.8349 -1.6916
12538TIP3    H259106   2.375   5.341   4.922  0.0441 -1.7775  0.8780
12539TIP3   OH259107   3.234   0.218  13.507 -0.4950  0.3313  0.0020
12539TIP3    H159108   3.285   0.162  13.566 -1.7258 -0.3224  0.4745
12539TIP3    H259109   3.155   0.168  13.489 -1.2335  1.5564 -0.2650
12540TIP3   OH259110   1.367   4.543  16.708  0.2139 -0.4536 -0.0651
12540TIP3    H159111   1.393   4.626  16.748 -1.4318  0.4656 -0.7495
12540TIP3    H259112   1.346   4.486  16.781 -0.1428  0.2871  0.4254
12541TIP3   OH259113   5.947   5.406   1.679 -0.3680 -0.0571  0.0756
12541TIP3    H159114   5.950   5.460   1.600 -1.2904 -0.5702 -0.3300
12541TIP3    H259115   5.976   5.319   1.649 -0.6294 -0.2306  0.3190
12542TIP3   OH259116   5.966   6.502   2.425 -0.5846 -0.0891 -0.3178
12542TIP3    H159117   6.047   6.480   2.471 -0.4102  1.6388  0.2852
12542TIP3    H259118   5.978   6.467   2.337  1.2520  0.9825 -0.5393
12543TIP3   OH259119   2.429   2.782   4.769 -0.2643 -0.2769 -0.6188
12543TIP3    H159120   2.467   2.696   4.786  1.2628  0.9288  2.9944
12543TIP3    H259121   2.341   2.776   4.806  0.1702 -0.0481  0.4766
12544TIP3   OH259122   6.139   3.018  12.399 -0.0476 -0.0430 -0.0736
12544TIP3    H159123   6.164   3.087  12.337  0.0490  1.5888  1.6733
12544TIP3    H259124   6.207   2.952  12.389  0.5029  0.6242 -1.0117
12545TIP3   OH259125   1.853   1.168   1.057  0.4016 -0.0821 -0.2097
12545TIP3    H159126   1.921   1.178   0.989  0.5807  0.6365  0.0617
12545TIP3    H259127   1.901   1.143   1.135  0.2112 -0.7588 -0.3068
12546TIP3   OH259128   4.598   4.180  11.861  0.0507  0.4661 -0.2025
12546TIP3    H159129   4.675   4.132  11.892  0.8911  1.3584 -0.8514
12546TIP3    H259130   4.622   4.210  11.774 -1.0115  0.8350 -0.3817
12547TIP3   OH259131   2.799   4.949   5.115  0.2782  0.2699  0.0171
12547TIP3    H159132   2.797   5.037   5.151  0.1522  0.2705  0.0082
12547TIP3    H259133   2.884   4.943   5.070 -0.7585  1.2966 -2.2592
12548TIP3   OH259134   3.456   3.392   2.308  0.1983  0.0750  0.0849
12548TIP3    H159135   3.501   3.447   2.373  3.1304 -1.3394 -0.5775
12548TIP3    H259136   3.430   3.314   2.357 -1.6060  0.8523  0.4463
12549TIP3   OH259137   4.591   5.624   1.164 -0.1757  0.4275  0.3833
12549TIP3    H159138   4.531   5.551   1.150  1.0883 -0.4501 -0.7815
12549TIP3    H259139   4.551   5.698   1.117  0.2104 -0.4674 -1.4419
12550TIP3   OH259140   2.104   2.072   4.344 -0.3481  0.3935  0.6829
12550TIP3    H159141   2.185   2.115   4.317  0.2231 -0.3202  1.2146
12550TIP3    H259142   2.088   2.104   4.433  0.0324 -0.4060  1.0474
12551TIP3   OH259143   4.925   5.051  14.616 -0.3427 -0.1774 -0.1120
12551TIP3    H159144   5.003   5.018  14.661  0.3637  3.0309  1.3055
12551TIP3    H259145   4.955   5.069  14.526 -0.3141 -1.6970 -0.4338
12552TIP3   OH259146   1.880   3.338  15.019  0.1359  0.0930 -0.3072
12552TIP3    H159147   1.832   3.256  15.033 -0.2914  0.3337 -0.3565
12552TIP3    H259148   1.951   3.335  15.084 -0.0184 -0.2053 -0.1482
12553TIP3   OH259149   4.742   5.786  16.955 -0.1725  0.2539 -0.6029
12553TIP3    H159150   4.765   5.840  16.879 -0.8567 -0.7800 -1.5871
12553TIP3    H259151   4.693   5.713  16.918  1.6073 -1.6191  0.5604
12554TIP3   OH259152   1.509   4.935  11.292  0.1011  0.0426  0.2466
12554TIP3    H159153   1.593   4.980  11.301 -0.6749  1.8081 -0.8257
12554TIP3    H259154   1.511   4.897  11.204  1.0214 -2.7543  1.3742
12555TIP3   OH259155   4.109   5.692  12.384  0.0704 -0.0316 -0.0935
12555TIP3    H159156   4.045   5.755  12.418 -0.9584 -0.8166 -0.4897
12555TIP3    H259157   4.193   5.722  12.417 -0.5931  0.6289  1.0624
12556TIP3   OH259158   5.062   0.896   6.117 -0.1381 -0.1758  0.6607
12556TIP3    H159159   5.061   0.989   6.095 -1.9894 -0.4565 -0.7642
12556TIP3    H259160   5.149   0.866   6.092 -0.1961  0.7959 -0.8353
12557TIP3   OH259161   2.013   1.057   1.289 -0.3315  0.1109 -0.0345
12557TIP3    H159162   2.021   0.965   1.314 -0.2498 -0.2848 -1.4224
12557TIP3    H259163   2.102   1.092   1.297 -0.2985 -0.0196  0.1775
12558TIP3   OH259164   2.148   4.111   1.615 -0.2617  0.0906 -0.2044
12558TIP3    H159165   2.166   4.166   1.539 -1.3310  0.2620 -0.3436
12558TIP3    H259166   2.079   4.156   1.663  0.4733  0.0411  0.9494
12559TIP3   OH259167   5.208   0.444  13.314 -0.4770  0.0823 -0.4037
12559TIP3    H159168   5.180   0.492  13.392  1.5698  2.2090 -0.8675
12559TIP3    H259169   5.242   0.361  13.349 -1.7545 -0.0216  0.6854
12560TIP3   OH259170   0.473   1.258  14.187 -0.7482  0.5416 -0.0759
12560TIP3    H159171   0.454   1.298  14.102 -0.7570  0.6965 -0.0017
12560TIP3    H259172   0.465   1.330  14.250  0.6069  0.7435 -0.1073
12561TIP3   OH259173   2.204   4.427  13.750 -0.4668 -0.3253 -0.1452
12561TIP3    H159174   2.260   4.371  13.803 -1.9531 -0.8899  0.8943
12561TIP3    H259175   2.254   4.442  13.670  1.1775 -0.7303  0.7721
12562TIP3   OH259176   5.733   0.576  11.152  0.1115  0.3677  0.1138
12562TIP3    H159177   5.674   0.626  11.095 -0.3796 -1.2279 -0.8551
12562TIP3    H259178   5.711   0.485  11.134  1.1569 -0.2173  1.6242
12563TIP3   OH259179   3.895   1.449   2.025  0.6861 -0.6581 -0.7001
12563TIP3    H159180   3.864   1.484   1.942  0.0519  1.9831  0.5208
12563TIP3    H259181   3.818   1.451   2.082  1.5275 -0.5742  0.4697
12564TIP3   OH259182   5.408   6.198  14.972 -0.1409  0.6043 -0.0182
12564TIP3    H159183   5.362   6.119  14.999 -0.0538 -0.1493 -1.9095
12564TIP3    H259184   5.501   6.179  14.988 -0.2292  0.9419  0.9541
12565TIP3   OH259185   4.050   1.439  12.873  0.2595 -0.3481  0.7878
12565TIP3    H159186   4.007   1.469  12.953 -1.1235 -0.8896  0.2757
12565TIP3    H259187   4.033   1.345  12.870 -0.6445 -0.1687 -0.6651
12566TIP3   OH259188   4.055   0.740  12.065 -0.3492 -0.5983 -0.1826
12566TIP3    H159189   3.975   0.784  12.094 -0.2286 -0.6777  0.2638
12566TIP3    H259190   4.090   0.698  12.143  0.1606 -0.5206 -0.3650
12567TIP3   OH259191   2.240   5.396  12.265  0.3950  0.0182 -0.1913
12567TIP3    H159192   2.256   5.413  12.172  2.3885 -2.5608 -0.4503
12567TIP3    H259193   2.327   5.384  12.303 -0.4160 -2.8515  1.0798
12568TIP3   OH259194   5.886   4.466   5.061  0.0758  0.3280  0.2554
12568TIP3    H159195   5.948   4.537   5.072  0.2552  0.6612 -2.2585
12568TIP3    H259196   5.939   4.389   5.041 -0.1724  0.8349 -2.9930
12569TIP3   OH259197   1.553   2.055   4.314 -0.5427  0.7985  0.2442
12569TIP3    H159198   1.529   2.122   4.378  1.2964  0.4637  1.3586
12569TIP3    H259199   1.616   1.999   4.360  0.1021 -0.0309 -1.5481
12570TIP3   OH259200   2.474   1.880  11.323 -0.2974  0.5085  0.7335
12570TIP3    H159201   2.441   1.969  11.317  1.5931  1.2319  0.4155
12570TIP3    H259202   2.567   1.890  11.344 -0.2396 -1.4100  1.6592
12571TIP3   OH259203   0.878   2.858   1.761 -0.3803  0.1951 -0.0742
12571TIP3    H159204   0.783   2.868   1.769 -0.3570  0.8430 -0.5052
12571TIP3    H259205   0.890   2.766   1.738 -0.8250 -0.1579  1.0475
12572TIP3   OH259206   3.969   3.530  14.605 -0.0565  0.0334 -0.3882
12572TIP3    H159207   3.911   3.588  14.556  0.3294  1.4890  0.8196
12572TIP3    H259208   3.942   3.442  14.579 -0.2711  0.7185 -2.7107
12573TIP3   OH259209   4.616   3.736   2.217 -0.3878  0.0545  0.3386
12573TIP3    H159210   4.653   3.716   2.303  1.6043  0.7800 -0.2917
12573TIP3    H259211   4.684   3.787   2.173 -1.7590  0.5561 -1.3148
12574TIP3   OH259212   4.499   3.277   3.301  0.1270  0.5569  0.4289
12574TIP3    H159213   4.548   3.206   3.261 -0.1378  1.0849 -0.8573
12574TIP3    H259214   4.471   3.242   3.386  2.0484 -0.0166  0.8791
12575TIP3   OH259215   5.293   0.278   4.654 -0.5213 -0.0612  0.2643
12575TIP3    H159216   5.359   0.252   4.590 -0.3580  0.8745  0.0415
12575TIP3    H259217   5.219   0.219   4.637 -0.0908 -0.5135 -0.0872
12576TIP3   OH259218   6.849   0.855   0.686  0.2578  0.2860 -0.0900
12576TIP3    H159219   6.823   0.929   0.741  0.6777 -0.5747  1.3139
12576TIP3    H259220   6.945   0.856   0.689  0.2641 -0.6733  0.4665
12577TIP3   OH259221   2.076   5.193  11.232 -0.2696  0.2104  0.4458
12577TIP3    H159222   2.036   5.135  11.297 -0.2407  0.0225  0.2960
12577TIP3    H259223   2.054   5.154  11.148  0.8143 -0.2944  0.3715
12578TIP3   OH259224   2.350   2.025  13.121  0.5270  0.2046  0.4022
12578TIP3    H159225   2.266   1.986  13.096  0.5806  0.6797 -0.5956
12578TIP3    H259226   2.326   2.105  13.168  0.4040  0.7751 -0.6050
12579TIP3   OH259227   1.931   6.581  16.762  0.1743 -0.5173  0.1487
12579TIP3    H159228   1.917   6.491  16.733  0.6243 -0.4861 -0.1804
12579TIP3    H259229   1.904   6.635  16.688 -0.8529 -0.3411  0.6339
12580TIP3   OH259230   2.308   6.645  15.962 -0.5780  0.2989 -0.0978
12580TIP3    H159231   2.291   6.686  16.047  0.1163 -2.0262  1.2494
12580TIP3    H259232   2.391   6.682  15.933  0.3688 -0.5498  1.3996
12581TIP3   OH259233   4.145   6.544   4.255 -0.3896  0.0920 -0.2106
12581TIP3    H159234   4.137   6.488   4.178 -0.6148  0.0607 -0.1650
12581TIP3    H259235   4.205   6.613   4.228 -1.6753  0.9629 -0.9312
12582TIP3   OH259236   2.126   3.118   2.608 -0.6149  0.5666 -0.4435
12582TIP3    H159237   2.158   3.032   2.636 -1.8297  0.3523  0.3993
12582TIP3    H259238   2.193   3.151   2.548  0.3188 -0.5622 -0.0562
12583TIP3   OH259239   5.354   1.006   4.308  0.2894 -0.2637 -0.3224
12583TIP3    H159240   5.417   1.034   4.374  1.3569 -0.0256 -1.4125
12583TIP3    H259241   5.334   1.086   4.258 -0.6525 -0.3953 -0.1785
12584TIP3   OH259242   1.038   6.337  11.642 -0.1638  0.0345  0.3378
12584TIP3    H159243   0.966   6.386  11.602  0.3749 -0.3139 -1.1551
12584TIP3    H259244   1.038   6.253  11.596  1.4528  0.1964 -0.0394
12585TIP3   OH259245   6.637   6.136   3.017 -0.6018  0.4762 -0.0996
12585TIP3    H159246   6.569   6.071   2.999 -2.5355  2.7889 -1.6506
12585TIP3    H259247   6.614   6.173   3.102  1.1810 -1.5268  1.3736
12586TIP3   OH259248   4.351   1.123   5.249 -0.4864 -0.1871  0.0816
12586TIP3    H159249   4.361   1.092   5.339  1.3106 -0.8306 -0.2984
12586TIP3    H259250   4.374   1.047   5.195 -1.4421  0.2175 -0.9402
12587TIP3   OH259251   1.246   3.058  16.380 -0.0410  0.3619 -0.1632
12587TIP3    H159252   1.310   3.120  16.415  0.3390 -0.8022  1.3192
12587TIP3    H259253   1.182   3.047  16.451 -0.7150 -0.1067 -0.8278
12588TIP3   OH259254   0.319   0.017   3.344 -0.0116  0.3214 -0.0402
12588TIP3    H159255   0.224   0.015   3.338 -0.2155  2.2125  1.4571
12588TIP3    H259256   0.349   0.012   3.253 -1.5553  0.1218 -0.5576
12589TIP3   OH259257   4.466   0.500  11.193  0.1626  0.6134  0.1906
12589TIP3    H159258   4.443   0.570  11.132  0.4065  1.1524  0.7159
12589TIP3    H259259   4.538   0.535  11.245 -0.9249  0.6908  1.7210
12590TIP3   OH259260   0.761   2.476   1.835 -0.0734  0.3461  0.0527
12590TIP3    H159261   0.821   2.437   1.899 -1.1625 -0.0037  0.8786
12590TIP3    H259262   0.727   2.401   1.786  0.0201  0.5317 -0.2998
12591TIP3   OH259263   5.008   0.538   5.136 -0.5237 -0.2566 -0.2655
12591TIP3    H159264   4.969   0.577   5.215  1.1094 -0.0615  0.4865
12591TIP3    H259265   5.092   0.505   5.165  0.1730 -0.0768 -1.9651
12592TIP3   OH259266   5.960   6.811  12.738 -0.4327  0.2654  0.1753
12592TIP3    H159267   6.045   6.778  12.708  0.3818  1.7493  0.7430
12592TIP3    H259268   5.897   6.771  12.678  0.7529 -0.1177 -0.8796
12593TIP3   OH259269   0.655   1.403  17.053 -0.1151  0.3283 -0.4275
12593TIP3    H159270   0.578   1.454  17.025  0.8144  1.6028 -0.7677
12593TIP3    H259271   0.674   1.346  16.978 -0.2086  0.6395 -0.6930
12594TIP3   OH259272   5.243   4.179   2.773  0.0187 -0.1235  0.0727
12594TIP3    H159273   5.266   4.260   2.726 -0.2875  0.4934  0.9637
12594TIP3    H259274   5.327   4.135   2.786 -0.0278 -1.0909 -2.3916
12595TIP3   OH259275   5.214   0.938  16.342 -0.2442  0.1911 -0.2874
12595TIP3    H159276   5.296   0.938  16.293 -0.0935  0.1251 -0.0365
12595TIP3    H259277   5.206   1.027  16.376  0.0883  0.0090  0.2902
12596TIP3   OH259278   2.716   0.153   4.511  0.2830 -0.2256  0.4012
12596TIP3    H159279   2.686   0.235   4.550  0.4569 -0.2992  0.6928
12596TIP3    H259280   2.656   0.138   4.438  0.4780  0.3468  0.1218
12597TIP3   OH259281   4.059   2.188  11.958  0.5520 -0.0619  0.3390
12597TIP3    H159282   4.123   2.224  12.019 -0.9326 -0.7162  2.4162
12597TIP3    H259283   4.109   2.131  11.900  1.8555 -0.5079  1.8472
12598TIP3   OH259284   1.153   1.484  12.343  0.0311 -0.1284 -0.5476
12598TIP3    H159285   1.133   1.508  12.434 -1.6157 -2.0969 -0.2986
12598TIP3    H259286   1.097   1.541  12.291 -0.3958 -0.2368 -0.2173
12599TIP3   OH259287   5.970   0.533  14.122 -0.1886 -0.1595 -0.3769
12599TIP3    H159288   5.888   0.490  14.148 -0.8540  1.5761  0.5822
12599TIP3    H259289   6.039   0.474  14.152 -1.0302  0.1189  2.3662
12600TIP3   OH259290   4.223   2.418  15.971  0.1120 -0.1602 -0.0831
12600TIP3    H159291   4.208   2.512  15.969  0.2292 -0.0524  1.9478
12600TIP3    H259292   4.137   2.380  15.989  0.7902  0.0158  4.7025
12601TIP3   OH259293   1.071   0.845  14.817 -0.1755 -0.2961 -0.7599
12601TIP3    H159294   1.132   0.901  14.864 -1.0283 -1.0638  1.4118
12601TIP3    H259295   1.126   0.795  14.757  0.9818  0.7235 -0.5995
12602TIP3   OH259296   4.568   0.336  12.237  0.0385  0.7125  0.2130
12602TIP3    H159297   4.632   0.291  12.292  0.3796 -0.7726 -1.3173
12602TIP3    H259298   4.593   0.428  12.243  0.3715  0.5497  2.0912
12603TIP3   OH259299   0.022   5.361   2.012  0.1664 -0.3089 -0.1681
12603TIP3    H159300   0.017   5.423   1.939 -0.0989 -1.2445 -0.9673
12603TIP3    H259301  -0.070   5.339   2.031  0.2847 -1.1538 -0.5174
12604TIP3   OH259302   3.633   4.540   0.535  0.3032  0.1293  0.3709
12604TIP3    H159303   3.649   4.560   0.628 -1.1450 -1.8551  1.0995
12604TIP3    H259304   3.541   4.514   0.531  0.4429 -0.2109 -1.5678
12605TIP3   OH259305   1.240   6.567  14.486 -0.1063  0.0352  0.6017
12605TIP3    H159306   1.237   6.623  14.409  3.0534 -0.5072 -0.0536
12605TIP3    H259307   1.214   6.481  14.453 -0.9048  0.2418  0.6719
12606TIP3   OH259308   5.403   4.674  10.793 -0.2949  0.1785 -0.3234
12606TIP3    H159309   5.389   4.585  10.761  0.2526 -0.0582  0.0781
12606TIP3    H259310   5.383   4.730  10.718  0.8286 -0.3543 -1.0477
12607TIP3   OH259311   6.417   2.932   4.366 -0.8152 -0.3818 -0.6852
12607TIP3    H159312   6.481   2.861   4.365  0.6017  0.8430 -1.0134
12607TIP3    H259313   6.402   2.949   4.459 -0.3508 -0.4076 -0.6041
12608TIP3   OH259314   5.189   3.771  11.885 -0.1372 -0.0221 -0.0102
12608TIP3    H159315   5.094   3.773  11.886 -0.1853 -1.4179  0.7994
12608TIP3    H259316   5.211   3.682  11.856  0.9143  0.1997  0.0476
12609TIP3   OH259317   6.419   3.546   0.856 -0.2940  0.5906  0.3869
12609TIP3    H159318   6.412   3.608   0.928  0.4337  0.2513  0.7630
12609TIP3    H259319   6.348   3.483   0.872  0.5752 -0.1556  1.4974
12610TIP3   OH259320   4.704   2.688  12.676  0.8795 -0.9205  0.0210
12610TIP3    H159321   4.620   2.721  12.710  1.1554  0.5920 -0.7016
12610TIP3    H259322   4.738   2.633  12.747  0.3292  0.2598  1.2599
12611TIP3   OH259323   0.110   1.671  13.478  0.2402 -0.2108 -0.0664
12611TIP3    H159324   0.106   1.708  13.390 -0.7507  0.6765  0.3258
12611TIP3    H259325   0.135   1.745  13.533 -0.0465 -0.5341  0.5061
12612TIP3   OH259326   4.932   3.831  16.265 -0.0191 -0.5198  0.4471
12612TIP3    H159327   4.938   3.905  16.326  1.5245  0.6438 -1.0277
12612TIP3    H259328   4.971   3.758  16.313  1.6598  0.5034  0.7212
12613TIP3   OH259329   1.868   3.673  10.984 -0.8660  0.8968 -0.1400
12613TIP3    H159330   1.921   3.600  11.015 -0.8976  0.4409 -1.1079
12613TIP3    H259331   1.803   3.687  11.053 -0.0772  0.8556  0.6281
12614TIP3   OH259332   3.645   6.023   3.998  0.3237 -0.3436 -0.6014
12614TIP3    H159333   3.717   5.961   3.989 -0.1201 -0.7923 -1.0987
12614TIP3    H259334   3.685   6.108   3.979  0.3461 -0.7859 -2.8047
12615TIP3   OH259335   6.147   4.011   2.817 -0.3528 -0.1560 -0.2507
12615TIP3    H159336   6.242   4.014   2.805 -0.3121 -1.2465 -0.2790
12615TIP3    H259337   6.135   3.972   2.903 -0.7679  2.1542  0.8185
12616TIP3   OH259338   1.507   0.380   5.880  0.4165 -0.6374  0.2329
12616TIP3    H159339   1.425   0.353   5.921  1.1507 -0.0257  2.2392
12616TIP3    H259340   1.555   0.425   5.950  0.8061  2.5980 -1.8740
12617TIP3   OH259341   4.989   4.544   2.760 -0.3915 -0.3099 -0.5004
12617TIP3    H159342   4.894   4.532   2.764 -0.6876 -0.1085 -3.9107
12617TIP3    H259343   5.001   4.635   2.732  0.5729 -1.0878 -2.9146
12618TIP3   OH259344   5.654   3.417  16.765  0.1724 -0.4011 -0.0949
12618TIP3    H159345   5.580   3.475  16.749  0.4244  1.0817  3.1606
12618TIP3    H259346   5.724   3.450  16.708 -0.7654  0.1511 -0.9390
12619TIP3   OH259347   2.341   6.156   4.034 -0.0047 -0.2411 -0.6501
12619TIP3    H159348   2.395   6.121   4.105 -1.0131 -0.5330 -0.0016
12619TIP3    H259349   2.403   6.189   3.970  0.9334 -0.3935  0.1641
12620TIP3   OH259350   1.414   1.826   3.125 -0.5443  0.8960 -0.1333
12620TIP3    H159351   1.356   1.860   3.057  1.3603  1.1663 -1.7235
12620TIP3    H259352   1.474   1.768   3.079  1.0406  1.3593  1.2318
12621TIP3   OH259353   2.212   3.112  15.036 -0.2497  0.1795  0.3453
12621TIP3    H159354   2.298   3.126  14.997  0.1568 -1.9988  0.3475
12621TIP3    H259355   2.150   3.144  14.971  0.5382  1.1685  0.0677
12622TIP3   OH259356   2.161   6.107   3.793  0.1464  0.0989  0.0015
12622TIP3    H159357   2.187   6.082   3.881  0.5083  0.4732  0.0055
12622TIP3    H259358   2.147   6.025   3.747  1.4524 -0.1279 -0.0294
12623TIP3   OH259359   5.440   6.394  15.896  0.1252 -0.5855 -0.2935
12623TIP3    H159360   5.433   6.347  15.813  0.2136 -0.1354 -0.5578
12623TIP3    H259361   5.530   6.427  15.898  0.3482 -1.2253  0.3253
12624TIP3   OH259362   2.805   3.722   2.143 -0.4472  0.0133 -0.0493
12624TIP3    H159363   2.900   3.714   2.154 -0.0632  1.8890 -1.5589
12624TIP3    H259364   2.788   3.694   2.053 -1.1890  0.6785 -0.1270
12625TIP3   OH259365   2.411   0.430  15.413  0.3924 -0.0850 -0.0381
12625TIP3    H159366   2.421   0.343  15.376 -1.5649 -0.4508  0.1861
12625TIP3    H259367   2.374   0.415  15.500  0.9518  0.9325  0.3918
12626TIP3   OH259368   5.962   2.979   3.052 -0.0636 -0.1424  0.0585
12626TIP3    H159369   5.908   3.058   3.054  0.3378  0.1365  1.3180
12626TIP3    H259370   6.024   2.994   2.981 -0.6225  0.2490 -0.3469
12627TIP3   OH259371   0.136   0.743   5.510  0.0541 -0.7342  0.3928
12627TIP3    H159372   0.061   0.700   5.469  1.5338 -2.3155 -0.8417
12627TIP3    H259373   0.170   0.802   5.443 -1.0523  1.2970  1.5510
12628TIP3   OH259374   4.609   3.978  10.535 -0.1961  0.2416  0.5445
12628TIP3    H159375   4.533   4.016  10.490 -0.7688  1.2563  2.2628
12628TIP3    H259376   4.638   4.047  10.595  1.3464 -0.5828  0.7910
12629TIP3   OH259377   6.708   1.879   0.526  0.1451 -0.2140  0.3042
12629TIP3    H159378   6.704   1.916   0.614  2.5740 -1.2309  0.9135
12629TIP3    H259379   6.695   1.785   0.538 -0.6211 -0.2268 -0.5663
12630TIP3   OH259380   3.512   1.347   0.992  0.2669 -0.0092 -0.1755
12630TIP3    H159381   3.488   1.293   0.916  0.9212 -0.4562 -0.0655
12630TIP3    H259382   3.549   1.427   0.954  2.5603 -1.0899 -0.3651
12631TIP3   OH259383   3.136   6.316   3.233 -0.6778  0.0265  0.2837
12631TIP3    H159384   3.127   6.361   3.149 -1.2622  0.0312  0.3418
12631TIP3    H259385   3.107   6.227   3.216  0.7409 -0.4211  0.1066
12632TIP3   OH259386   5.229   4.704   4.498 -0.2766  0.2374  0.3034
12632TIP3    H159387   5.198   4.625   4.453  1.5472  0.1420 -0.9275
12632TIP3    H259388   5.255   4.763   4.427  2.0410  0.3758  1.1694
12633TIP3   OH259389   4.565   0.589  15.391 -0.2475 -0.2297  0.3192
12633TIP3    H159390   4.657   0.584  15.364  0.2249  0.4326  1.6862
12633TIP3    H259391   4.536   0.498  15.393  0.5740 -0.5020  0.4537
12634TIP3   OH259392   1.208   0.309  14.502  0.8790 -0.3298  0.5867
12634TIP3    H159393   1.273   0.239  14.507 -1.1343 -2.3762 -0.1741
12634TIP3    H259394   1.235   0.362  14.426  1.3483 -1.4868 -0.0803
12635TIP3   OH259395   6.101   3.855   1.602 -0.1657  0.0559 -0.2374
12635TIP3    H159396   6.050   3.879   1.525 -0.6870  0.1794  0.1431
12635TIP3    H259397   6.052   3.783   1.642 -1.2752  1.6680  1.4009
12636TIP3   OH259398   2.990   4.481  13.468 -0.0391  0.5365  0.0479
12636TIP3    H159399   2.905   4.437  13.465 -0.0457  0.5057 -2.6927
12636TIP3    H259400   2.969   4.574  13.459  0.1576  0.6976  1.1991
12637TIP3   OH259401   0.643   0.076   4.266 -0.0222 -0.3862 -0.4452
12637TIP3    H159402   0.587   0.077   4.189  1.0554  1.1705 -1.2703
12637TIP3    H259403   0.598   0.130   4.330 -0.3957 -0.7765 -0.3764
12638TIP3   OH259404   2.304   3.293   2.386 -0.6635  0.2993  0.3717
12638TIP3    H159405   2.397   3.314   2.390 -0.8099  0.7803  1.6784
12638TIP3    H259406   2.281   3.301   2.293  0.1282  2.3254  0.3000
12639TIP3   OH259407   4.577   5.328   3.964 -0.0890  0.4770  0.4645
12639TIP3    H159408   4.577   5.390   3.891  1.1992  0.2552  0.2527
12639TIP3    H259409   4.668   5.300   3.971 -0.4255 -0.4238  1.3810
12640TIP3   OH259410   2.123   3.183   4.224  0.0052  0.6112  0.4044
12640TIP3    H159411   2.181   3.184   4.148 -0.2762 -1.5559  0.0914
12640TIP3    H259412   2.039   3.151   4.189  0.3054 -2.0079  1.8062
12641TIP3   OH259413   5.268   5.725   2.319  0.3885  0.7872 -0.6698
12641TIP3    H159414   5.303   5.659   2.259 -2.3469 -1.8982  0.4493
12641TIP3    H259415   5.321   5.717   2.398 -0.2953 -0.5762 -0.3233
12642TIP3   OH259416   6.363   4.726  16.878 -0.7304 -0.3361  0.3514
12642TIP3    H159417   6.309   4.805  16.876 -0.3423  0.0847  2.9603
12642TIP3    H259418   6.302   4.656  16.899 -0.8333 -0.4852 -0.4317
12643TIP3   OH259419   3.437   1.803   2.449 -0.2456  0.3805 -0.3196
12643TIP3    H159420   3.430   1.818   2.355 -1.3498 -1.1428 -0.5187
12643TIP3    H259421   3.379   1.868   2.489 -0.7125  0.2558 -0.7841
12644TIP3   OH259422   5.820   2.268   0.822  0.3014 -0.1674  0.3954
12644TIP3    H159423   5.759   2.209   0.865 -4.4861  2.8296 -1.4819
12644TIP3    H259424   5.831   2.340   0.883 -0.9075  0.8515 -0.5215
12645TIP3   OH259425   2.849   6.308  15.518 -0.4493  0.4813  0.2767
12645TIP3    H159426   2.870   6.401  15.505  0.3855 -0.0143 -2.5785
12645TIP3    H259427   2.933   6.268  15.542 -0.1497  0.0569 -1.3665
12646TIP3   OH259428   5.080   3.682   6.052 -0.3839 -0.5955 -0.5443
12646TIP3    H159429   5.122   3.608   6.094 -0.4355 -0.2988  0.0384
12646TIP3    H259430   5.053   3.739   6.124 -1.2018 -0.4700 -0.9313
12647TIP3   OH259431   6.799   2.957   2.662  0.3110  0.6021  0.4587
12647TIP3    H159432   6.887   2.996   2.656  1.0804 -0.6624  2.3488
12647TIP3    H259433   6.803   2.903   2.741 -1.6638 -0.8143 -0.3387
12648TIP3   OH259434   6.202   3.667   4.769  0.3749 -0.1128 -0.7938
12648TIP3    H159435   6.119   3.660   4.814  1.0048 -2.4243  0.1031
12648TIP3    H259436   6.187   3.628   4.683  0.4290 -0.1113 -0.8046
12649TIP3   OH259437   2.144   5.682   0.054  0.1384  0.0409  0.6601
12649TIP3    H159438   2.172   5.596   0.022  2.5386  0.3630  1.6157
12649TIP3    H259439   2.053   5.670   0.078  0.5419 -2.4327  1.3104
12650TIP3   OH259440   1.553   5.253  17.169  0.3025  0.4902 -0.1050
12650TIP3    H159441   1.499   5.266  17.091 -2.3919 -0.9101  1.3837
12650TIP3    H259442   1.608   5.178  17.147  1.2669  1.5186 -1.4126
12651TIP3   OH259443   2.946   0.365  14.058 -0.0188 -0.1323 -0.1372
12651TIP3    H159444   2.966   0.272  14.068  1.9230  0.2435 -0.1958
12651TIP3    H259445   2.972   0.404  14.142 -0.7397  0.3934 -0.1478
12652TIP3   OH259446   0.868   1.657  13.544 -0.0420  0.2124  0.0609
12652TIP3    H159447   0.774   1.674  13.530  0.0454  1.8322  1.2119
12652TIP3    H259448   0.912   1.733  13.506  0.6518  0.6827  1.7373
12653TIP3   OH259449   1.267   6.316   1.062  0.5519 -0.4923 -0.1827
12653TIP3    H159450   1.227   6.256   0.999 -1.1535  1.4728 -1.0806
12653TIP3    H259451   1.197   6.338   1.123  1.1466  0.5548  0.1517
12654TIP3   OH259452   5.648   0.036  13.583 -0.5257  0.2968 -0.4712
12654TIP3    H159453   5.715   0.104  13.584  0.4751 -0.6438  1.1893
12654TIP3    H259454   5.592   0.057  13.657 -1.4083  0.4263 -1.1649
12655TIP3   OH259455   3.582   5.863  16.516 -0.1047  0.3573 -0.4199
12655TIP3    H159456   3.497   5.872  16.558  0.6522  0.9269  1.0627
12655TIP3    H259457   3.562   5.826  16.430 -1.8371  0.4827 -0.1141
12656TIP3   OH259458   0.813   1.526   1.186 -0.3041  0.3771 -0.3687
12656TIP3    H159459   0.896   1.501   1.145  0.4717  1.3427  0.5789
12656TIP3    H259460   0.789   1.607   1.142 -2.2493 -1.2598 -2.6432
12657TIP3   OH259461   5.736   4.876   4.571  0.2152  0.0883 -0.1526
12657TIP3    H159462   5.675   4.944   4.544  0.8904  1.1503  0.8917
12657TIP3    H259463   5.712   4.856   4.662 -1.5708 -2.9154 -1.1311
12658TIP3   OH259464   2.972   3.875  14.500 -0.0936  0.0717  0.1455
12658TIP3    H159465   2.901   3.905  14.557  1.4893 -0.0866  2.3393
12658TIP3    H259466   2.956   3.918  14.417 -2.7180  0.0629  0.5577
12659TIP3   OH259467   2.904   2.478  14.248 -0.1805  0.0051 -0.3806
12659TIP3    H159468   2.925   2.555  14.195 -0.0157 -0.3342 -0.8108
12659TIP3    H259469   2.813   2.459  14.226  0.0635 -0.4778 -0.9715
12660TIP3   OH259470   4.273   5.307   4.422  0.1241  0.2622 -0.5391
12660TIP3    H159471   4.232   5.322   4.337 -1.2869  2.1980  0.3860
12660TIP3    H259472   4.208   5.339   4.485  0.7349 -1.9512  1.3493
12661TIP3   OH259473   6.419   0.016   3.098  0.1141  0.5284  0.0316
12661TIP3    H159474   6.343   0.037   3.045 -0.4296  0.1257  0.6374
12661TIP3    H259475   6.491   0.063   3.057  0.4836 -2.4697 -3.2492
12662TIP3   OH259476   3.302   3.781   3.072  0.5898 -0.4347 -0.1910
12662TIP3    H159477   3.320   3.779   3.166  0.0955 -1.9527 -0.1051
12662TIP3    H259478   3.347   3.704   3.037  0.6878  0.0552 -1.1870
12663TIP3   OH259479   2.955   6.004  15.804 -0.3922 -0.0162  0.4965
12663TIP3    H159480   2.899   6.076  15.774 -0.8569 -0.2746  0.7230
12663TIP3    H259481   2.893   5.936  15.831 -0.0109  0.1922  2.0164
12664TIP3   OH259482   6.532   2.640  15.209  0.1900  0.0790  0.8422
12664TIP3    H159483   6.452   2.590  15.195 -0.2570  0.7372  1.0603
12664TIP3    H259484   6.594   2.604  15.145  0.3257 -1.7294  1.9157
12665TIP3   OH259485   3.332   4.993   1.164 -0.5282  0.1024  0.8599
12665TIP3    H159486   3.317   5.086   1.181 -0.0081  0.2261  0.6580
12665TIP3    H259487   3.402   4.968   1.224 -0.3842 -0.0565  0.6304
12666TIP3   OH259488   2.852   5.944   6.645  0.0222 -0.1483  0.8170
12666TIP3    H159489   2.845   5.901   6.730 -0.3213 -0.3137  0.7075
12666TIP3    H259490   2.795   5.893   6.588  3.1972 -2.5020 -0.5353
12667TIP3   OH259491   0.296   2.538   2.326 -0.2919  0.2125 -0.0126
12667TIP3    H159492   0.379   2.517   2.282 -1.5918  1.3519 -3.3239
12667TIP3    H259493   0.278   2.462   2.381  0.5111 -2.4124 -3.1086
12668TIP3   OH259494   4.092   4.792   0.823 -0.0333 -0.0110 -0.4386
12668TIP3    H159495   4.109   4.812   0.915  0.0108 -0.7434 -0.2811
12668TIP3    H259496   4.131   4.706   0.809  3.1100  1.4954 -2.0556
12669TIP3   OH259497   5.208   1.537   0.211  0.1763  0.6985  0.3258
12669TIP3    H159498   5.272   1.512   0.276  0.2325 -0.3742 -0.1281
12669TIP3    H259499   5.147   1.463   0.206 -0.3422  1.1444 -0.1860
12670TIP3   OH259500   1.543   3.204   2.548  0.2173 -0.0350 -0.0419
12670TIP3    H159501   1.498   3.263   2.608 -1.0635 -0.8520 -0.1736
12670TIP3    H259502   1.615   3.168   2.599 -0.2910 -0.0090  0.7085
12671TIP3   OH259503   1.700   0.360  14.078  0.1279 -0.5698 -0.7457
12671TIP3    H159504   1.717   0.452  14.094 -1.3983 -0.3618 -0.1131
12671TIP3    H259505   1.757   0.313  14.139  2.3931 -0.1668 -2.4267
12672TIP3   OH259506   0.825   4.398  14.878  0.1978 -0.3834 -0.2477
12672TIP3    H159507   0.815   4.387  14.784  0.3252  1.6825 -0.5633
12672TIP3    H259508   0.920   4.400  14.892  0.1850  0.0425 -0.1991
12673TIP3   OH259509   4.042   3.150  11.944  0.2130 -0.6355 -0.0229
12673TIP3    H159510   4.029   3.188  12.031 -0.4987  1.3591 -0.9643
12673TIP3    H259511   4.137   3.138  11.937  0.4791  1.1499  0.2509
12674TIP3   OH259512   5.240   5.462   4.112 -0.6721 -0.4207  0.4619
12674TIP3    H159513   5.328   5.467   4.150 -0.3508  2.5765 -0.4545
12674TIP3    H259514   5.187   5.520   4.166 -0.9672  1.3929 -1.6455
12675TIP3   OH259515   2.226   0.981  16.195  0.7708  0.2187 -0.1561
12675TIP3    H159516   2.210   1.074  16.182 -0.9199 -0.1960 -1.2613
12675TIP3    H259517   2.318   0.976  16.221  0.2171  2.4076  2.6577
12676TIP3   OH259518   6.759   4.201  15.828 -0.0545 -0.1222 -0.4263
12676TIP3    H159519   6.703   4.262  15.780 -0.5997 -1.4585 -1.5569
12676TIP3    H259520   6.840   4.197  15.776  1.4427  2.2329  1.4918
12677TIP3   OH259521   0.972   4.615   5.816  0.0927  0.7222  0.5338
12677TIP3    H159522   0.886   4.598   5.854  0.1272  0.1572  0.3668
12677TIP3    H259523   0.955   4.658   5.733 -0.0586 -0.1975  0.0841
12678TIP3   OH259524   3.275   1.477   1.641 -0.0403  0.2903 -0.2178
12678TIP3    H159525   3.360   1.521   1.638  0.7945 -1.2779 -0.8590
12678TIP3    H259526   3.281   1.416   1.714 -1.2159  1.2448  0.7242
12679TIP3   OH259527   0.337   0.297  13.571 -0.2359  0.3977 -0.2181
12679TIP3    H159528   0.343   0.279  13.665 -1.4762 -0.8191 -0.3391
12679TIP3    H259529   0.397   0.233  13.531 -0.1182  0.5480 -0.2810
12680TIP3   OH259530   4.714   4.040  13.174 -0.1772  1.4611  0.3638
12680TIP3    H159531   4.806   4.012  13.165 -0.1181  1.3306  1.3138
12680TIP3    H259532   4.719   4.128  13.209 -0.4221  1.3993  0.5539
12681TIP3   OH259533   0.485   1.252  13.625 -0.2161 -0.3953 -0.2860
12681TIP3    H159534   0.474   1.279  13.534  0.3308  0.9340  0.0211
12681TIP3    H259535   0.400   1.268  13.666 -0.3872 -0.7534 -0.5003
12682TIP3   OH259536   3.621   2.341  10.654 -0.0829  0.1599  0.0402
12682TIP3    H159537   3.631   2.401  10.728 -1.6981 -0.9313  1.2084
12682TIP3    H259538   3.634   2.254  10.692  1.9625 -0.3155 -1.5692
12683TIP3   OH259539   1.543   1.696   6.460  0.5326 -0.4898  0.1080
12683TIP3    H159540   1.594   1.660   6.533 -0.4065 -0.6788  0.6885
12683TIP3    H259541   1.538   1.790   6.478 -0.2470 -0.6233  0.6591
12684TIP3   OH259542   3.997   6.816  15.773  0.0792 -0.4130  0.6931
12684TIP3    H159543   4.039   6.890  15.817  1.7635 -1.7292  1.3845
12684TIP3    H259544   3.964   6.853  15.691  0.8990  1.0917  1.0008
12685TIP3   OH259545   6.295   2.479  15.183  0.3040  0.6948 -0.3428
12685TIP3    H159546   6.199   2.481  15.178  0.1589 -0.8574  1.1116
12685TIP3    H259547   6.321   2.406  15.127  0.4719 -0.1337  0.7812
12686TIP3   OH259548   5.927   0.503   3.747  0.8388 -0.0605  0.3541
12686TIP3    H159549   5.966   0.491   3.834  0.8371 -0.5788  0.2809
12686TIP3    H259550   5.847   0.553   3.765  0.4197 -0.8633  0.7448
12687TIP3   OH259551   5.218   2.029   4.880  0.3352  0.5647 -0.0255
12687TIP3    H159552   5.191   2.054   4.792  0.4446  0.6135 -0.0453
12687TIP3    H259553   5.312   2.012   4.873  0.0630 -0.9801 -0.2658
12688TIP3   OH259554   4.726   3.112   4.786  0.6015  0.1223 -0.5488
12688TIP3    H159555   4.702   3.023   4.813  1.3368  0.4268  1.1994
12688TIP3    H259556   4.810   3.100   4.741  2.4802  0.2412  2.6805
12689TIP3   OH259557   5.665   1.768   4.655 -0.5391 -0.1750  0.0674
12689TIP3    H159558   5.624   1.832   4.597 -1.7058  0.5199  1.5941
12689TIP3    H259559   5.755   1.800   4.665 -0.4630 -0.0275 -0.9242
12690TIP3   OH259560   0.236   1.692   4.062  0.3684 -0.2291 -0.2612
12690TIP3    H159561   0.269   1.665   3.977  2.5884  0.8959  0.1851
12690TIP3    H259562   0.215   1.610   4.107 -0.1353 -0.8543 -1.5913
12691TIP3   OH259563   5.363   4.602   3.685 -0.6333  0.2614  0.4847
12691TIP3    H159564   5.339   4.650   3.605 -1.9851 -3.1761 -1.4241
12691TIP3    H259565   5.282   4.556   3.709  0.8585 -2.0942  1.2568
12692TIP3   OH259566   2.176   4.410   1.528 -1.0884  0.3606  0.1641
12692TIP3    H159567   2.103   4.409   1.590  0.3149  0.7013  1.8704
12692TIP3    H259568   2.151   4.477   1.464 -1.5930  1.6111  1.6133
12693TIP3   OH259569   3.569   5.357  12.547 -0.2060  0.0205  0.3197
12693TIP3    H159570   3.575   5.263  12.530 -0.4355  0.0471  0.0777
12693TIP3    H259571   3.545   5.395  12.463  1.5020  0.4857  0.0143
12694TIP3   OH259572   5.419   5.990   3.343  0.3787 -0.7853  0.3868
12694TIP3    H159573   5.492   5.946   3.386 -0.1517 -2.2834 -0.1741
12694TIP3    H259574   5.456   6.073   3.312  1.7950 -1.4103  0.3013
12695TIP3   OH259575   5.461   1.146  13.661  0.0421  0.1210  0.0772
12695TIP3    H159576   5.460   1.052  13.640 -0.5116 -0.2454  1.5867
12695TIP3    H259577   5.384   1.180  13.616  1.0968  0.2087 -1.7831
12696TIP3   OH259578   1.962   5.013   2.369  0.0583  0.0352  0.0918
12696TIP3    H159579   1.982   5.003   2.463 -0.9603 -0.9981  0.2151
12696TIP3    H259580   1.874   5.050   2.368 -0.2372 -0.6682 -0.4523
12697TIP3   OH259581   2.750   5.747   4.718 -0.3530 -0.0441  0.4002
12697TIP3    H159582   2.656   5.763   4.712 -0.1664  1.0682  0.1415
12697TIP3    H259583   2.777   5.793   4.798  0.1558  0.7144 -0.1866
12698TIP3   OH259584   6.783   0.544  11.091 -0.4323 -0.6577  0.1154
12698TIP3    H159585   6.730   0.623  11.101 -0.8240 -0.6316 -1.7710
12698TIP3    H259586   6.873   0.575  11.087 -0.6405 -0.1771 -1.4799
12699TIP3   OH259587   5.427   3.158   0.849  0.2570 -0.3239 -0.4018
12699TIP3    H159588   5.346   3.136   0.896  0.0065 -1.1390 -1.1951
12699TIP3    H259589   5.433   3.092   0.780  1.6831 -0.3549 -0.2634
12700TIP3   OH259590   3.836   4.638   1.005  0.4713 -0.1248  0.2392
12700TIP3    H159591   3.921   4.625   1.047  0.1813 -1.7984  0.3442
12700TIP3    H259592   3.816   4.731   1.020  2.5300  0.4569 -0.2877
12701TIP3   OH259593   1.179   2.973  16.143 -0.0582 -0.0572 -0.1742
12701TIP3    H159594   1.107   2.916  16.169  1.1055 -0.9903  1.2034
12701TIP3    H259595   1.216   3.004  16.226 -0.5838  2.6964 -0.8645
12702TIP3   OH259596   0.001   5.048  12.259  0.2523  0.0163 -0.4954
12702TIP3    H159597  -0.088   5.013  12.255  0.1069  0.3582 -0.3098
12702TIP3    H259598   0.053   4.976  12.294  0.0532 -0.1937 -0.6257
12703TIP3   OH259599   5.340   6.760  16.974 -0.1156  0.1340  0.2480
12703TIP3    H159600   5.380   6.703  17.039 -0.4814  0.1498  0.4879
12703TIP3    H259601   5.248   6.734  16.972 -0.6823  1.8313  1.5925
12704TIP3   OH259602   6.556   4.879   2.018  0.2863  0.2952  0.0183
12704TIP3    H159603   6.545   4.891   1.924 -1.4318  1.0784  0.2813
12704TIP3    H259604   6.569   4.968   2.052  0.2342  0.0924  0.5875
12705TIP3   OH259605   2.999   4.872   0.049  0.8172  0.2536 -0.1676
12705TIP3    H159606   2.927   4.812   0.030  1.2269  0.1192 -1.4110
12705TIP3    H259607   3.023   4.908  -0.036 -0.0552  2.9675  0.6209
12706TIP3   OH259608   6.298   4.714  13.073  0.3594 -0.1515  0.0529
12706TIP3    H159609   6.203   4.704  13.070  0.5420 -2.3265  0.1761
12706TIP3    H259610   6.317   4.783  13.010 -1.2918  0.3820  0.0977
12707TIP3   OH259611   0.215   5.343  12.706  0.6264  0.0742  0.0136
12707TIP3    H159612   0.170   5.259  12.697 -0.1477  0.3052  1.4278
12707TIP3    H259613   0.153   5.407  12.672  0.3135  0.2790  0.9407
12708TIP3   OH259614   6.849   5.140   3.691  0.2913  0.4577 -0.0955
12708TIP3    H159615   6.874   5.063   3.740  0.1435  0.3613 -0.1705
12708TIP3    H259616   6.882   5.214   3.742 -0.3419  0.3816  0.4331
12709TIP3   OH259617   4.579   5.588  11.765  0.1554  0.8803  0.5341
12709TIP3    H159618   4.652   5.554  11.713 -0.1445  1.3138 -0.1950
12709TIP3    H259619   4.601   5.681  11.778 -1.5776  1.7961 -2.1742
12710TIP3   OH259620   2.843   1.137   2.074 -0.1336 -0.3894 -0.2115
12710TIP3    H159621   2.829   1.118   1.981  0.1779 -0.1335 -0.3126
12710TIP3    H259622   2.910   1.206   2.074 -2.5192  2.0843  0.0449
12711TIP3   OH259623   4.766   1.586  14.404  0.0307 -0.1110  0.2740
12711TIP3    H159624   4.728   1.669  14.375 -0.8912 -0.5105  0.2957
12711TIP3    H259625   4.846   1.576  14.352  0.8025  1.3502  1.1081
12712TIP3   OH259626   6.554   5.846  13.391 -0.6452 -0.0853  0.0370
12712TIP3    H159627   6.600   5.779  13.342 -0.2401  0.4264 -0.2986
12712TIP3    H259628   6.569   5.927  13.341 -1.1240  0.2524  0.4266
12713TIP3   OH259629   4.934   1.023   3.631 -0.0910 -0.5046  0.1678
12713TIP3    H159630   4.839   1.037   3.620 -0.0225  0.6608  0.8830
12713TIP3    H259631   4.966   1.009   3.542 -0.8357 -0.2581 -0.1518
12714TIP3   OH259632   6.744   5.431  15.187 -0.9181 -0.3661  0.2598
12714TIP3    H159633   6.789   5.483  15.253 -1.8750 -0.2120  0.8059
12714TIP3    H259634   6.805   5.360  15.167  0.3832  0.8908 -0.4443
12715TIP3   OH259635   0.159   1.510  15.915 -0.0783  0.0225 -0.1402
12715TIP3    H159636   0.252   1.490  15.928 -0.2197 -0.7345 -0.2204
12715TIP3    H259637   0.146   1.595  15.957  0.7917  0.4438 -0.7003
12716TIP3   OH259638   2.643   6.193   3.010  0.7292  0.6290 -0.3864
12716TIP3    H159639   2.590   6.114   3.017  1.9740 -0.2997 -1.1284
12716TIP3    H259640   2.595   6.249   2.950 -0.0969  0.3984  0.0414
12717TIP3   OH259641   3.579   6.528  16.110 -0.4369  0.5954 -0.4397
12717TIP3    H159642   3.487   6.536  16.134 -0.3339 -0.9822  0.6261
12717TIP3    H259643   3.589   6.439  16.078  0.8667  0.4503  0.2622
12718TIP3   OH259644   6.146   6.323   1.541  0.0912 -0.1164 -0.0390
12718TIP3    H159645   6.208   6.277   1.597  1.0335  1.5842  0.3566
12718TIP3    H259646   6.139   6.267   1.463  2.9629  0.1339 -0.5887
12719TIP3   OH259647   2.716   1.207   3.091  0.1374 -0.4102 -0.7115
12719TIP3    H159648   2.712   1.134   3.029  0.2203 -1.1112  0.0991
12719TIP3    H259649   2.809   1.228   3.097  0.4282 -1.9822  1.0321
12720TIP3   OH259650   2.531   5.987  15.807 -0.4375  0.2059 -0.3781
12720TIP3    H159651   2.480   5.983  15.726  0.1532  1.8258 -0.8687
12720TIP3    H259652   2.470   6.026  15.870 -1.1157 -1.6608  0.1785
12721TIP3   OH259653   0.262   1.261   0.687  0.8300 -0.9966 -0.3049
12721TIP3    H159654   0.319   1.253   0.763 -0.0221 -0.3719  0.4082
12721TIP3    H259655   0.318   1.236   0.613  2.1521 -0.0318  0.3337
12722TIP3   OH259656   3.879   3.856  12.443 -0.2624 -0.1059  0.3120
12722TIP3    H159657   3.817   3.823  12.507  0.1225 -0.0592  0.7104
12722TIP3    H259658   3.855   3.813  12.361 -0.5521 -0.4082  0.5583
12723TIP3   OH259659   0.567   5.767   3.117  0.4680  0.2683 -0.1590
12723TIP3    H159660   0.661   5.777   3.126  0.5425  0.4205 -1.0565
12723TIP3    H259661   0.531   5.807   3.196  1.0389  2.5793 -0.9830
12724TIP3   OH259662   1.737   3.282  13.347  0.5706  0.9054  0.1081
12724TIP3    H159663   1.755   3.291  13.254 -0.1072 -1.9544 -0.3953
12724TIP3    H259664   1.803   3.220  13.378 -1.5465 -1.2073  0.6117
12725TIP3   OH259665   0.426   6.792   5.959 -0.2293 -0.0900 -0.1254
12725TIP3    H159666   0.379   6.762   5.881  1.0094  0.0011 -0.9350
12725TIP3    H259667   0.450   6.712   6.005 -2.2133 -0.1188  0.9783
12726TIP3   OH259668   6.152   2.242  16.520 -0.2254 -0.3409  0.2470
12726TIP3    H159669   6.111   2.324  16.548  0.1804 -0.0889  0.1084
12726TIP3    H259670   6.141   2.183  16.596 -0.7182 -0.2385  0.2598
12727TIP3   OH259671   4.868   0.850  12.727 -0.1606  0.4548  0.6953
12727TIP3    H159672   4.886   0.854  12.821  2.7044 -0.9321  0.2845
12727TIP3    H259673   4.890   0.761  12.701  2.5859  1.7004 -1.8650
12728TIP3   OH259674   3.137   0.161  16.791  0.2163 -0.4800 -0.4975
12728TIP3    H159675   3.081   0.186  16.864  3.2749 -0.6861  2.1631
12728TIP3    H259676   3.141   0.239  16.736 -0.4740  0.4685  0.7569
12729TIP3   OH259677   5.641   5.595  14.679 -0.6128 -0.3909  0.4041
12729TIP3    H159678   5.592   5.646  14.614  2.1093  0.8302 -0.8643
12729TIP3    H259679   5.689   5.531  14.627 -0.9698 -1.6971  1.6278
12730TIP3   OH259680   6.179   0.167  11.722 -0.1426  0.7191  0.1289
12730TIP3    H159681   6.214   0.256  11.726  0.4330  0.5319 -0.5705
12730TIP3    H259682   6.230   0.124  11.653 -0.8857  0.0520 -0.0188
12731TIP3   OH259683   4.399   0.364   3.241  0.3555 -0.5153 -0.8294
12731TIP3    H159684   4.406   0.420   3.318  2.3586 -1.4808 -0.2255
12731TIP3    H259685   4.305   0.346   3.232  0.1223 -1.0133  1.8709
12732TIP3   OH259686   3.867   1.228   5.248  0.1423 -0.0736  0.1657
12732TIP3    H159687   3.960   1.222   5.225 -0.2835 -1.3270 -1.3276
12732TIP3    H259688   3.848   1.322   5.245  1.1309  0.1215 -0.4206
12733TIP3   OH259689   1.605   5.941   3.831 -0.2004 -0.2949  0.2746
12733TIP3    H159690   1.570   6.027   3.808 -3.3319 -1.4665  0.1775
12733TIP3    H259691   1.577   5.927   3.921 -1.3320 -1.8861 -0.2806
12734TIP3   OH259692   0.675   6.811   3.444 -0.3104  0.5035  0.1050
12734TIP3    H159693   0.636   6.743   3.499 -0.3913  0.4358 -0.0342
12734TIP3    H259694   0.673   6.774   3.356 -0.5878  0.7861 -0.0100
12735TIP3   OH259695   3.812   5.165  15.368  0.1325  0.3994  0.0567
12735TIP3    H159696   3.742   5.101  15.360  1.9796 -1.6746 -0.7209
12735TIP3    H259697   3.785   5.237  15.312 -1.2975 -0.4152 -0.3509
12736TIP3   OH259698   5.337   4.471   1.799  0.0448 -0.5002 -0.4037
12736TIP3    H159699   5.337   4.548   1.742 -2.3984  0.6002  0.9094
12736TIP3    H259700   5.430   4.450   1.810  0.6872  0.7931 -2.6835
12737TIP3   OH259701   1.303   3.095   2.249 -0.2736 -0.0812  0.5772
12737TIP3    H159702   1.393   3.091   2.283  0.1245 -0.6054 -0.4616
12737TIP3    H259703   1.305   3.168   2.187 -0.1552 -0.9713 -0.5025
12738TIP3   OH259704   4.940   6.729  11.274  0.1607 -0.0871  0.2076
12738TIP3    H159705   4.954   6.786  11.349  1.2498  0.3087 -0.2758
12738TIP3    H259706   5.022   6.679  11.265  0.3057  0.3266 -1.0787
12739TIP3   OH259707   0.194   2.116  16.340  0.1111  0.1383  0.5139
12739TIP3    H159708   0.216   2.189  16.397 -0.9813  0.5374  0.4335
12739TIP3    H259709   0.203   2.039  16.397 -2.2242  0.6234  1.6354
12740TIP3   OH259710   0.801   4.615  14.211  0.2347 -0.1220  0.3428
12740TIP3    H159711   0.862   4.629  14.284 -1.1622 -0.4382  1.6074
12740TIP3    H259712   0.719   4.589  14.253 -0.7608  0.2207 -1.3279
12741TIP3   OH259713   0.407   3.707   0.783  0.4704  0.3543  0.0996
12741TIP3    H159714   0.407   3.803   0.781 -0.5769  0.3600 -0.3921
12741TIP3    H259715   0.354   3.685   0.859 -0.2304  0.1764 -0.4284
12742TIP3   OH259716   6.288   6.164  12.469 -0.0644 -0.2177  0.0758
12742TIP3    H159717   6.314   6.072  12.469  0.2977 -0.1344 -1.1826
12742TIP3    H259718   6.371   6.212  12.471 -0.2244  0.0699 -0.0872
12743TIP3   OH259719   6.208   6.094  12.944 -0.2580 -0.3697  0.6085
12743TIP3    H159720   6.162   6.148  13.009 -1.1379  1.8418 -1.6539
12743TIP3    H259721   6.153   6.099  12.866  3.2578  1.8521 -2.0754
12744TIP3   OH259722   1.866   3.164   4.064 -0.1564 -0.2753 -0.6693
12744TIP3    H159723   1.920   3.163   3.985 -1.3023 -0.4250 -1.4716
12744TIP3    H259724   1.815   3.245   4.058  0.7544  0.4461  0.6499
12745TIP3   OH259725   0.238   6.713   4.443  0.8061 -0.1029 -0.9517
12745TIP3    H159726   0.297   6.780   4.477 -0.6366  0.6128  0.2421
12745TIP3    H259727   0.275   6.690   4.357  3.1326 -0.1448 -0.0108
12746TIP3   OH259728   2.413   0.315   1.870  0.4086 -0.3598 -0.2631
12746TIP3    H159729   2.398   0.220   1.876 -0.4133 -0.5284 -3.1690
12746TIP3    H259730   2.360   0.352   1.940  0.0173 -2.0192  0.3724
12747TIP3   OH259731   5.274   4.952   3.232 -0.4746  0.5327 -0.0352
12747TIP3    H159732   5.347   4.896   3.259 -0.5372  0.9195  0.9702
12747TIP3    H259733   5.278   5.027   3.290 -2.4284 -0.0303  0.9210
12748TIP3   OH259734   6.813   4.418  13.234  0.6437  0.3754  0.3268
12748TIP3    H159735   6.748   4.431  13.165  0.1990  0.7901  0.8254
12748TIP3    H259736   6.862   4.500  13.236  0.1899  0.6298  0.9944
12749TIP3   OH259737   3.921   3.145  12.993 -0.0124  0.5150  0.2050
12749TIP3    H159738   3.984   3.187  12.934 -0.4523 -0.4989 -1.0192
12749TIP3    H259739   3.836   3.162  12.953 -0.2733 -0.6444  0.2421
12750TIP3   OH259740   1.684   5.741  15.239  0.4182 -0.3654 -0.0103
12750TIP3    H159741   1.633   5.672  15.195  1.7848 -0.6557 -1.1958
12750TIP3    H259742   1.773   5.707  15.241  0.7062  0.4292  1.4278
12751TIP3   OH259743   1.160   5.157   0.725  0.0888  0.1854 -0.0558
12751TIP3    H159744   1.145   5.179   0.817 -0.1259 -0.8198  0.1625
12751TIP3    H259745   1.180   5.063   0.725  0.8259  0.3250 -0.9594
12752TIP3   OH259746   5.424   5.811  13.365 -0.1675 -0.6304  0.3102
12752TIP3    H159747   5.477   5.759  13.426 -0.8892 -0.5121  1.0712
12752TIP3    H259748   5.411   5.894  13.411  0.6412  0.0779 -0.7220
12753TIP3   OH259749   1.252   4.484  16.063  0.1054 -0.0200  0.6716
12753TIP3    H159750   1.161   4.473  16.089 -0.7695 -1.1263 -2.4817
12753TIP3    H259751   1.283   4.396  16.046  0.8597  0.5482 -1.0337
12754TIP3   OH259752   4.029   1.521   4.693 -0.4536 -0.1940 -0.3124
12754TIP3    H159753   4.022   1.427   4.681  1.5195 -0.3371 -0.6729
12754TIP3    H259754   3.939   1.552   4.697 -1.1318 -1.9911 -0.9709
12755TIP3   OH259755   4.162   3.819   2.073 -0.7217  0.5425 -0.3778
12755TIP3    H159756   4.234   3.851   2.019 -0.7118 -0.1918 -0.8113
12755TIP3    H259757   4.205   3.793   2.155 -0.7513  1.7412  0.0383
12756TIP3   OH259758   5.369   1.812   2.273 -0.3062  0.6806 -0.1362
12756TIP3    H159759   5.439   1.868   2.307  0.9095 -0.4292 -0.6912
12756TIP3    H259760   5.317   1.869   2.217  0.5600  1.3974 -0.2324
12757TIP3   OH259761   0.943   5.029   3.368  0.6958 -0.3289 -0.3346
12757TIP3    H159762   0.899   4.946   3.385 -1.4239  0.7402 -0.2119
12757TIP3    H259763   0.986   5.051   3.450 -0.3651 -0.4047  0.2643
12758TIP3   OH259764   1.628   4.127   0.248 -0.5830  0.2419 -0.4720
12758TIP3    H159765   1.599   4.145   0.337  1.4723 -0.5993  0.4336
12758TIP3    H259766   1.561   4.070   0.212  0.2428 -2.4182  1.8484
12759TIP3   OH259767   5.169   6.579  16.054  0.1813 -0.5052 -0.6827
12759TIP3    H159768   5.177   6.593  16.149 -1.7053 -0.6366 -0.4710
12759TIP3    H259769   5.249   6.617  16.018  1.9520 -2.3133  1.1050
12760TIP3   OH259770   3.538   5.561  13.709 -0.9267  0.0084  0.4285
12760TIP3    H159771   3.579   5.475  13.721 -0.9948 -0.1719 -0.5250
12760TIP3    H259772   3.463   5.560  13.767 -1.9316 -1.2715 -0.8225
12761TIP3   OH259773   3.753   3.996   3.719 -0.5930  0.2941  0.1688
12761TIP3    H159774   3.764   3.930   3.650  2.4810  0.5416  0.2858
12761TIP3    H259775   3.812   3.967   3.789 -1.8223  1.3450  1.6960
12762TIP3   OH259776   4.903   1.120  13.076  0.2402  0.4997  0.7309
12762TIP3    H159777   4.934   1.210  13.071  0.0955  0.5160 -2.7318
12762TIP3    H259778   4.810   1.125  13.054  0.9076 -0.6096 -3.1552
12763TIP3   OH259779   3.222   4.272   4.913 -0.0119 -0.2023 -0.0909
12763TIP3    H159780   3.142   4.294   4.865  1.2054  1.0556 -1.6495
12763TIP3    H259781   3.216   4.322   4.994  0.0507  1.4190 -1.0511
12764TIP3   OH259782   1.480   0.564   3.238  0.4279 -0.4971  0.5419
12764TIP3    H159783   1.547   0.497   3.244  1.5597  0.4400 -0.9138
12764TIP3    H259784   1.503   0.614   3.160 -1.6348  0.2245  0.3332
12765TIP3   OH259785   5.123   3.546  16.592  0.5871  0.0056 -0.2875
12765TIP3    H159786   5.154   3.636  16.597 -1.2256  0.6467 -0.0602
12765TIP3    H259787   5.093   3.526  16.681 -0.3767 -0.3143 -0.6766
12766TIP3   OH259788   6.031   4.967   5.177  0.0368  0.2633 -0.2965
12766TIP3    H159789   6.020   5.016   5.258  1.2701  0.1904 -0.0558
12766TIP3    H259790   6.105   5.010   5.133  1.3964 -1.5441  0.0852
12767TIP3   OH259791   0.493   4.668  17.036  0.2078  0.0417 -0.4956
12767TIP3    H159792   0.463   4.742  17.088  1.7817  0.7863 -0.6048
12767TIP3    H259793   0.576   4.696  16.999  1.0713 -1.9208 -0.2034
12768TIP3   OH259794   6.471   0.697  12.487 -0.1169 -0.7128 -0.0386
12768TIP3    H159795   6.472   0.655  12.402 -2.4584  0.4550 -0.7207
12768TIP3    H259796   6.528   0.774  12.477 -0.4255 -0.5538 -0.5732
12769TIP3   OH259797   6.446   6.466   5.543  0.2465  0.4433 -0.3311
12769TIP3    H159798   6.432   6.518   5.622  0.8099 -1.3032  0.9900
12769TIP3    H259799   6.358   6.452   5.507  0.1538  3.0593 -1.3049
12770TIP3   OH259800   6.206   4.855  14.239  0.7119 -0.0522  0.1628
12770TIP3    H159801   6.268   4.831  14.169 -0.1647 -1.4401 -0.1635
12770TIP3    H259802   6.255   4.917  14.293  1.8778  0.0202 -0.9193
12771TIP3   OH259803   0.964   0.279   1.430 -0.2089  0.0513 -0.8972
12771TIP3    H159804   0.969   0.192   1.469  0.8813  0.5503  0.1374
12771TIP3    H259805   0.942   0.338   1.503  0.7542  0.8505 -1.2186
12772TIP3   OH259806   2.002   2.638  10.842  0.1361 -0.5967 -0.1519
12772TIP3    H159807   2.001   2.653  10.748  0.4558 -2.5806 -0.5086
12772TIP3    H259808   1.970   2.548  10.853 -0.1158 -0.3321  1.6445
12773TIP3   OH259809   0.383   5.106  11.543 -0.0354 -0.4095  0.0959
12773TIP3    H159810   0.451   5.053  11.585 -0.8489 -1.8707 -0.3680
12773TIP3    H259811   0.345   5.157  11.615  0.5451 -0.7108  0.6246
12774TIP3   OH259812   2.418   2.251  15.921 -0.4588 -0.3633 -0.3026
12774TIP3    H159813   2.367   2.247  15.840 -1.1857 -2.8058  0.1912
12774TIP3    H259814   2.497   2.200  15.901 -0.9591 -1.5633  0.6994
12775TIP3   OH259815   1.913   3.722   3.687  0.2917  0.1436 -0.0081
12775TIP3    H159816   1.881   3.718   3.597  0.9522 -1.4981 -0.2075
12775TIP3    H259817   1.951   3.810   3.695 -0.8748  0.7654 -0.9200
12776TIP3   OH259818   0.707   1.693   4.745  0.2734  0.2773 -0.5950
12776TIP3    H159819   0.708   1.722   4.654 -0.1187 -0.3952 -0.8117
12776TIP3    H259820   0.791   1.649   4.757 -0.0482 -0.4194 -0.8855
12777TIP3   OH259821   4.368   0.227  15.723 -0.5650 -0.8445  0.1213
12777TIP3    H159822   4.293   0.194  15.772 -2.1083 -0.5325 -1.8756
12777TIP3    H259823   4.438   0.164  15.739 -1.0485 -0.8529  2.4685
12778TIP3   OH259824   1.772   6.234   1.434  0.5794 -0.1572 -0.3582
12778TIP3    H159825   1.753   6.260   1.524 -0.1004  0.9407 -0.7972
12778TIP3    H259826   1.706   6.279   1.381 -1.4461 -3.6263 -1.1135
12779TIP3   OH259827   1.085   6.794   4.675  1.0029 -1.2380  0.1149
12779TIP3    H159828   1.171   6.835   4.675  0.6292 -0.4265 -0.3706
12779TIP3    H259829   1.089   6.729   4.605  0.5726  0.2808 -1.3964
12780TIP3   OH259830   2.434   0.042   3.312  0.1958 -0.7528 -0.5297
12780TIP3    H159831   2.397   0.097   3.381 -2.1418 -3.4809  0.5500
12780TIP3    H259832   2.485   0.103   3.258 -0.1632  1.9715  1.9701
12781TIP3   OH259833   1.935   1.683   6.769  0.6941 -0.3327  0.3648
12781TIP3    H159834   2.017   1.709   6.811  0.1644  1.8571  0.1793
12781TIP3    H259835   1.929   1.740   6.692 -1.3420  0.1131  0.7921
12782TIP3   OH259836   2.259   2.739  11.838  0.3261  0.4335  0.4411
12782TIP3    H159837   2.218   2.824  11.851  1.0047  0.8384 -0.0116
12782TIP3    H259838   2.352   2.754  11.855  0.5698 -0.0264 -0.4304
12783TIP3   OH259839   1.765   0.795   0.779 -0.2507  0.6362  0.3349
12783TIP3    H159840   1.726   0.872   0.821 -2.7133 -0.0233 -0.6100
12783TIP3    H259841   1.827   0.832   0.715 -0.8383  1.8165  0.4162
12784TIP3   OH259842   1.624   5.759  12.730 -0.2391  0.3351  0.3526
12784TIP3    H159843   1.711   5.748  12.693 -0.3169  1.0591 -0.0543
12784TIP3    H259844   1.600   5.672  12.762  0.4156  0.0204 -0.0060
12785TIP3   OH259845   2.702   0.996   6.651 -0.0856 -0.2019 -0.0602
12785TIP3    H159846   2.717   0.990   6.745  0.6142 -1.5391 -0.2413
12785TIP3    H259847   2.713   1.089   6.631  0.3482  0.0041  1.0775
12786TIP3   OH259848   3.440   5.936  13.633  0.1152 -0.1863 -0.5874
12786TIP3    H159849   3.412   5.890  13.712  2.0428 -0.0630  0.2458
12786TIP3    H259850   3.501   5.876  13.591  0.0626  0.2595 -1.3109
12787TIP3   OH259851   2.883   6.402  16.457  0.2272 -0.1350  0.0233
12787TIP3    H159852   2.955   6.370  16.403 -0.0692  0.6777 -0.8847
12787TIP3    H259853   2.819   6.331  16.457  0.4172 -0.3075 -0.3530
12788TIP3   OH259854   0.132   5.081  12.671 -0.4335  0.2132 -0.2527
12788TIP3    H159855   0.050   5.034  12.654 -1.9718  1.8206  2.0179
12788TIP3    H259856   0.201   5.017  12.653 -2.1893 -1.3800 -1.7207
12789TIP3   OH259857   6.535   0.615   5.039  0.4316  0.4694 -0.4933
12789TIP3    H159858   6.596   0.552   5.077 -0.7155 -0.5570 -0.3009
12789TIP3    H259859   6.520   0.583   4.951 -0.8540 -0.0531 -0.0975
12790TIP3   OH259860   0.490   2.707  12.589  0.1479  0.5294  0.1556
12790TIP3    H159861   0.564   2.706  12.527 -0.4613  2.8983 -0.7046
12790TIP3    H259862   0.529   2.683  12.673  1.5440 -0.0233 -0.6188
12791TIP3   OH259863   0.389   0.407   0.138  0.0812  0.3435 -0.2412
12791TIP3    H159864   0.433   0.467   0.199  0.7499 -0.6772  0.3179
12791TIP3    H259865   0.296   0.427   0.148  0.2051  0.4545  0.8698
12792TIP3   OH259866   5.504   2.694  16.435 -0.3150  0.2664 -0.2331
12792TIP3    H159867   5.413   2.715  16.456 -0.2161 -0.3546  0.8501
12792TIP3    H259868   5.506   2.598  16.430  0.4654  0.2229  0.6792
12793TIP3   OH259869   6.290   4.423   3.373  0.0092 -0.7566  0.1668
12793TIP3    H159870   6.280   4.330   3.394  2.4096 -1.2492 -0.5165
12793TIP3    H259871   6.334   4.424   3.288 -0.0192  1.0057  0.1341
12794TIP3   OH259872   5.674   1.885   5.748  0.3406  0.1345 -0.2216
12794TIP3    H159873   5.714   1.839   5.822  0.1650 -0.6572 -0.6056
12794TIP3    H259874   5.584   1.899   5.775 -0.0706 -1.2705 -0.7485
12795TIP3   OH259875   4.373   2.178  13.847  0.0236 -0.1614 -0.5049
12795TIP3    H159876   4.465   2.203  13.837 -0.0293  1.1831  1.7663
12795TIP3    H259877   4.371   2.085  13.825  2.1043 -0.4646  0.3688
12796TIP3   OH259878   4.176   3.111   5.793 -0.0326 -0.2133  0.4426
12796TIP3    H159879   4.246   3.054   5.823  0.2551 -0.6596 -0.9734
12796TIP3    H259880   4.100   3.086   5.846  0.6119 -0.4466  1.2738
12797TIP3   OH259881   0.566   3.117  11.280  0.3034  0.1997  0.6635
12797TIP3    H159882   0.491   3.136  11.336 -1.5317 -2.7414 -0.5050
12797TIP3    H259883   0.527   3.105  11.193  2.5373  1.0698 -0.5178
12798TIP3   OH259884   1.775   0.273  12.941 -0.1025  0.5260  0.5503
12798TIP3    H159885   1.694   0.259  12.893 -0.7203  1.7331  1.2154
12798TIP3    H259886   1.749   0.274  13.033  0.6087  1.3149  0.7496
12799TIP3   OH259887   6.410   1.998   0.058  0.5732  1.2730 -0.4003
12799TIP3    H159888   6.440   2.050  -0.017  1.0199  0.5813 -0.7212
12799TIP3    H259889   6.487   1.946   0.083  0.7439  2.2592  1.2256
12800TIP3   OH259890   3.364   3.929   4.204  0.4062  0.3319 -0.1664
12800TIP3    H159891   3.406   3.867   4.263 -1.0448 -2.6401 -2.0268
12800TIP3    H259892   3.344   4.005   4.260 -0.3724 -1.9991  3.0162
12801TIP3   OH259893   5.564   2.050   2.739  0.3665 -0.1846 -0.4515
12801TIP3    H159894   5.485   2.059   2.792 -0.4859 -0.0921 -1.6918
12801TIP3    H259895   5.622   1.994   2.791  0.3049  1.3386  1.3553
12802TIP3   OH259896   3.249   3.770  13.021  0.2712 -0.2160  0.2665
12802TIP3    H159897   3.284   3.811  13.100  0.8260  2.7220 -1.3653
12802TIP3    H259898   3.168   3.817  13.003 -0.0981 -1.1731 -0.6515
12803TIP3   OH259899   6.028   2.061  16.224 -0.6266 -0.3769 -0.7357
12803TIP3    H159900   5.941   2.057  16.184 -0.6097  1.3660 -1.0226
12803TIP3    H259901   6.023   2.000  16.297 -2.6393  0.8297  0.2298
12804TIP3   OH259902   5.319   5.363  13.530 -0.1606  0.5992 -0.1017
12804TIP3    H159903   5.310   5.440  13.474  0.1993  0.9010  0.2571
12804TIP3    H259904   5.407   5.369  13.566 -0.0970 -0.0238 -0.1323
12805TIP3   OH259905   3.879   2.315  17.082 -0.1724 -0.8164 -0.0647
12805TIP3    H159906   3.792   2.330  17.119  0.0259 -1.7607  0.8293
12805TIP3    H259907   3.937   2.311  17.157  1.2378  2.9108 -0.7240
12806TIP3   OH259908   6.767   1.947   4.887 -0.4327 -1.3840 -0.5534
12806TIP3    H159909   6.857   1.959   4.918 -0.4407 -1.0413 -0.6553
12806TIP3    H259910   6.750   2.025   4.834 -0.5497 -1.7766 -1.1051
12807TIP3   OH259911   1.278   0.898  13.271  0.2308 -0.3468 -1.0998
12807TIP3    H159912   1.204   0.869  13.325  1.2935  1.1317  1.3577
12807TIP3    H259913   1.238   0.945  13.198 -1.2736 -0.2798 -0.2649
12808TIP3   OH259914   4.784   6.574   4.189 -0.3623  0.0004 -0.4106
12808TIP3    H159915   4.697   6.572   4.149 -0.7764 -0.8418  0.4861
12808TIP3    H259916   4.843   6.601   4.118 -1.1990 -0.5257 -1.3240
12809TIP3   OH259917   6.676   0.440   4.303 -0.3494 -0.2025 -0.2684
12809TIP3    H159918   6.751   0.492   4.272 -0.4137 -0.6726 -1.2652
12809TIP3    H259919   6.697   0.350   4.277 -1.2965 -0.3232 -0.6448
12810TIP3   OH259920   2.859   3.648  11.599 -0.2072 -0.0095 -0.2202
12810TIP3    H159921   2.941   3.648  11.550  0.2367  1.1712  0.4740
12810TIP3    H259922   2.792   3.674  11.535  0.2758  0.9404 -0.3535
12811TIP3   OH259923   0.457   2.924  10.898  0.2408 -0.2558  0.1328
12811TIP3    H159924   0.402   2.936  10.820  0.3068 -0.0689  0.1160
12811TIP3    H259925   0.465   3.011  10.936  0.4239 -0.3040  0.2055
12812TIP3   OH259926   3.997   2.602  12.566 -0.0679 -0.4207  0.3973
12812TIP3    H159927   4.034   2.624  12.481 -1.0089 -0.6551 -0.0921
12812TIP3    H259928   4.031   2.515  12.586  1.3867  0.2595  1.0006
12813TIP3   OH259929   5.089   2.226   0.283  0.1179  0.8210  0.5935
12813TIP3    H159930   5.141   2.145   0.275 -1.5069 -0.1422 -0.9506
12813TIP3    H259931   5.148   2.295   0.253  0.0956 -0.4679 -2.9621
12814TIP3   OH259932   0.084   4.840  11.533 -0.1545  0.5747  0.2634
12814TIP3    H159933   0.059   4.794  11.453  0.3288 -0.5678  0.7524
12814TIP3    H259934   0.126   4.920  11.502  2.4255 -1.0309 -0.7486
12815TIP3   OH259935   2.086   6.217  11.002 -0.4643 -0.0445  0.5488
12815TIP3    H159936   1.992   6.198  11.004 -0.6092  0.3502 -1.1046
12815TIP3    H259937   2.093   6.297  10.951  0.8507 -0.6717 -0.3015
12816TIP3   OH259938   0.968   4.887  13.514  0.5035 -0.6496  0.8318
12816TIP3    H159939   0.981   4.822  13.445  0.6793  0.6368 -0.3780
12816TIP3    H259940   0.872   4.892  13.524  0.4796 -0.8370  0.7065
12817TIP3   OH259941   0.606   4.267  13.784 -0.0295  0.3176 -0.2208
12817TIP3    H159942   0.569   4.235  13.866 -2.1612 -0.5972 -1.4730
12817TIP3    H259943   0.611   4.362  13.796  0.1969  0.1572  1.1413
12818TIP3   OH259944   2.537   2.856  12.147 -1.1259 -0.1817 -0.1303
12818TIP3    H159945   2.507   2.938  12.184 -0.1020  1.7356 -3.1740
12818TIP3    H259946   2.610   2.829  12.203 -1.3347  1.1165  0.7915
12819TIP3   OH259947   2.171   0.348  11.547 -0.1968  0.0484  0.2895
12819TIP3    H159948   2.203   0.408  11.479  0.2794 -1.0963 -0.5198
12819TIP3    H259949   2.232   0.360  11.620 -0.9170  1.5445  0.6868
12820TIP3   OH259950   4.853   5.394  11.135  1.2523 -0.1347 -0.4942
12820TIP3    H159951   4.918   5.408  11.066  0.5518 -0.5424 -1.2493
12820TIP3    H259952   4.882   5.314  11.179  2.0275  0.4445  0.0862
12821TIP3   OH259953   5.286   5.645  14.236  0.1845  0.1595  0.0250
12821TIP3    H159954   5.353   5.611  14.295  0.2340 -0.5131 -0.4077
12821TIP3    H259955   5.204   5.607  14.267  0.3971 -1.3758 -1.1858
12822TIP3   OH259956   4.700   2.308   2.259  0.1441 -0.3707 -0.0934
12822TIP3    H159957   4.752   2.386   2.276 -0.7704 -0.1967  2.3334
12822TIP3    H259958   4.649   2.329   2.181  1.2238  0.7407 -0.5216
12823TIP3   OH259959   4.684   2.191   3.919 -0.0375  0.0206  0.1556
12823TIP3    H159960   4.690   2.111   3.866 -1.3872 -0.7404  1.1023
12823TIP3    H259961   4.698   2.162   4.009  1.0733  1.1267  0.3674
12824TIP3   OH259962   6.197   5.170  13.524 -0.4488 -0.0820  0.0677
12824TIP3    H159963   6.123   5.189  13.466 -1.0353 -0.6995  0.5940
12824TIP3    H259964   6.260   5.124  13.469 -1.7964 -2.3552  0.3092
12825TIP3   OH259965   4.798   4.795   4.429  0.4012 -0.5992  0.9005
12825TIP3    H159966   4.874   4.754   4.471 -0.4929 -3.2262  0.1505
12825TIP3    H259967   4.833   4.831   4.347  0.6136 -3.6712 -0.5125
12826TIP3   OH259968   5.564   1.872   1.576 -0.8450  0.3207  0.0094
12826TIP3    H159969   5.614   1.861   1.657 -0.8116  0.3359 -0.0093
12826TIP3    H259970   5.623   1.920   1.518 -0.6590 -0.1664 -0.2159
12827TIP3   OH259971   1.485   3.919  14.278  0.0927  0.2291  0.5931
12827TIP3    H159972   1.484   3.827  14.305  1.5402  0.4673  1.5533
12827TIP3    H259973   1.503   3.916  14.184  1.4480 -0.4625  0.8481
12828TIP3   OH259974   1.273   4.684   1.614  0.3041 -0.3148  0.5000
12828TIP3    H159975   1.200   4.712   1.670  0.3630 -1.2767  1.0636
12828TIP3    H259976   1.351   4.692   1.669  0.3605 -1.2944  0.5731
12829TIP3   OH259977   6.254   3.585  14.465 -0.3278  0.4236 -0.3248
12829TIP3    H159978   6.194   3.637  14.412  1.3366  1.2289 -1.5392
12829TIP3    H259979   6.248   3.622  14.553 -0.7267  1.2841 -0.7061
12830TIP3   OH259980   5.927   4.878   2.161 -0.1658 -0.0468 -0.0565
12830TIP3    H159981   5.898   4.876   2.252 -0.4012 -0.6228 -0.1448
12830TIP3    H259982   5.944   4.787   2.139 -0.5175  0.0449 -0.7232
12831TIP3   OH259983   4.701   5.078   3.825  0.2649 -0.4226 -0.5184
12831TIP3    H159984   4.609   5.093   3.849  0.8334  1.5561  0.7171
12831TIP3    H259985   4.750   5.104   3.903  1.9227 -0.4690 -1.5037
12832TIP3   OH259986   3.235   0.927   3.109  0.7573  0.4388 -0.3227
12832TIP3    H159987   3.157   0.919   3.163  1.1362 -1.6538 -0.0250
12832TIP3    H259988   3.245   1.022   3.096  0.1044  0.9593  2.4287
12833TIP3   OH259989   6.839   0.482  14.757 -0.0420  0.3135 -0.8434
12833TIP3    H159990   6.881   0.469  14.673 -0.1264  0.4541 -0.9083
12833TIP3    H259991   6.747   0.458  14.742  0.1891 -0.9216 -0.4672
12834TIP3   OH259992   1.813   3.021  11.645  0.5733  0.1324  0.1256
12834TIP3    H159993   1.756   2.949  11.669  2.3889 -1.7703 -0.9561
12834TIP3    H259994   1.821   3.016  11.550  1.8111  0.9143  0.1568
12835TIP3   OH259995   4.787   2.132  15.031  0.0552 -0.3296  0.1167
12835TIP3    H159996   4.821   2.043  15.027  0.2969 -0.2042 -1.7118
12835TIP3    H259997   4.692   2.122  15.039  0.0936 -0.7475  0.0623
12836TIP3   OH259998   5.047   3.210  14.625 -0.2417  0.1140  0.0025
12836TIP3    H159999   5.078   3.276  14.563  3.0195 -1.1541  0.0699
12836TIP3    H260000   5.081   3.127  14.591 -3.5659 -1.5206  0.3162
12837TIP3   OH260001   2.131   5.999  15.188  0.0540 -0.2039 -0.0340
12837TIP3    H160002   2.135   6.045  15.271 -1.1331  2.0825 -1.1518
12837TIP3    H260003   2.037   5.991  15.169  0.2962 -0.9480 -1.0219
12838TIP3   OH260004   3.300   2.356  13.689 -0.2064  0.0829 -0.3372
12838TIP3    H160005   3.376   2.369  13.632  1.0412  0.5479  1.3403
12838TIP3    H260006   3.228   2.400  13.644  0.8205  0.8086 -1.3383
12839TIP3   OH260007   4.999   0.650   1.403  0.0567  0.0352 -0.4244
12839TIP3    H160008   4.935   0.588   1.367  1.0006 -0.3961 -1.4498
12839TIP3    H260009   5.034   0.606   1.480 -0.0651 -0.2273 -0.5178
12840TIP3   OH260010   6.284   3.801   0.730  0.7176 -0.5522  0.2711
12840TIP3    H160011   6.256   3.809   0.822 -0.2843 -2.4299  0.1753
12840TIP3    H260012   6.304   3.708   0.719 -1.8026 -0.9288 -2.0921
12841TIP3   OH260013   2.983   2.873   5.741  0.5859  0.4585 -0.0169
12841TIP3    H160014   3.005   2.924   5.664  0.8424 -1.8518 -1.5826
12841TIP3    H260015   3.067   2.843   5.775  0.5020  1.7025  1.4236
12842TIP3   OH260016   4.632   4.887   1.944  0.4926 -0.7877 -0.1083
12842TIP3    H160017   4.625   4.880   1.849  1.3041  0.8140 -0.3141
12842TIP3    H260018   4.565   4.827   1.977 -1.4657  0.3783 -1.7196
12843TIP3   OH260019   6.223   6.000  13.645  0.3892  0.0712 -0.0477
12843TIP3    H160020   6.294   5.935  13.645 -0.7703 -1.2466 -1.0247
12843TIP3    H260021   6.165   5.972  13.575 -2.0526  0.0407  1.8515
12844TIP3   OH260022   0.268   6.781  13.724 -0.2638  0.4924 -0.9300
12844TIP3    H160023   0.314   6.849  13.774  0.0664  0.7334 -1.5526
12844TIP3    H260024   0.180   6.816  13.711 -0.8156 -0.1888  0.7063
12845TIP3   OH260025   2.569   6.815  12.994  0.0891 -0.8831  0.3484
12845TIP3    H160026   2.660   6.805  12.968  0.2589 -0.3186  0.7246
12845TIP3    H260027   2.571   6.867  13.074 -0.6108 -0.0209 -0.1703
12846TIP3   OH260028   4.418   1.633   0.374  0.3683 -0.3917  0.6040
12846TIP3    H160029   4.459   1.561   0.325 -0.7245 -1.4256  1.1628
12846TIP3    H260030   4.399   1.699   0.308  0.0335 -1.2447 -0.1787
12847TIP3   OH260031   1.077   5.852  17.012  0.1980  0.3771  0.5880
12847TIP3    H160032   1.129   5.787  17.060 -2.0642 -0.9171  1.4103
12847TIP3    H260033   1.074   5.928  17.070 -0.4298 -0.2676  1.4263
12848TIP3   OH260034   6.261   2.730  10.388 -0.2007 -0.8990 -0.0351
12848TIP3    H160035   6.323   2.665  10.355  1.0733 -0.4688  1.3803
12848TIP3    H260036   6.255   2.795  10.318 -0.3829 -1.8098 -0.8778
12849TIP3   OH260037   6.369   3.880  16.252 -0.4629  0.7092 -0.1335
12849TIP3    H160038   6.293   3.875  16.194 -2.5480  0.9135  2.3627
12849TIP3    H260039   6.333   3.910  16.336  2.0661 -0.9996  1.7279
12850TIP3   OH260040   4.153   4.469   0.631  0.2283 -0.7612  0.2512
12850TIP3    H160041   4.206   4.530   0.682  0.3527 -0.4441 -0.2488
12850TIP3    H260042   4.158   4.386   0.679  2.0282 -1.0133 -0.3159
12851TIP3   OH260043   5.561   2.721   4.467  0.3042  0.3820 -0.1901
12851TIP3    H160044   5.490   2.770   4.509 -2.2015 -1.0656 -2.3707
12851TIP3    H260045   5.639   2.774   4.480 -1.5979  3.2405  0.4393
12852TIP3   OH260046   4.396   5.129  11.226  0.0155 -0.1858  0.5820
12852TIP3    H160047   4.443   5.074  11.164 -0.6558  0.2781 -0.3828
12852TIP3    H260048   4.334   5.178  11.171  0.2373  1.1380  1.4660
12853TIP3   OH260049   1.843   1.428   0.270  0.0318 -0.3084 -0.1715
12853TIP3    H160050   1.835   1.463   0.359 -2.2429  2.0855 -1.1952
12853TIP3    H260051   1.772   1.364   0.262  0.0296 -0.2826 -0.3753
12854TIP3   OH260052   3.425   0.584  15.828 -0.1841 -0.0492 -0.5359
12854TIP3    H160053   3.354   0.606  15.888  0.4426  0.1737  0.1303
12854TIP3    H260054   3.501   0.569  15.884  0.5531  0.7140 -1.3005
12855TIP3   OH260055   3.702   5.339  13.685  0.9317 -0.0141  0.6732
12855TIP3    H160056   3.740   5.354  13.598 -0.6661 -1.0391 -0.2537
12855TIP3    H260057   3.777   5.312  13.739  1.7133 -0.9705 -0.8144
12856TIP3   OH260058   4.998   6.479  14.220  0.3382  0.1923 -0.3925
12856TIP3    H160059   5.033   6.423  14.151 -1.1065 -1.1310 -0.1101
12856TIP3    H260060   5.066   6.481  14.287  1.0937  0.1582 -1.1570
12857TIP3   OH260061   1.982   2.732  11.566 -0.0209 -0.6995  0.2518
12857TIP3    H160062   1.963   2.691  11.482  2.1080 -1.4686  0.0675
12857TIP3    H260063   1.950   2.822  11.558  1.0105 -0.4655 -1.7439
12858TIP3   OH260064   1.515   3.524   2.969  0.1332 -0.5321  0.3440
12858TIP3    H160065   1.504   3.608   2.925  0.8221 -0.5756  0.0624
12858TIP3    H260066   1.585   3.480   2.919  0.8660 -0.6296  1.4155
12859TIP3   OH260067   3.168   0.879   1.997  0.2994 -0.2657 -0.0301
12859TIP3    H160068   3.236   0.828   2.041 -1.1031 -1.4052  0.9145
12859TIP3    H260069   3.089   0.826   2.005 -0.2351 -0.1862 -3.3183
12860TIP3   OH260070   6.322   2.263   5.130  0.1389 -0.0241 -0.2189
12860TIP3    H160071   6.267   2.198   5.087  0.1652 -1.3079  1.5488
12860TIP3    H260072   6.412   2.238   5.106  0.0928  0.2380 -0.6776
12861TIP3   OH260073   5.742   2.922   2.862 -0.6222  0.1474  0.0098
12861TIP3    H160074   5.821   2.874   2.888 -0.2734  0.0400 -1.2190
12861TIP3    H260075   5.744   3.002   2.915  0.1616  0.0176  0.1857
12862TIP3   OH260076   5.731   4.649   0.987  0.3993  0.5556 -0.7185
12862TIP3    H160077   5.789   4.640   1.063 -0.7324  2.4039  0.4400
12862TIP3    H260078   5.751   4.573   0.932  1.1075 -0.9693  1.5280
12863TIP3   OH260079   5.737   2.340  10.713 -0.4956 -0.3540 -0.2185
12863TIP3    H160080   5.676   2.295  10.654 -1.7173 -1.7880  1.9925
12863TIP3    H260081   5.687   2.416  10.745 -0.1841 -0.1042 -0.3254
12864TIP3   OH260082   3.748   0.282  16.306 -0.4066 -0.1780 -0.7568
12864TIP3    H160083   3.831   0.236  16.296 -0.0011 -0.1856  2.0329
12864TIP3    H260084   3.682   0.213  16.307  0.0416 -0.6353  1.7107
12865TIP3   OH260085   5.559   6.203  14.656  0.1763  0.4568 -0.2912
12865TIP3    H160086   5.624   6.142  14.621  0.3128 -0.9635  2.2112
12865TIP3    H260087   5.475   6.165  14.633  0.2659 -0.1906  0.4104
12866TIP3   OH260088   5.001   3.726  15.497 -0.4754  0.2261  0.5212
12866TIP3    H160089   4.940   3.669  15.451 -0.4673 -0.1528  0.9633
12866TIP3    H260090   5.022   3.678  15.578  0.3835  0.3561  0.3901
12867TIP3   OH260091   3.272   0.692  16.043  0.2286 -0.0688  0.0919
12867TIP3    H160092   3.324   0.771  16.031 -0.0068  0.1547  0.5174
12867TIP3    H260093   3.254   0.689  16.137 -0.9187  0.1154 -0.1135
12868TIP3   OH260094   2.110   6.531   0.418  0.1712 -0.2177 -0.4961
12868TIP3    H160095   2.036   6.531   0.358 -1.2529 -1.0995  1.1491
12868TIP3    H260096   2.071   6.547   0.504  1.8838 -0.7490  0.4346
12869TIP3   OH260097   0.064   2.100   5.249  0.0706  0.2682  0.6426
12869TIP3    H160098  -0.028   2.103   5.275  0.5045 -1.1866  2.5613
12869TIP3    H260099   0.102   2.180   5.283 -0.2442  0.3228  0.8661
12870TIP3   OH260100   6.701   5.437   2.236  0.8092  0.7850 -0.0961
12870TIP3    H160101   6.713   5.350   2.275 -1.4090  0.3180 -0.2739
12870TIP3    H260102   6.785   5.458   2.195  1.5463 -1.0461  0.3960
12871TIP3   OH260103   0.333   3.598   3.081 -0.3622 -0.2207  0.3455
12871TIP3    H160104   0.299   3.619   3.168  0.0213  0.3439  0.3611
12871TIP3    H260105   0.328   3.502   3.076  0.2087 -0.3059  1.2316
12872TIP3   OH260106   1.945   2.966  10.967  0.2135 -0.2120 -0.6359
12872TIP3    H160107   1.903   2.899  10.913  0.8183 -0.6000 -0.6391
12872TIP3    H260108   1.987   3.025  10.904  0.3825 -0.3047 -0.6107
12873TIP3   OH260109   6.533   0.802   5.570  0.8554 -0.0158 -0.1882
12873TIP3    H160110   6.609   0.744   5.577  1.8701  1.2111 -0.7110
12873TIP3    H260111   6.564   0.876   5.518 -0.9650  0.0908 -1.1826
12874TIP3   OH260112   6.142   5.437   4.019 -0.6898 -0.1378 -0.5070
12874TIP3    H160113   6.206   5.417   4.087  1.2303  2.6150 -1.3499
12874TIP3    H260114   6.147   5.361   3.960 -1.0406 -1.7029  1.3690
12875TIP3   OH260115   0.806   5.733  10.878  0.3248  0.6100  0.1259
12875TIP3    H160116   0.785   5.801  10.813  1.7173 -0.6297 -1.7155
12875TIP3    H260117   0.866   5.776  10.938 -1.3153  1.9075  0.9278
12876TIP3   OH260118   6.052   3.352   3.986  0.3987  0.0845  0.0083
12876TIP3    H160119   6.080   3.269   3.947  2.9975  1.7341 -1.9830
12876TIP3    H260120   5.960   3.361   3.961  0.4674 -1.5457 -0.9219
12877TIP3   OH260121   3.013   5.239  15.105  0.6960 -0.0644 -0.0002
12877TIP3    H160122   2.933   5.248  15.053  0.4677  0.6497  0.4622
12877TIP3    H260123   3.027   5.145  15.112 -0.8776 -0.2560  1.0740
12878TIP3   OH260124   0.037   2.844  11.365  0.2138  0.3319 -0.6517
12878TIP3    H160125   0.095   2.860  11.439  0.2102  2.0063 -0.9791
12878TIP3    H260126   0.018   2.750  11.369  0.6667  0.2916  1.1244
12879TIP3   OH260127   4.020   5.583   4.960 -0.1061 -0.1361  0.2417
12879TIP3    H160128   4.024   5.487   4.967  1.9188 -0.1054  0.2632
12879TIP3    H260129   3.964   5.610   5.033 -2.6311 -1.3735 -1.1097
12880TIP3   OH260130   6.560   1.185  15.739  0.5429  0.2163  0.8564
12880TIP3    H160131   6.486   1.232  15.700 -0.1793  0.0001  1.9005
12880TIP3    H260132   6.637   1.215  15.690 -0.3507 -0.4784 -1.0826
12881TIP3   OH260133   2.296   1.897  16.455  0.6935  0.3557  0.4145
12881TIP3    H160134   2.242   1.856  16.388 -0.4313  1.1834  0.7850
12881TIP3    H260135   2.338   1.823  16.500 -0.3366 -0.3299  0.2877
12882TIP3   OH260136   2.629   3.166  14.006  0.0574 -0.0964  0.0045
12882TIP3    H160137   2.574   3.118  14.068  1.5618 -4.7821 -1.8464
12882TIP3    H260138   2.598   3.138  13.920 -1.0788  5.1287 -1.6528
12883TIP3   OH260139   4.234   2.190   3.377  0.3292  0.2978 -0.1738
12883TIP3    H160140   4.184   2.109   3.388  0.0678  0.3371 -0.9924
12883TIP3    H260141   4.189   2.236   3.306  1.6082  0.2601 -1.0360
12884TIP3   OH260142   3.764   0.669   1.974 -0.2282 -0.1536 -0.2590
12884TIP3    H160143   3.706   0.594   1.967 -1.3489  0.7100 -0.5775
12884TIP3    H260144   3.811   0.671   1.891  0.2362 -0.8284 -0.0202
12885TIP3   OH260145   2.659   2.196   1.069 -0.2844  0.0717 -0.5148
12885TIP3    H160146   2.683   2.109   1.101 -0.0693  0.1649 -0.4222
12885TIP3    H260147   2.573   2.184   1.029 -0.7431  0.0257  0.4468
12886TIP3   OH260148   0.080   4.194  12.597  0.2709  0.5246  0.4670
12886TIP3    H160149  -0.012   4.168  12.595 -0.1238  1.6888  1.6086
12886TIP3    H260150   0.117   4.145  12.670  0.7071 -0.3287 -0.3067
12887TIP3   OH260151   6.102   2.423   1.475 -0.4094  0.0690  0.6678
12887TIP3    H160152   6.058   2.470   1.404  0.7420  2.1299  1.2297
12887TIP3    H260153   6.046   2.438   1.552 -0.8751 -0.8890  0.5283
12888TIP3   OH260154   2.475   5.087  14.008 -0.1068  0.4095 -0.0188
12888TIP3    H160155   2.568   5.061  14.008  0.0650  0.7656 -2.3111
12888TIP3    H260156   2.431   5.016  13.962 -0.3076  1.9708 -2.4394
12889TIP3   OH260157   0.187   2.345  16.510  0.5677  0.6486 -0.4660
12889TIP3    H160158   0.226   2.432  16.521 -0.9191  1.0852  2.3926
12889TIP3    H260159   0.105   2.361  16.463  0.6165  0.7159 -0.5270
12890TIP3   OH260160   4.782   2.135  11.732  0.1880  0.3456 -0.4740
12890TIP3    H160161   4.799   2.154  11.824  0.3069  1.2622 -0.6764
12890TIP3    H260162   4.801   2.217  11.687  0.1740 -0.1083 -1.3226
12891TIP3   OH260163   3.741   4.996  16.747  0.8807 -0.3874  0.7408
12891TIP3    H160164   3.702   4.937  16.811  0.2595 -0.3179  0.4300
12891TIP3    H260165   3.832   5.007  16.777  0.4575  0.0816  1.9258
12892TIP3   OH260166   6.028   5.735   4.473 -0.0111  0.4212 -0.0222
12892TIP3    H160167   6.080   5.782   4.538  0.8624 -0.0849 -0.3361
12892TIP3    H260168   6.037   5.643   4.498 -0.4410  0.2982 -0.3135
12893TIP3   OH260169   3.558   1.402  11.571  0.4754  0.5204 -0.3419
12893TIP3    H160170   3.488   1.391  11.507 -1.7415  2.3548  1.5959
12893TIP3    H260171   3.602   1.317  11.571 -3.4488 -1.7994  0.1805
12894TIP3   OH260172   3.148   0.714  13.888 -0.1399 -0.2778 -0.1685
12894TIP3    H160173   3.215   0.742  13.826 -0.7365  0.7917 -0.3481
12894TIP3    H260174   3.118   0.795  13.930 -1.0601 -0.7722  0.1699
12895TIP3   OH260175   5.238   0.131   1.737  0.3250  1.0085 -0.2214
12895TIP3    H160176   5.277   0.199   1.793  0.4800  0.8987 -0.1960
12895TIP3    H260177   5.289   0.052   1.756  0.1257  0.8773 -0.2308
12896TIP3   OH260178   3.378   1.278  15.690 -0.0703  0.1033  0.2428
12896TIP3    H160179   3.378   1.182  15.692  1.3360  0.0876  1.2005
12896TIP3    H260180   3.412   1.303  15.776  1.9827  1.4010 -0.8755
12897TIP3   OH260181   5.642   0.773  16.173  0.5024  0.2326 -0.3024
12897TIP3    H160182   5.569   0.789  16.113 -0.7615 -3.1607  0.0869
12897TIP3    H260183   5.603   0.781  16.260  1.1659  0.5800 -0.0322
12898TIP3   OH260184   1.965   4.432   0.234 -0.0580 -0.5083  0.1003
12898TIP3    H160185   2.032   4.409   0.170 -0.1274 -1.0374  0.2190
12898TIP3    H260186   1.972   4.528   0.242  0.8391 -0.5780  0.2863
12899TIP3   OH260187   1.077   0.178  12.469  0.2458  0.7343  0.1040
12899TIP3    H160188   1.000   0.143  12.425  1.0198  1.3122 -1.7912
12899TIP3    H260189   1.043   0.250  12.523 -0.6287  0.5263 -0.1618
12900TIP3   OH260190   3.238   0.547  14.095 -0.3301 -0.2032  0.3711
12900TIP3    H160191   3.330   0.536  14.072 -0.2806 -0.5602  0.7267
12900TIP3    H260192   3.211   0.626  14.049  0.5322  0.7001  1.3598
12901TIP3   OH260193   4.069   2.679  10.834 -0.2401 -1.3200 -0.4842
12901TIP3    H160194   4.096   2.738  10.905  0.1175  2.3552 -3.3859
12901TIP3    H260195   3.977   2.700  10.819  0.1503 -0.6696 -2.2001
12902TIP3   OH260196   6.651   3.613   4.796 -0.1829 -0.8451 -0.5695
12902TIP3    H160197   6.659   3.573   4.709  0.8125 -0.2165 -0.7800
12902TIP3    H260198   6.560   3.644   4.799 -0.3262 -1.1691 -1.2512
12903TIP3   OH260199   4.030   0.630   6.513  0.0702 -0.3303  0.4300
12903TIP3    H160200   3.937   0.651   6.503  0.3665  0.9234  0.1452
12903TIP3    H260201   4.048   0.648   6.606 -0.1038 -1.1552  0.6282
12904TIP3   OH260202   6.759   2.695  16.412  0.4860 -0.3087  0.1322
12904TIP3    H160203   6.746   2.601  16.407 -0.9299 -0.2788  2.0194
12904TIP3    H260204   6.827   2.707  16.479  1.7305  0.0064 -1.1288
12905TIP3   OH260205   4.084   0.773   1.023  0.2652  0.1151 -0.1462
12905TIP3    H160206   4.022   0.700   1.026  0.6324 -0.1729  2.0362
12905TIP3    H260207   4.095   0.798   1.114  1.1787  2.0562 -0.7454
12906TIP3   OH260208   5.106   3.414   2.737  0.5028  0.0232 -0.0421
12906TIP3    H160209   5.049   3.482   2.772  0.1788 -0.1645 -0.1929
12906TIP3    H260210   5.120   3.355   2.811 -0.1850 -0.3755 -0.2189
12907TIP3   OH260211   0.380   6.811  14.656 -0.1509 -0.1577  0.1421
12907TIP3    H160212   0.436   6.734  14.655 -0.3419 -0.4348  2.9964
12907TIP3    H260213   0.293   6.777  14.637  0.2421 -0.0263 -2.2231
12908TIP3   OH260214   2.168   1.874  14.700 -0.0307 -0.2004 -0.0969
12908TIP3    H160215   2.251   1.866  14.748  0.1775  1.8480 -0.0203
12908TIP3    H260216   2.115   1.934  14.753 -1.0316 -0.3898 -0.8541
12909TIP3   OH260217   0.982   6.443   6.392 -0.3215  0.1759  0.0598
12909TIP3    H160218   1.061   6.468   6.441 -0.3980  2.2318 -0.7410
12909TIP3    H260219   0.968   6.516   6.332 -1.8982 -0.9298 -0.9848
12910TIP3   OH260220   3.506   6.621   0.114  0.1876 -0.3831  0.0352
12910TIP3    H160221   3.550   6.538   0.095  0.4881 -0.1189 -0.4496
12910TIP3    H260222   3.481   6.655   0.028 -0.0169 -0.0160  0.2382
12911TIP3   OH260223   6.718   0.420   1.986  0.1230  0.3492  0.0056
12911TIP3    H160224   6.664   0.456   2.057 -0.8717 -0.5277 -0.2785
12911TIP3    H260225   6.808   0.426   2.019 -0.3993 -1.3656  2.0055
12912TIP3   OH260226   4.123   1.991   4.190  0.0313  0.3382 -0.0184
12912TIP3    H160227   4.200   2.040   4.161  0.7201 -0.0817  1.0240
12912TIP3    H260228   4.155   1.936   4.261 -1.0708 -0.4526 -0.1059
12913TIP3   OH260229   3.304   3.362  14.655  1.1011 -0.1474 -0.3586
12913TIP3    H160230   3.256   3.445  14.656  0.5694 -0.4531  0.6596
12913TIP3    H260231   3.256   3.308  14.592 -0.2558 -0.6340  1.0335
12914TIP3   OH260232   2.345   1.108  15.854  0.3720  0.0246 -0.2352
12914TIP3    H160233   2.355   1.025  15.901  0.5096  0.2427  0.1260
12914TIP3    H260234   2.342   1.175  15.922  0.9119  0.3784 -0.5453
12915TIP3   OH260235   4.171   3.206   1.712  0.4332 -0.1646 -0.0391
12915TIP3    H160236   4.096   3.265   1.721 -0.2561 -1.0312  0.0783
12915TIP3    H260237   4.143   3.141   1.648  0.1886 -1.7938  1.6160
12916TIP3   OH260238   4.234   6.257   1.886 -0.2137  0.6375  0.3830
12916TIP3    H160239   4.171   6.329   1.895 -0.9418  0.0255  0.2668
12916TIP3    H260240   4.222   6.225   1.797 -0.4341 -0.1248  0.6815
12917TIP3   OH260241   4.530   6.163   2.929  0.8162  0.1712 -0.0652
12917TIP3    H160242   4.613   6.121   2.907  0.8335 -0.0462  0.4007
12917TIP3    H260243   4.530   6.244   2.878  0.3047 -0.8746 -1.8186
12918TIP3   OH260244   4.350   0.316  11.394  0.4693  0.3358 -0.1287
12918TIP3    H160245   4.396   0.337  11.313  0.5765  0.1299 -0.1210
12918TIP3    H260246   4.379   0.228  11.417  0.3460  0.3443  0.0682
12919TIP3   OH260247   1.946   0.616   0.442 -0.1212  0.0043  0.3902
12919TIP3    H160248   1.852   0.633   0.447 -0.9426 -3.8346  1.0690
12919TIP3    H260249   1.966   0.621   0.349 -1.6881 -1.8909 -0.1102
12920TIP3   OH260250   3.932   4.901   0.623 -0.1643 -0.2067 -0.2812
12920TIP3    H160251   3.932   4.991   0.654 -3.3970 -0.4928  0.9704
12920TIP3    H260252   3.947   4.848   0.702 -1.3655 -0.7830 -0.4119
12921TIP3   OH260253   4.991   1.421  15.526 -0.6234  0.0121 -0.4317
12921TIP3    H160254   5.086   1.419  15.534 -0.5393  1.3661 -0.8452
12921TIP3    H260255   4.964   1.496  15.578 -1.5738 -0.8824  0.4220
12922TIP3   OH260256   4.134   1.600   0.165 -0.0268  0.2141 -0.0549
12922TIP3    H160257   4.056   1.585   0.111  0.4840  1.9424 -1.3580
12922TIP3    H260258   4.115   1.682   0.211  0.2018 -0.4317  1.2324
12923TIP3   OH260259   3.804   6.038   5.098 -0.4110  0.2117 -0.1725
12923TIP3    H160260   3.841   5.964   5.049  1.2017 -0.7204  2.2970
12923TIP3    H260261   3.724   6.004   5.137 -0.2574  0.1098  0.0546
12924TIP3   OH260262   3.504   0.902  14.104 -0.3568 -0.5878  0.1466
12924TIP3    H160263   3.527   0.855  14.023  0.2734 -0.8154  0.4470
12924TIP3    H260264   3.567   0.974  14.108 -0.6554 -0.3320  0.2192
12925TIP3   OH260265   5.636   2.909  16.306 -0.7411 -0.4158  0.1149
12925TIP3    H160266   5.591   2.834  16.344  0.6941 -1.1845  0.3720
12925TIP3    H260267   5.574   2.981  16.314 -2.2638 -1.6210 -0.4054
12926TIP3   OH260268   0.934   2.200   0.634  0.6535  0.2882  0.1093
12926TIP3    H160269   0.929   2.264   0.562 -1.3133 -0.6195 -0.6504
12926TIP3    H260270   0.858   2.220   0.688 -0.1446 -1.5106 -0.2743
12927TIP3   OH260271   4.663   6.098  10.497  0.6055 -0.5811 -0.1821
12927TIP3    H160272   4.587   6.152  10.474  2.1962  1.8353 -0.1482
12927TIP3    H260273   4.714   6.093  10.417  1.9499  0.5627  0.5642
12928TIP3   OH260274   4.669   2.912   3.701 -0.0280  0.6886  0.0965
12928TIP3    H160275   4.659   2.892   3.794 -1.5159 -0.1005 -0.1864
12928TIP3    H260276   4.709   2.833   3.664 -0.7539  0.4131 -0.1338
12929TIP3   OH260277   4.015   4.506  17.186  0.0421  0.0689  0.3373
12929TIP3    H160278   3.994   4.569  17.116  2.0136 -0.8561 -1.1804
12929TIP3    H260279   4.021   4.559  17.265 -2.5183  1.1250 -0.0733
12930TIP3   OH260280   0.242   3.253  13.510  0.4553 -0.1602 -0.4490
12930TIP3    H160281   0.259   3.189  13.441 -0.2036 -0.3015 -0.4820
12930TIP3    H260282   0.318   3.312  13.506  1.0829 -0.9431 -0.3940
12931TIP3   OH260283   5.664   0.973   1.313  0.1440  0.4755  1.0044
12931TIP3    H160284   5.704   0.901   1.264  0.0803 -0.5982  2.4613
12931TIP3    H260285   5.673   1.049   1.255  0.5824 -0.6038 -0.4064
12932TIP3   OH260286   1.199   2.236   6.315 -0.5444  0.6084 -0.6857
12932TIP3    H160287   1.228   2.310   6.368  1.0527 -0.6185  0.2641
12932TIP3    H260288   1.132   2.193   6.367  0.3029 -0.0126 -0.0817
12933TIP3   OH260289   1.638   5.211  14.275 -0.0608 -0.3885  0.9991
12933TIP3    H160290   1.606   5.252  14.194  0.1792  0.7230  1.4423
12933TIP3    H260291   1.665   5.285  14.329 -1.8698 -0.9895  2.8135
12934TIP3   OH260292   1.121   0.483  15.287 -0.8029  0.4522 -0.1640
12934TIP3    H160293   1.060   0.423  15.245 -0.5229 -1.0994  1.5493
12934TIP3    H260294   1.068   0.531  15.351 -0.1153 -1.7371  2.1745
12935TIP3   OH260295   1.392   0.937   5.491 -0.0783  0.2205 -0.1597
12935TIP3    H160296   1.447   0.867   5.454  0.4443  0.5253  0.0288
12935TIP3    H260297   1.447   0.977   5.558  1.0177  3.0410 -2.5096
12936TIP3   OH260298   5.978   6.842  16.521  0.0770 -0.4426 -0.1793
12936TIP3    H160299   6.058   6.830  16.572  0.3845  3.1088  0.4452
12936TIP3    H260300   6.009   6.877  16.437 -0.7233 -1.0920 -0.7574
12937TIP3   OH260301   1.442   4.432   3.089  0.3908  0.2335 -0.0564
12937TIP3    H160302   1.467   4.385   3.010  0.7204 -1.5832  1.0560
12937TIP3    H260303   1.349   4.409   3.102 -0.7191  3.2459 -1.6707
12938TIP3   OH260304   2.852   5.224   3.146 -0.2966 -0.2278  0.5894
12938TIP3    H160305   2.811   5.146   3.108 -0.8707 -0.5647  1.8648
12938TIP3    H260306   2.945   5.201   3.153  0.4112  0.8505 -3.1132
12939TIP3   OH260307   5.947   0.922   1.086 -0.0032 -0.4762 -0.7065
12939TIP3    H160308   5.925   1.003   1.040  3.2588 -0.5613 -2.7563
12939TIP3    H260309   5.931   0.853   1.021 -1.8582 -1.4628  0.7066
12940TIP3   OH260310   5.140   2.650  11.834 -0.1537  0.3747 -0.0200
12940TIP3    H160311   5.115   2.740  11.816 -1.3041  0.2541  0.7899
12940TIP3    H260312   5.127   2.640  11.929  1.6059 -0.1653  0.2064
12941TIP3   OH260313   6.505   4.254   5.795 -0.5056  0.1444 -0.2059
12941TIP3    H160314   6.512   4.161   5.819 -0.3094 -0.0986 -1.1529
12941TIP3    H260315   6.503   4.300   5.878  0.5000 -0.6392  0.2820
12942TIP3   OH260316   1.367   1.443  12.919 -0.4072  0.2265 -0.4021
12942TIP3    H160317   1.434   1.466  12.854  0.3006 -2.3419 -0.6953
12942TIP3    H260318   1.415   1.436  13.001 -1.2021  2.8555  0.4080
12943TIP3   OH260319   1.942   6.121   5.655  0.0886  0.0074  0.3997
12943TIP3    H160320   1.847   6.126   5.647 -0.1110 -0.8704  1.8376
12943TIP3    H260321   1.967   6.206   5.692 -0.3733 -0.3971  1.7050
12944TIP3   OH260322   4.468   3.516  17.011 -0.7914 -0.0359  0.8081
12944TIP3    H160323   4.420   3.507  16.929 -0.1172 -0.0630  0.4046
12944TIP3    H260324   4.473   3.610  17.027 -1.3093 -0.0500  1.0534
12945TIP3   OH260325   3.854   4.216   6.794  0.7515  0.0620  0.2613
12945TIP3    H160326   3.850   4.173   6.709 -0.2615 -0.1482  0.4006
12945TIP3    H260327   3.795   4.291   6.785  2.6133  1.5708 -0.0380
12946TIP3   OH260328   5.708   6.373  12.935 -0.5932 -0.0464 -0.0360
12946TIP3    H160329   5.749   6.325  13.007  0.1767 -1.3490 -1.2776
12946TIP3    H260330   5.760   6.349  12.858 -1.4483  1.2235 -1.0428
12947TIP3   OH260331   5.820   6.435   0.312  0.5308 -0.1028 -0.4878
12947TIP3    H160332   5.817   6.388   0.228  0.7980  0.7812 -0.9993
12947TIP3    H260333   5.798   6.368   0.377 -1.9036 -0.3173 -1.4267
12948TIP3   OH260334   4.554   4.696  10.579  0.2268 -0.5127 -0.2035
12948TIP3    H160335   4.580   4.667  10.492  1.0521  0.7191 -0.3961
12948TIP3    H260336   4.618   4.764  10.602 -0.6029 -0.0746  0.9156
12949TIP3   OH260337   5.519   1.925  15.385 -0.4526  0.0278  0.4954
12949TIP3    H160338   5.508   2.014  15.351 -0.0095  0.9317  2.5755
12949TIP3    H260339   5.607   1.899  15.355 -0.6210  0.2343 -0.2020
12950TIP3   OH260340   2.584   3.343  11.369 -0.3902 -0.0137  0.5337
12950TIP3    H160341   2.583   3.360  11.463  0.6022 -1.7668  0.8967
12950TIP3    H260342   2.676   3.336  11.346 -0.6233  0.3326 -0.5686
12951TIP3   OH260343   6.309   3.098   4.787  0.2068  0.1780 -0.3507
12951TIP3    H160344   6.346   3.187   4.791 -0.1460  0.3064  0.1756
12951TIP3    H260345   6.362   3.053   4.721  2.5468 -0.1984  1.6685
12952TIP3   OH260346   2.839   4.712  11.630 -0.6405 -0.3940  0.0268
12952TIP3    H160347   2.896   4.695  11.705  0.2584  2.9145  0.2458
12952TIP3    H260348   2.900   4.733  11.559 -1.4844  1.1800 -0.2807
12953TIP3   OH260349   3.257   4.847  12.447 -0.2705 -0.1876 -0.7032
12953TIP3    H160350   3.301   4.765  12.428 -0.5740 -0.2438 -1.1877
12953TIP3    H260351   3.171   4.821  12.481  0.4290 -0.0999  1.2538
12954TIP3   OH260352   1.302   1.778   1.308  0.1992 -0.6606 -0.0930
12954TIP3    H160353   1.274   1.769   1.217  0.5770 -1.6174 -0.1316
12954TIP3    H260354   1.342   1.693   1.329  0.6023 -0.2651  0.7953
12955TIP3   OH260355   0.170   2.545  15.853 -0.1314  0.5530 -0.5428
12955TIP3    H160356   0.135   2.525  15.940  1.3710  1.2803  0.2541
12955TIP3    H260357   0.220   2.467  15.829 -0.6183  0.3171 -0.8070
12956TIP3   OH260358   2.614   6.002  12.675  0.0775  0.2268  0.5142
12956TIP3    H160359   2.549   6.020  12.743 -0.6432  0.2042 -0.1478
12956TIP3    H260360   2.568   5.946  12.612  1.2494 -1.1598  0.8433
12957TIP3   OH260361   2.302   0.702   4.052  0.2945  0.0618  0.5252
12957TIP3    H160362   2.246   0.632   4.087 -0.7059  0.6257  0.0909
12957TIP3    H260363   2.286   0.700   3.957 -0.5386  1.5310  0.6084
12958TIP3   OH260364   6.809   6.230   2.502  0.1698 -0.5725  0.0302
12958TIP3    H160365   6.827   6.220   2.595 -0.6510  0.6071  0.3383
12958TIP3    H260366   6.889   6.269   2.466 -0.3089  1.1265  0.6910
12959TIP3   OH260367   5.089   3.493  14.057  0.4096 -0.0464  0.3039
12959TIP3    H160368   5.140   3.430  14.006 -0.9006 -3.3146  2.6498
12959TIP3    H260369   5.007   3.503  14.007 -1.0114 -3.4755  1.6231
12960TIP3   OH260370   6.102   1.986  11.224 -0.0273  0.4658 -0.1602
12960TIP3    H160371   6.121   1.963  11.133 -0.1658 -0.9795  0.1570
12960TIP3    H260372   6.082   2.079  11.221 -0.6258  0.3122 -1.7037
12961TIP3   OH260373   6.683   1.856  12.476  0.1404 -0.0293  0.3057
12961TIP3    H160374   6.591   1.858  12.447  0.6006 -0.2495 -1.2623
12961TIP3    H260375   6.701   1.946  12.503 -0.6183 -0.0535  0.9500
12962TIP3   OH260376   1.020   3.424  16.286 -0.2675  0.1090 -0.2413
12962TIP3    H160377   1.066   3.385  16.212  2.3232 -0.0451  1.3211
12962TIP3    H260378   0.949   3.475  16.247  0.6204 -0.4635 -2.7587
12963TIP3   OH260379   2.903   1.153   6.128  0.4225 -0.1057  0.4354
12963TIP3    H160380   2.858   1.148   6.212 -0.0760  1.5234  0.2944
12963TIP3    H260381   2.912   1.062   6.101 -3.0569 -0.5561  0.3581
12964TIP3   OH260382   6.458   1.202  16.149 -0.4582  0.6132  0.0420
12964TIP3    H160383   6.371   1.239  16.135 -0.0305  1.2735 -0.9390
12964TIP3    H260384   6.456   1.118  16.104 -0.1004  1.3322 -1.3684
12965TIP3   OH260385   4.726   5.732   2.050 -0.5976  0.2203 -0.8439
12965TIP3    H160386   4.729   5.739   2.145 -2.9937 -0.5562 -0.6358
12965TIP3    H260387   4.789   5.663   2.029 -1.4962 -1.0329  0.4043
12966TIP3   OH260388   4.572   0.516  13.322 -0.2725 -0.3034 -0.7889
12966TIP3    H160389   4.653   0.562  13.299 -0.6392  0.4238 -0.6552
12966TIP3    H260390   4.505   0.556  13.267 -1.1226  1.2962  1.2678
12967TIP3   OH260391   1.885   1.039  13.630 -0.0562  0.3921 -0.1941
12967TIP3    H160392   1.862   1.131  13.637 -0.3651  0.2284  1.3413
12967TIP3    H260393   1.801   0.993  13.630  0.1049  0.0910 -0.6606
12968TIP3   OH260394   0.284   6.018  13.574 -0.3380 -0.3603 -0.4364
12968TIP3    H160395   0.210   6.079  13.576 -0.8137 -0.7970 -2.2837
12968TIP3    H260396   0.265   5.955  13.643 -1.5837 -0.3247 -0.7131
12969TIP3   OH260397   0.224   4.518  14.795  0.0470 -1.0324  0.1657
12969TIP3    H160398   0.292   4.555  14.851 -0.6001 -2.1224  1.7516
12969TIP3    H260399   0.271   4.470  14.728  0.8418  0.2418 -0.2314
12970TIP3   OH260400   6.618   4.758   1.072  0.3412 -0.3323 -0.2368
12970TIP3    H160401   6.712   4.759   1.093  0.4844 -1.0804 -0.8122
12970TIP3    H260402   6.575   4.774   1.156  0.9921  0.8509 -0.0916
12971TIP3   OH260403   3.403   1.253  14.067  0.1664 -0.2372 -0.2786
12971TIP3    H160404   3.350   1.239  13.989 -1.8154 -0.0511  0.9447
12971TIP3    H260405   3.405   1.349  14.077 -2.2323 -0.2684  1.4800
12972TIP3   OH260406   0.444   4.292  12.748  0.5245 -0.0675 -0.0052
12972TIP3    H160407   0.447   4.292  12.652 -0.7646 -2.5764 -0.1252
12972TIP3    H260408   0.358   4.328  12.769  0.6816  0.1833  0.2153
12973TIP3   OH260409   5.891   1.065  14.326 -0.5739 -0.1376  0.5702
12973TIP3    H160410   5.830   1.102  14.390 -2.2069  0.7213 -1.3816
12973TIP3    H260411   5.877   0.970  14.331 -2.0313  0.0426  0.2294
12974TIP3   OH260412   3.727   3.648  16.355 -0.6286 -0.0896  0.2557
12974TIP3    H160413   3.669   3.587  16.401 -0.2631 -1.7213 -1.3803
12974TIP3    H260414   3.672   3.687  16.288 -0.3585 -0.0742  0.0419
12975TIP3   OH260415   2.076   6.018   3.419 -0.0266 -0.2402 -0.0502
12975TIP3    H160416   2.122   6.066   3.350 -1.3959  0.8963 -0.2137
12975TIP3    H260417   1.994   6.066   3.430 -1.5460 -2.6427 -0.3383
12976TIP3   OH260418   3.425   0.656  14.632  0.2830 -0.2254  0.0390
12976TIP3    H160419   3.384   0.617  14.554 -0.5602 -3.6323  1.9846
12976TIP3    H260420   3.354   0.704  14.675  0.2056 -0.1025 -0.2246
12977TIP3   OH260421   0.943   2.240  13.190  0.0187  0.1034 -0.3038
12977TIP3    H160422   0.891   2.179  13.242 -0.4240  1.4703  0.9250
12977TIP3    H260423   0.969   2.308  13.252  0.5766  1.1142 -1.6006
12978TIP3   OH260424   4.443   0.089   5.933  0.3676  0.3161  0.5405
12978TIP3    H160425   4.348   0.080   5.939  0.1422  1.5996 -0.7957
12978TIP3    H260426   4.471   0.109   6.022 -0.7057  0.6926  0.8027
12979TIP3   OH260427   6.126   2.275   6.116 -0.2053  0.4441 -0.5763
12979TIP3    H160428   6.166   2.269   6.203 -1.1984  0.9341 -0.0584
12979TIP3    H260429   6.064   2.202   6.114 -0.2865  0.5199 -0.8202
12980TIP3   OH260430   4.822   3.603  12.341 -0.1463  0.4512  0.1067
12980TIP3    H160431   4.900   3.651  12.369 -0.1352  0.5814 -0.1396
12980TIP3    H260432   4.829   3.600  12.246 -0.0276 -0.2540  0.1389
12981TIP3   OH260433   4.352   2.590   1.679  0.0473 -0.0061 -0.0501
12981TIP3    H160434   4.337   2.505   1.720 -1.4241  0.7041  0.9909
12981TIP3    H260435   4.381   2.646   1.750  2.4967  0.0476 -1.0168
12982TIP3   OH260436   6.550   3.587  11.395 -0.4512 -0.0584 -0.0840
12982TIP3    H160437   6.544   3.618  11.305 -0.6746  1.8413  0.5385
12982TIP3    H260438   6.618   3.519  11.392  1.1951  1.5156 -1.3159
12983TIP3   OH260439   6.793   2.765  13.770  0.0001 -0.6258  0.0266
12983TIP3    H160440   6.883   2.751  13.740 -0.0690  1.0882 -1.1363
12983TIP3    H260441   6.791   2.730  13.859  1.4139 -1.9887 -0.4431
12984TIP3   OH260442   0.714   6.843   4.605  0.2608  0.3040 -0.1209
12984TIP3    H160443   0.728   6.933   4.576 -0.7929  0.4087 -0.3762
12984TIP3    H260444   0.647   6.850   4.673 -2.6590 -0.5349 -2.6549
12985TIP3   OH260445   0.892   2.505  15.510  0.1954  0.4111 -0.0008
12985TIP3    H160446   0.928   2.476  15.427 -0.5015 -2.7529  0.6598
12985TIP3    H260447   0.943   2.458  15.576 -0.3657  1.5531  1.3056
12986TIP3   OH260448   5.690   2.644   5.453 -0.5970 -0.0205  0.1919
12986TIP3    H160449   5.761   2.683   5.505 -0.9932 -2.0261  2.4182
12986TIP3    H260450   5.618   2.634   5.515 -1.9860 -0.3296 -1.4017
12987TIP3   OH260451   0.340   1.890   5.983  0.8535 -0.2398  0.4398
12987TIP3    H160452   0.340   1.810   6.036  0.2968 -0.7772 -0.3465
12987TIP3    H260453   0.431   1.899   5.954  0.9614 -0.4788  0.6992
12988TIP3   OH260454   1.128   3.057  12.550 -0.1593  0.1648 -0.0380
12988TIP3    H160455   1.178   3.084  12.473  1.8839  1.0457  1.5116
12988TIP3    H260456   1.163   2.970  12.573 -2.6058 -1.3308 -1.5578
12989TIP3   OH260457   2.617   2.477   1.611  0.0111 -0.3005 -0.1445
12989TIP3    H160458   2.701   2.439   1.637 -0.9053 -0.4446  2.9945
12989TIP3    H260459   2.638   2.534   1.537  3.2450  1.1475  1.6803
12990TIP3   OH260460   4.176   4.789  11.851  0.9254  0.0444 -0.1094
12990TIP3    H160461   4.215   4.731  11.786 -2.2250 -1.1157 -1.1283
12990TIP3    H260462   4.217   4.874  11.835  4.0444 -1.3049 -0.0217
12991TIP3   OH260463   6.652   4.634  16.308  0.3499  0.0389  0.5874
12991TIP3    H160464   6.661   4.728  16.315  1.2480 -0.0868  1.2191
12991TIP3    H260465   6.706   4.599  16.378  1.8812 -1.0146 -1.0364
12992TIP3   OH260466   3.969   4.387  14.573 -0.5403 -0.0506 -0.2433
12992TIP3    H160467   3.898   4.322  14.564  0.1851 -0.8014 -0.6814
12992TIP3    H260468   3.992   4.409  14.482  0.3601 -0.4590 -0.1242
12993TIP3   OH260469   0.202   4.640   0.139 -0.2308  0.4065  0.0672
12993TIP3    H160470   0.158   4.562   0.106 -0.7961  0.3249  0.9879
12993TIP3    H260471   0.140   4.680   0.200 -0.0741  1.7564 -0.6210
12994TIP3   OH260472   3.773   0.090  13.748  0.0004 -0.1401 -0.3376
12994TIP3    H160473   3.754   0.167  13.802 -0.0799 -1.0274  0.9442
12994TIP3    H260474   3.742   0.016  13.800  0.8546 -1.1098 -1.1600
12995TIP3   OH260475   2.989   3.858  16.518  0.2375 -0.0081  0.2423
12995TIP3    H160476   3.016   3.843  16.428 -0.0089 -1.0586  0.3396
12995TIP3    H260477   2.975   3.953  16.523 -0.0920  0.0192 -0.9117
12996TIP3   OH260478   2.874   0.349   3.413 -0.0356  0.1686  0.0440
12996TIP3    H160479   2.799   0.305   3.453  0.3005 -0.9411 -0.4968
12996TIP3    H260480   2.950   0.317   3.462  0.2542 -0.2293 -0.6448
12997TIP3   OH260481   6.660   3.972  11.489  0.3365  0.1333 -0.4893
12997TIP3    H160482   6.664   3.915  11.412  1.3442  1.6035 -1.5891
12997TIP3    H260483   6.748   3.969  11.526 -0.0132 -0.1759  0.3263
12998TIP3   OH260484   0.996   1.092  11.496  0.0731 -0.1523 -0.2281
12998TIP3    H160485   1.042   1.082  11.579  0.5085 -1.9693 -0.6575
12998TIP3    H260486   1.034   1.171  11.457  0.8706 -0.0867  0.6451
12999TIP3   OH260487   4.111   3.713   3.864  0.1915 -0.0343  0.0584
12999TIP3    H160488   4.097   3.747   3.775  0.5341 -0.2126 -0.0646
12999TIP3    H260489   4.198   3.743   3.888  0.3258 -0.4687  0.1155
13000TIP3   OH260490   4.301   2.241   4.141 -0.0152 -0.1505  0.2520
13000TIP3    H160491   4.381   2.280   4.176 -0.8491 -0.0903  2.2676
13000TIP3    H260492   4.256   2.312   4.096  0.4496  0.1601  0.2751
13001TIP3   OH260493   5.759   3.973  15.340 -0.0698  0.0442 -0.0150
13001TIP3    H160494   5.811   3.893  15.333  1.4998  0.7723  2.0041
13001TIP3    H260495   5.688   3.962  15.277 -0.4584 -3.3165  0.8326
13002TIP3   OH260496   3.822   4.256  13.843  0.1225 -0.5264 -0.1969
13002TIP3    H160497   3.742   4.285  13.799  1.2651 -0.0350 -2.0658
13002TIP3    H260498   3.821   4.161  13.833 -1.1649 -0.7550  1.5639
13003TIP3   OH260499   1.101   4.926   0.994  0.1949 -0.2134 -0.5984
13003TIP3    H160500   1.088   5.012   0.952 -0.4212  0.1705  0.3515
13003TIP3    H260501   1.166   4.943   1.062  0.6876 -0.6924 -0.9393
13004TIP3   OH260502   3.315   2.217  16.382 -0.0758 -0.2016  0.6417
13004TIP3    H160503   3.392   2.220  16.325 -1.2800 -0.0907 -1.0891
13004TIP3    H260504   3.259   2.151  16.342 -0.1114 -1.6961  2.9701
13005TIP3   OH260505   5.091   3.793  14.797  0.1628  0.2937 -0.0021
13005TIP3    H160506   5.033   3.864  14.767  0.5621  0.6573  0.0661
13005TIP3    H260507   5.128   3.826  14.878 -2.4883 -1.5153  2.1141
13006TIP3   OH260508   1.988   3.492   1.358  0.5094 -0.3526  0.2343
13006TIP3    H160509   1.897   3.494   1.329  0.2879 -0.5167  0.9017
13006TIP3    H260510   1.985   3.453   1.445  0.9403  1.8324  1.2842
13007TIP3   OH260511   1.304   6.380   1.465  0.0554 -0.0804 -0.4318
13007TIP3    H160512   1.224   6.336   1.437 -0.9127  1.5941 -0.4395
13007TIP3    H260513   1.294   6.470   1.433  1.1818  0.5831  0.9849
13008TIP3   OH260514   0.039   6.284   2.134 -0.2507 -0.4626  0.2945
13008TIP3    H160515  -0.040   6.261   2.085 -1.2541 -0.3442  1.8148
13008TIP3    H260516   0.061   6.372   2.102 -0.3557 -0.7546 -0.6007
13009TIP3   OH260517   6.517   4.160   1.855 -0.3695 -0.1875  0.3000
13009TIP3    H160518   6.476   4.074   1.854  2.0912 -1.4394 -1.1644
13009TIP3    H260519   6.473   4.209   1.786  0.3531 -1.4239 -1.0811
13010TIP3   OH260520   5.763   5.848   4.518 -0.5901 -0.2818 -0.0483
13010TIP3    H160521   5.695   5.867   4.452 -1.2355  1.2030  1.0125
13010TIP3    H260522   5.838   5.820   4.466 -2.0551 -2.3457 -1.2672
13011TIP3   OH260523   3.569   5.412   0.958 -0.1771 -0.0044  0.2967
13011TIP3    H160524   3.611   5.463   1.028 -0.1542 -1.2125  1.1821
13011TIP3    H260525   3.635   5.347   0.934 -0.0027  0.6880 -1.2067
13012TIP3   OH260526   4.721   1.482  14.638  0.5833 -0.1224  0.4436
13012TIP3    H160527   4.740   1.545  14.568 -1.3717  0.4162  0.3477
13012TIP3    H260528   4.774   1.405  14.616  1.6911  0.8445 -0.3882
13013TIP3   OH260529   4.608   1.747   2.652 -0.4419 -0.1648  0.2981
13013TIP3    H160530   4.635   1.667   2.608 -2.1228 -0.3037 -0.5747
13013TIP3    H260531   4.521   1.728   2.686 -0.1802  0.7549  1.5705
13014TIP3   OH260532   6.780   1.465   5.623  0.4628  0.0524  0.5078
13014TIP3    H160533   6.766   1.469   5.528 -1.1514 -0.5718  0.6758
13014TIP3    H260534   6.857   1.519   5.638 -0.5466  2.0261 -0.9130
13015TIP3   OH260535   4.305   6.577  16.494 -0.6768  0.0984 -0.3973
13015TIP3    H160536   4.369   6.509  16.514  0.1191  0.3518 -1.9335
13015TIP3    H260537   4.221   6.539  16.519 -0.1144 -0.9485 -0.0438
13016TIP3   OH260538   3.755   5.793   4.317  0.3070 -0.2154  0.3382
13016TIP3    H160539   3.717   5.730   4.378 -2.1303 -0.1338 -1.0050
13016TIP3    H260540   3.848   5.768   4.312  0.1852 -1.3776  2.5828
13017TIP3   OH260541   3.378   3.672   1.325  0.1317 -0.3534 -0.1776
13017TIP3    H160542   3.338   3.634   1.247 -0.5628  2.5674 -1.3390
13017TIP3    H260543   3.318   3.650   1.396 -0.5743 -0.8176 -0.9113
13018TIP3   OH260544   4.796   4.446  14.415  0.1527  0.6930  0.5642
13018TIP3    H160545   4.861   4.379  14.438 -0.3279 -1.0460 -2.5242
13018TIP3    H260546   4.843   4.505  14.356 -0.9651 -0.7231 -1.9057
13019TIP3   OH260547   1.866   1.517   1.292  0.3022  0.0028  0.5120
13019TIP3    H160548   1.798   1.450   1.281 -0.0194 -0.1980  3.1727
13019TIP3    H260549   1.947   1.471   1.269 -0.3433  0.3451 -3.0504
13020TIP3   OH260550   5.805   2.996   0.188  0.2554  0.3627  0.2176
13020TIP3    H160551   5.830   3.059   0.255 -0.6488  1.5151 -0.5005
13020TIP3    H260552   5.721   2.961   0.218  0.8532 -0.6862  0.7195
13021TIP3   OH260553   6.602   2.265  13.177  0.2936  0.2985 -0.1702
13021TIP3    H160554   6.603   2.352  13.136 -1.6574 -0.5751 -2.3494
13021TIP3    H260555   6.519   2.227  13.148  1.1446 -2.3482  0.6112
13022TIP3   OH260556   4.738   2.039   6.537  0.3706  0.0480 -0.0167
13022TIP3    H160557   4.730   2.088   6.618  1.0737  0.8152 -0.3898
13022TIP3    H260558   4.741   1.948   6.564  1.1707  0.3234  0.8750
13023TIP3   OH260559   1.163   4.663  13.441  0.3844  0.2816  0.1092
13023TIP3    H160560   1.156   4.656  13.346  1.2152 -0.6310  0.1084
13023TIP3    H260561   1.173   4.573  13.471  1.5239  0.6746  0.9507
13024TIP3   OH260562   4.245   2.917   4.003  0.3315 -0.2587  0.1489
13024TIP3    H160563   4.319   2.895   4.059  1.4003  0.4572 -0.9125
13024TIP3    H260564   4.232   3.011   4.017  0.5118 -0.1040 -0.6478
13025TIP3   OH260565   2.246   5.270   2.449 -0.0108  0.1637  0.5092
13025TIP3    H160566   2.303   5.295   2.376 -0.7842 -0.5670 -0.3680
13025TIP3    H260567   2.301   5.216   2.506  0.4208  0.2004  0.1266
13026TIP3   OH260568   1.796   3.323  13.089  0.2752 -0.2087 -0.1335
13026TIP3    H160569   1.722   3.363  13.043  0.7260  0.5025 -0.2708
13026TIP3    H260570   1.871   3.339  13.031  0.8895  0.8781  0.9111
13027TIP3   OH260571   3.802   1.043  16.493  0.1621  1.0391 -0.5911
13027TIP3    H160572   3.886   1.060  16.451 -0.0124 -0.3071 -1.5253
13027TIP3    H260573   3.821   0.975  16.558 -0.2537  0.5004 -1.0268
13028TIP3   OH260574   6.803   1.990   3.491 -0.2796  0.4422 -0.1454
13028TIP3    H160575   6.877   2.049   3.508 -0.0222  0.5804 -1.6249
13028TIP3    H260576   6.838   1.903   3.507 -0.3591  0.6129  1.0330
13029TIP3   OH260577   3.136   3.208   2.538  0.1770  0.0740 -0.0573
13029TIP3    H160578   3.230   3.217   2.522  0.3729  2.2602  1.8231
13029TIP3    H260579   3.123   3.115   2.556  1.8704 -0.3327 -0.7602
13030TIP3   OH260580   0.856   3.970  16.429  0.4708  0.2227  0.4028
13030TIP3    H160581   0.919   3.911  16.470 -1.7818 -2.1024  0.8200
13030TIP3    H260582   0.849   3.938  16.339  0.2769  0.8110  0.2049
13031TIP3   OH260583   5.575   4.830  14.987  0.5164 -0.6635 -0.0673
13031TIP3    H160584   5.570   4.762  14.920 -1.5268 -2.9050  2.1313
13031TIP3    H260585   5.572   4.782  15.070 -1.9662  2.0709  1.6542
13032TIP3   OH260586   5.005   1.269   3.845  0.2516  0.7270  0.8426
13032TIP3    H160587   4.957   1.211   3.785 -0.0344  0.2371  1.5342
13032TIP3    H260588   5.060   1.322   3.787 -0.5897  0.8062  0.0862
13033TIP3   OH260589   1.694   1.240  15.366  0.1741 -0.2900 -0.5270
13033TIP3    H160590   1.711   1.270  15.276 -2.8979  2.3241 -0.4073
13033TIP3    H260591   1.624   1.175  15.356 -1.8502  1.6817 -0.0140
13034TIP3   OH260592   5.543   1.100  12.309 -0.5193  0.4302 -0.2744
13034TIP3    H160593   5.620   1.156  12.315 -0.5799  0.8432 -2.4005
13034TIP3    H260594   5.577   1.011  12.318  0.1169  0.6354 -0.6052
13035TIP3   OH260595   2.760   6.433   1.654  0.4314  0.1653  0.2520
13035TIP3    H160596   2.855   6.442   1.665  0.7166 -1.4767 -0.5284
13035TIP3    H260597   2.729   6.522   1.639  2.0934  0.5698 -1.1913
13036TIP3   OH260598   5.185   1.633   4.437  0.0331 -0.1821 -0.5297
13036TIP3    H160599   5.098   1.595   4.422  0.1989 -0.6689 -0.2631
13036TIP3    H260600   5.198   1.627   4.532 -0.4701  1.7077 -0.2915
13037TIP3   OH260601   0.107   3.566  13.874 -0.2969 -0.3852 -0.4885
13037TIP3    H160602   0.161   3.615  13.812 -2.5642  0.0860 -2.2101
13037TIP3    H260603   0.061   3.633  13.924 -0.9263 -0.7617 -0.5591
13038TIP3   OH260604   1.587   2.490  11.894 -0.3048 -0.0062  0.2932
13038TIP3    H160605   1.572   2.574  11.852 -0.6378  0.5549  1.5122
13038TIP3    H260606   1.670   2.459  11.857 -1.6165 -0.5532 -2.3819
13039TIP3   OH260607   6.812   4.759  16.031  0.3313  0.0197 -0.1942
13039TIP3    H160608   6.733   4.812  16.025  0.4318  0.2703  0.5561
13039TIP3    H260609   6.780   4.669  16.041  0.1626 -0.1626 -2.0151
13040TIP3   OH260610   0.127   4.020  13.515  0.1003 -0.1419 -0.2432
13040TIP3    H160611   0.109   3.931  13.547  0.0665  0.3408  1.1372
13040TIP3    H260612   0.166   4.065  13.590  0.1021  1.0193 -0.9212
13041TIP3   OH260613   0.636   1.060   0.686  0.1251 -0.5957 -0.1234
13041TIP3    H160614   0.719   1.059   0.733 -0.0647 -2.2350  0.2420
13041TIP3    H260615   0.580   0.999   0.734 -0.9543 -0.2895 -0.9436
13042TIP3   OH260616   0.979   3.249  13.923 -0.0882 -0.5066 -0.1167
13042TIP3    H160617   1.061   3.250  13.973 -0.4778 -0.0265  0.5343
13042TIP3    H260618   0.917   3.203  13.980 -1.0407  1.6381  0.7004
13043TIP3   OH260619   3.982   4.122   4.449  1.1617 -0.0795  0.4300
13043TIP3    H160620   3.969   4.063   4.375 -0.4078 -0.7894  1.2192
13043TIP3    H260621   4.071   4.103   4.480  1.4523 -0.4961 -0.6268
13044TIP3   OH260622   0.498   3.524   3.744  0.1170  0.2940  0.4089
13044TIP3    H160623   0.553   3.452   3.713 -0.1593  1.1607 -2.3091
13044TIP3    H260624   0.430   3.480   3.797  0.8094 -1.2670  0.0729
13045TIP3   OH260625   6.268   2.435   2.717 -0.3100  0.4924 -0.8890
13045TIP3    H160626   6.342   2.477   2.674  1.3956 -0.1574  1.2182
13045TIP3    H260627   6.299   2.347   2.738 -1.5239  0.3309  0.3920
13046TIP3   OH260628   5.212   1.424   5.474  0.3436  0.2860  0.0366
13046TIP3    H160629   5.133   1.477   5.476  0.4882  0.4924  0.5666
13046TIP3    H260630   5.269   1.466   5.410  0.1259  0.2849 -0.1572
13047TIP3   OH260631   4.062   1.893  15.235  0.5697  0.0596 -0.0319
13047TIP3    H160632   4.075   1.815  15.289  0.7678  0.3890  0.4010
13047TIP3    H260633   4.009   1.951  15.289 -0.3689 -0.1348 -0.7052
13048TIP3   OH260634   1.314   2.236   0.173  0.3983  0.7613  0.2421
13048TIP3    H160635   1.284   2.150   0.202  1.3098  1.1000  2.3784
13048TIP3    H260636   1.409   2.228   0.171  0.4262  1.1194 -1.6950
13049TIP3   OH260637   4.740   2.587   4.805  0.3940 -0.2228 -0.8043
13049TIP3    H160638   4.755   2.501   4.765  2.1582  0.3184 -1.4061
13049TIP3    H260639   4.749   2.571   4.899 -0.8947 -0.9716 -0.7900
13050TIP3   OH260640   6.771   5.333  16.601  0.4897 -0.2196 -0.3238
13050TIP3    H160641   6.814   5.380  16.673 -0.1008  1.1655 -0.8221
13050TIP3    H260642   6.758   5.400  16.534 -1.1950 -0.9037 -0.7302
13051TIP3   OH260643   2.921   4.207   5.552 -0.1332  0.4407 -0.2937
13051TIP3    H160644   2.859   4.261   5.602 -0.5341 -0.3233  0.0622
13051TIP3    H260645   2.890   4.117   5.566  0.1851  0.1563 -1.3286
13052TIP3   OH260646   4.584   3.444   1.581  0.4543 -0.2615 -0.1356
13052TIP3    H160647   4.528   3.407   1.650 -0.4979 -2.9090 -2.1616
13052TIP3    H260648   4.663   3.390   1.583  1.0267  0.5496 -0.2578
13053TIP3   OH260649   4.189   5.582   0.809 -0.0367  0.3334 -0.7509
13053TIP3    H160650   4.140   5.640   0.867  2.3496 -0.1576  1.9899
13053TIP3    H260651   4.222   5.641   0.740 -0.4729  1.5711  0.0566
13054TIP3   OH260652   2.892   3.166  14.692  0.2045 -0.4944  0.5308
13054TIP3    H160653   2.834   3.137  14.762  1.9261 -2.4019  1.2577
13054TIP3    H260654   2.935   3.086  14.662 -0.0150  0.3527 -2.3254
13055TIP3   OH260655   5.532   1.217   0.915 -0.0482  0.2243  0.2162
13055TIP3    H160656   5.597   1.277   0.953 -1.4279  1.5779  0.4995
13055TIP3    H260657   5.460   1.217   0.978 -0.9644 -0.0974 -0.8093
13056TIP3   OH260658   1.785   1.967   0.606 -0.5933  0.3764 -0.2696
13056TIP3    H160659   1.877   1.962   0.629 -0.2299 -0.4043 -1.7630
13056TIP3    H260660   1.770   1.891   0.550 -1.4381  1.9816 -2.3572
13057TIP3   OH260661   3.278   1.730  14.791 -0.1425 -0.9847 -0.5067
13057TIP3    H160662   3.328   1.649  14.779 -0.3320 -1.0101 -1.1908
13057TIP3    H260663   3.341   1.800  14.774  0.2894 -0.9490  1.1115
13058TIP3   OH260664   2.910   0.852   6.232  0.0133  0.1475 -1.2841
13058TIP3    H160665   2.884   0.853   6.324 -1.2374 -1.3042 -1.5827
13058TIP3    H260666   3.000   0.819   6.234 -0.3315 -0.8041 -0.6220
13059TIP3   OH260667   6.604   6.798   3.780 -0.5164  0.2005 -0.3158
13059TIP3    H160668   6.514   6.771   3.763 -0.7222  0.0392  0.9308
13059TIP3    H260669   6.637   6.732   3.841 -0.1333  1.2176  0.6056
13060TIP3   OH260670   1.985   6.543  17.134 -0.0594  0.1878  0.2418
13060TIP3    H160671   2.058   6.518  17.077 -0.0205  1.1012 -0.1309
13060TIP3    H260672   1.917   6.573  17.074 -0.7287 -0.5986  0.5938
13061TIP3   OH260673   3.663   3.576  14.736 -0.0547 -0.4002 -0.0197
13061TIP3    H160674   3.670   3.482  14.718 -3.3158 -0.7575 -0.0769
13061TIP3    H260675   3.577   3.586  14.777  0.1781  2.5863 -0.0395
13062TIP3   OH260676   4.669   6.274   4.953  0.1546 -0.1831 -0.1209
13062TIP3    H160677   4.700   6.184   4.958 -1.8892 -1.0350 -1.1921
13062TIP3    H260678   4.580   6.270   4.989  0.0226  1.4098 -0.2077
13063TIP3   OH260679   3.763   0.869  15.222 -0.1614 -0.1825 -0.5643
13063TIP3    H160680   3.719   0.825  15.150 -0.1046  1.4212 -1.6457
13063TIP3    H260681   3.853   0.881  15.192 -0.0843  0.3287 -0.1539
13064TIP3   OH260682   0.126   6.115   3.144  0.1926 -0.1586  0.0635
13064TIP3    H160683   0.140   6.179   3.075  2.7354 -0.9031 -0.2402
13064TIP3    H260684   0.101   6.035   3.097 -1.6639  0.2124  0.3429
13065TIP3   OH260685   3.285   4.053   1.405  0.5539  0.0570 -0.4802
13065TIP3    H160686   3.379   4.039   1.388  0.2490 -0.6404 -1.7328
13065TIP3    H260687   3.269   4.009   1.488  1.5308  1.0647  0.2796
13066TIP3   OH260688   0.067   2.755   4.287  0.9484  0.2380 -0.1651
13066TIP3    H160689   0.141   2.695   4.285 -0.7986 -2.1130 -2.2405
13066TIP3    H260690   0.105   2.841   4.301  3.6070 -1.2826  3.1421
13067TIP3   OH260691   0.390   1.486   5.073  0.2948  1.0716  0.5538
13067TIP3    H160692   0.329   1.413   5.066  1.8299 -0.3605  1.2626
13067TIP3    H260693   0.409   1.511   4.982 -0.0871  0.4356  0.2935
13068TIP3   OH260694   1.201   2.839   3.029  0.0172  0.5273 -0.0449
13068TIP3    H160695   1.290   2.816   3.058 -0.2125  1.7517  1.7785
13068TIP3    H260696   1.149   2.762   3.050  0.3816  0.3447  0.2019
13069TIP3   OH260697   4.257   4.754   4.915  0.5091  0.0181 -0.1102
13069TIP3    H160698   4.291   4.665   4.911  1.5718  0.3258  1.3858
13069TIP3    H260699   4.309   4.797   4.982 -0.9704  1.3503  0.2469
13070TIP3   OH260700   0.200   1.781   1.045  0.3930  0.6911 -0.3874
13070TIP3    H160701   0.216   1.829   0.963  1.9883  0.9619  0.0457
13070TIP3    H260702   0.168   1.696   1.017  1.9278  0.3907 -1.3653
13071TIP3   OH260703   2.414   0.112  17.014  0.0383 -0.2642 -0.1411
13071TIP3    H160704   2.502   0.076  17.027 -0.0757 -0.0309  1.5947
13071TIP3    H260705   2.404   0.120  16.919  1.9527 -0.1391 -0.3625
13072TIP3   OH260706   4.618   4.490  12.158 -0.0917  0.2406  0.0087
13072TIP3    H160707   4.686   4.530  12.104  0.1855 -2.7381 -2.0793
13072TIP3    H260708   4.565   4.440  12.096 -1.4052 -1.2083  2.1886
13073TIP3   OH260709   1.584   2.603   1.757  0.4897  0.3071  0.6288
13073TIP3    H160710   1.630   2.679   1.720  1.0636  0.2990  1.3156
13073TIP3    H260711   1.495   2.611   1.722  0.8132  0.7171 -0.1424
13074TIP3   OH260712   0.052   1.057   5.561 -0.1293 -0.2821 -0.1546
13074TIP3    H160713   0.113   1.003   5.611 -0.9869 -0.7464  0.4036
13074TIP3    H260714   0.081   1.147   5.577  1.0694 -0.5230 -0.7747
13075TIP3   OH260715   1.374   0.667  16.089 -0.4193  0.4895 -0.5249
13075TIP3    H160716   1.295   0.619  16.065 -0.6821 -0.8923  2.6526
13075TIP3    H260717   1.445   0.619  16.048 -1.0051 -0.0111 -0.9729
13076TIP3   OH260718   2.202   3.997   5.112 -0.3629 -0.0703  0.2646
13076TIP3    H160719   2.220   4.029   5.201 -0.5065 -1.3896  0.7963
13076TIP3    H260720   2.223   3.904   5.115 -0.5450 -0.1740 -1.0459
13077TIP3   OH260721   5.714   0.696   0.298 -0.1707  0.6489 -0.1989
13077TIP3    H160722   5.624   0.703   0.329  0.4206  1.2314  1.4368
13077TIP3    H260723   5.712   0.735   0.210 -1.7352 -0.4671 -0.7091
13078TIP3   OH260724   1.087   1.866   0.351  0.0032 -0.1160 -0.2815
13078TIP3    H160725   1.018   1.883   0.415  1.1558 -2.0744  1.5920
13078TIP3    H260726   1.151   1.936   0.366 -0.0322 -0.1976  0.2603
13079TIP3   OH260727   1.545   1.053  11.670 -0.4161 -0.1275 -0.2434
13079TIP3    H160728   1.551   1.016  11.758 -1.2447  1.6424  0.6115
13079TIP3    H260729   1.456   1.089  11.665  0.2941  1.6529 -1.0016
13080TIP3   OH260730   5.582   1.607   0.206 -0.0525 -0.6423 -0.2231
13080TIP3    H160731   5.598   1.680   0.147  1.0228 -0.5260  0.1953
13080TIP3    H260732   5.503   1.633   0.255 -0.7720 -0.6069 -1.3637
13081TIP3   OH260733   3.551   2.458   2.240  0.2988 -0.0469  0.1006
13081TIP3    H160734   3.568   2.364   2.248 -0.1888 -0.1008  0.5656
13081TIP3    H260735   3.613   2.489   2.174  1.0876 -0.5287  0.6051
13082TIP3   OH260736   2.215   3.431  13.100  0.0540 -0.6830 -0.2469
13082TIP3    H160737   2.230   3.489  13.175 -1.1987 -0.1190 -0.3975
13082TIP3    H260738   2.147   3.476  13.049  0.3243 -1.4404 -1.3042
13083TIP3   OH260739   6.746   2.686  14.672 -1.0206  0.6070 -0.0585
13083TIP3    H160740   6.730   2.728  14.756 -2.7174 -0.8413  0.4136
13083TIP3    H260741   6.833   2.717  14.645 -1.0965  2.2857  1.4681
13084TIP3   OH260742   0.014   2.208   3.171 -0.3421 -0.2968  0.2805
13084TIP3    H160743   0.005   2.274   3.102 -0.0520  1.3007  1.7056
13084TIP3    H260744   0.009   2.258   3.253  1.6549 -1.8196  1.4123
13085TIP3   OH260745   4.150   3.306   2.311 -0.5838  0.1239 -0.1049
13085TIP3    H160746   4.124   3.370   2.245 -1.4192  2.5172  2.3307
13085TIP3    H260747   4.076   3.246   2.317 -1.6601  1.4346  0.3739
13086TIP3   OH260748   0.954   4.811  14.900  0.0067  0.3976  0.1569
13086TIP3    H160749   0.898   4.752  14.951 -0.7080 -1.0045 -2.1084
13086TIP3    H260750   0.903   4.892  14.894 -0.9179 -0.1917 -0.1977
13087TIP3   OH260751   0.650   3.108  13.092  0.3203  0.3184  0.1494
13087TIP3    H160752   0.599   3.138  13.016  0.4458  0.3055  0.0597
13087TIP3    H260753   0.610   3.153  13.167  0.8957  1.1890 -0.0571
13088TIP3   OH260754   0.595   5.136   5.535  0.4264  0.0941  0.2792
13088TIP3    H160755   0.664   5.072   5.550  0.1965 -0.2029  0.0854
13088TIP3    H260756   0.526   5.111   5.597 -0.6849 -1.3611 -1.4443
13089TIP3   OH260757   4.436   5.519   1.528 -0.0554 -0.3275  0.4919
13089TIP3    H160758   4.366   5.583   1.515  0.5281  0.0682 -0.7997
13089TIP3    H260759   4.408   5.469   1.605 -0.6714  1.2725  1.3637
13090TIP3   OH260760   4.657   4.244  13.754 -0.3399  0.3691 -0.1556
13090TIP3    H160761   4.595   4.287  13.812  0.2433  0.1476  0.6497
13090TIP3    H260762   4.609   4.168  13.720  0.1563 -1.1275  2.2377
13091TIP3   OH260763   6.704   3.980  15.566 -0.1332 -0.6090  0.2418
13091TIP3    H160764   6.699   3.885  15.556 -2.5781 -0.3319 -2.3971
13091TIP3    H260765   6.615   4.006  15.589  0.3591  1.1193  0.3282
13092TIP3   OH260766   2.927   4.420  14.625  0.1528 -0.1473  0.2169
13092TIP3    H160767   3.021   4.401  14.620  0.0242 -0.5556 -0.8229
13092TIP3    H260768   2.903   4.446  14.536 -0.9567 -1.1914  0.1854
13093TIP3   OH260769   3.204   0.054  12.816  0.1898  0.1780  0.1621
13093TIP3    H160770   3.259   0.030  12.891  0.4715 -0.4128 -0.2292
13093TIP3    H260771   3.126   0.093  12.855  1.0499  1.4006  0.7193
13094TIP3   OH260772   0.251   5.561  12.298  0.5030  0.1730  0.2277
13094TIP3    H160773   0.199   5.483  12.315  0.2653  0.5284  1.2308
13094TIP3    H260774   0.322   5.531  12.242  1.0515 -1.0204  1.4885
13095TIP3   OH260775   1.180   2.903   4.835 -0.3939 -0.2945  0.2393
13095TIP3    H160776   1.107   2.875   4.889 -0.7158  0.7149  0.3596
13095TIP3    H260777   1.172   2.853   4.754 -2.2921  1.0808 -0.4849
13096TIP3   OH260778   2.689   1.265  15.012 -0.7642  0.9177  0.6351
13096TIP3    H160779   2.759   1.235  14.954 -1.6847 -0.1268  0.0301
13096TIP3    H260780   2.683   1.359  14.995  0.8287  1.1310  1.0883
13097TIP3   OH260781   4.107   2.045   3.761 -0.5883  0.3813 -0.1739
13097TIP3    H160782   4.141   2.114   3.704  0.1691  0.7795  0.7292
13097TIP3    H260783   4.168   1.972   3.748 -0.9264  0.1610 -0.5297
13098TIP3   OH260784   0.050   5.160   1.071 -0.1260  0.0001 -0.1949
13098TIP3    H160785   0.120   5.225   1.065  1.0655 -1.2245 -0.0528
13098TIP3    H260786   0.045   5.122   0.983 -1.6951  1.1062 -0.6377
13099TIP3   OH260787   1.997   2.538  14.656  0.2359  0.1690  0.2587
13099TIP3    H160788   2.005   2.629  14.683  0.8281 -0.2668  1.6375
13099TIP3    H260789   2.036   2.536  14.568 -1.3598  1.5396 -0.5413
13100TIP3   OH260790   1.800   0.626  17.070 -0.1992  0.9634  0.3803
13100TIP3    H160791   1.886   0.585  17.079 -1.2804 -1.6880 -0.2388
13100TIP3    H260792   1.745   0.581  17.135 -1.2516  2.1546  0.3498
13101TIP3   OH260793   6.190   0.198   1.193 -0.2559 -0.1284  0.1890
13101TIP3    H160794   6.185   0.121   1.138 -0.9939 -0.0297  0.1183
13101TIP3    H260795   6.282   0.226   1.186 -0.5405  0.4658 -1.7745
13102TIP3   OH260796   3.716   5.093  15.749  0.2151  0.0220 -0.1253
13102TIP3    H160797   3.631   5.125  15.778 -0.3374 -1.6377  0.1588
13102TIP3    H260798   3.772   5.171  15.752 -0.6342  0.6413  2.1773
13103TIP3   OH260799   2.945   2.715  17.042 -0.2419 -0.2572 -0.5297
13103TIP3    H160800   2.940   2.775  16.968  0.2889  0.0214 -0.3423
13103TIP3    H260801   3.029   2.671  17.032  0.9305  1.4288  1.1448
13104TIP3   OH260802   6.539   0.037  10.640  0.3495  0.1721  0.3177
13104TIP3    H160803   6.612   0.042  10.703  0.2983  0.2247  0.3732
13104TIP3    H260804   6.471   0.092  10.678  0.6537  0.9591 -0.2282
13105TIP3   OH260805   3.708   3.112  16.078 -0.3447  0.1107 -0.6254
13105TIP3    H160806   3.791   3.159  16.084  0.3005 -1.1581  0.8847
13105TIP3    H260807   3.660   3.138  16.156 -0.0748 -1.4965  0.1190
13106TIP3   OH260808   2.083   5.342  13.132 -0.1261 -0.6071 -0.5760
13106TIP3    H160809   2.177   5.327  13.133 -0.4152 -3.1057 -1.8415
13106TIP3    H260810   2.046   5.257  13.106 -2.8921 -0.5080  2.4320
13107TIP3   OH260811   4.569   0.669  12.715  0.0462  0.1275  0.6871
13107TIP3    H160812   4.573   0.752  12.668  0.4602 -0.2823 -0.0181
13107TIP3    H260813   4.624   0.683  12.792 -0.3687  0.6981  0.8814
13108TIP3   OH260814   5.954   0.822  10.531  0.2460  0.5815 -0.2060
13108TIP3    H160815   5.860   0.818  10.545  0.3169  0.0765  0.1676
13108TIP3    H260816   5.990   0.753  10.587  0.8787  1.0948  0.0467
13109TIP3   OH260817   3.606   5.277   1.324 -0.6654  0.4332 -0.0989
13109TIP3    H160818   3.602   5.181   1.329  0.6469  0.3850  0.6926
13109TIP3    H260819   3.589   5.306   1.414 -0.7678  0.9195 -0.2752
13110TIP3   OH260820   0.077   1.720  11.042 -0.3259  0.0635 -0.2362
13110TIP3    H160821   0.130   1.691  10.967  1.5232  0.5787  0.8315
13110TIP3    H260822   0.008   1.654  11.048  1.4181 -1.8953 -0.3868
13111TIP3   OH260823   0.758   1.330  14.587 -0.0374  0.2629  0.5140
13111TIP3    H160824   0.746   1.401  14.650  0.7640 -0.1274  1.1218
13111TIP3    H260825   0.712   1.255  14.625  0.2965  0.0752  0.5525
13112TIP3   OH260826   2.320   5.350  15.064  1.1782  0.0047 -0.1480
13112TIP3    H160827   2.267   5.429  15.060 -0.3008 -1.0087 -1.9001
13112TIP3    H260828   2.263   5.286  15.107  1.5040 -0.7130 -0.7738
13113TIP3   OH260829   0.557   3.519  14.910 -0.5253 -0.3415 -0.0392
13113TIP3    H160830   0.487   3.570  14.871  0.3931  0.8674 -0.1642
13113TIP3    H260831   0.523   3.429  14.912 -0.8345 -0.3911 -3.0931
13114TIP3   OH260832   3.949   2.403   4.726 -0.1375 -0.0244  0.4478
13114TIP3    H160833   3.932   2.491   4.760  1.8714  0.2530  0.8345
13114TIP3    H260834   3.862   2.363   4.720 -0.9870  1.5652  1.3911
13115TIP3   OH260835   1.953   1.410  11.670 -0.1875 -0.5547  0.3051
13115TIP3    H160836   2.001   1.491  11.690  0.4330 -1.1632  1.4082
13115TIP3    H260837   2.019   1.352  11.633 -0.6356 -0.5559 -0.5025
13116TIP3   OH260838   2.250   2.474  16.530  0.0600 -0.2754 -0.1651
13116TIP3    H160839   2.281   2.387  16.502  0.0064 -0.6048  0.7658
13116TIP3    H260840   2.327   2.515  16.569 -0.3904 -0.7066  1.2379
13117TIP3   OH260841   1.847   5.388  12.747 -0.6458  0.1002 -0.2588
13117TIP3    H160842   1.756   5.404  12.772 -0.4228  2.7820 -0.8985
13117TIP3    H260843   1.842   5.359  12.656 -0.8606  0.7708 -0.4695
13118TIP3   OH260844   6.825   4.080  11.928  0.3414 -0.3847  0.4803
13118TIP3    H160845   6.768   4.100  12.002  1.4417  2.0066  0.7552
13118TIP3    H260846   6.895   4.027  11.966  0.5371  0.2564  1.0357
13119TIP3   OH260847   1.687   0.479  12.677 -0.0021 -0.0518 -0.5300
13119TIP3    H160848   1.722   0.404  12.725 -1.5998 -1.0569 -0.8594
13119TIP3    H260849   1.630   0.440  12.610  0.4472  1.3976 -1.8165
13120TIP3   OH260850   3.896   1.312   4.365  0.1212  0.2328  0.0309
13120TIP3    H160851   3.973   1.257   4.353  0.4032  0.3875  1.0619
13120TIP3    H260852   3.847   1.269   4.435 -1.2212 -0.3757 -1.2028
13121TIP3   OH260853   6.508   2.584  13.603 -0.1228 -0.3870  0.1914
13121TIP3    H160854   6.586   2.564  13.656  0.7383 -1.0930 -1.2783
13121TIP3    H260855   6.517   2.677  13.582  0.0508 -0.3419  0.4521
13122TIP3   OH260856   1.375   4.086  16.778  0.1494  0.1407 -0.2212
13122TIP3    H160857   1.366   4.089  16.682  3.5488  2.2946 -0.6452
13122TIP3    H260858   1.369   3.993  16.800 -2.0775 -0.3001 -2.2843
13123TIP3   OH260859   2.347   4.205  11.349  0.1942 -0.1246 -0.3378
13123TIP3    H160860   2.384   4.179  11.433  0.7582 -1.7741 -1.0468
13123TIP3    H260861   2.390   4.288  11.328  0.6280 -0.0960  0.6198
13124TIP3   OH260862   5.858   3.227   5.308  0.3006 -0.4066  0.3739
13124TIP3    H160863   5.888   3.174   5.234  0.4637 -0.8180  0.7358
13124TIP3    H260864   5.868   3.171   5.384  1.9122  0.6500  0.9875
13125TIP3   OH260865   6.123   2.632   2.265 -0.3245  0.3908  0.1018
13125TIP3    H160866   6.121   2.562   2.200 -1.2199  2.7898 -2.7089
13125TIP3    H260867   6.033   2.665   2.267  0.0641  1.4566  1.3249
13126TIP3   OH260868   0.281   1.976  11.996 -0.1379  0.1169  0.4950
13126TIP3    H160869   0.213   1.926  11.952  0.4452 -0.0332 -0.2643
13126TIP3    H260870   0.265   2.067  11.971  0.4359 -0.0118 -0.3934
13127TIP3   OH260871   2.918   0.177   2.056 -0.0649  0.5433 -0.0660
13127TIP3    H160872   2.982   0.248   2.064  0.8363 -0.1695 -0.7656
13127TIP3    H260873   2.860   0.204   1.984  0.7303  0.2368 -0.8310
13128TIP3   OH260874   6.552   5.222  15.035 -0.2262  0.1180 -0.0908
13128TIP3    H160875   6.620   5.176  14.985 -1.4724 -0.4365 -1.3410
13128TIP3    H260876   6.526   5.295  14.978 -0.7682  0.2503  0.3265
13129TIP3   OH260877   0.784   2.556  14.007  0.1446 -0.5599 -0.1683
13129TIP3    H160878   0.789   2.468  14.044 -2.0389 -1.0787 -0.9155
13129TIP3    H260879   0.732   2.545  13.927  0.0423  1.3642 -0.4155
13130TIP3   OH260880   6.031   6.178  15.750 -0.1041 -0.2184 -0.3805
13130TIP3    H160881   6.034   6.156  15.844 -1.6841  1.3553  0.0676
13130TIP3    H260882   5.986   6.103  15.710 -1.3523  0.0552  0.4528
13131TIP3   OH260883   1.472   6.264   3.044 -0.1910  0.4334  0.1970
13131TIP3    H160884   1.499   6.347   3.082  2.4546 -1.2446  2.4260
13131TIP3    H260885   1.403   6.232   3.101 -1.3757  1.1359 -0.7973
13132TIP3   OH260886   4.960   1.474   6.286  0.2125 -0.3343  0.1029
13132TIP3    H160887   5.048   1.511   6.289  0.7065 -1.5308  0.9649
13132TIP3    H260888   4.903   1.547   6.312  0.8041  0.7617 -1.4802
13133TIP3   OH260889   4.030   5.050  10.999 -0.4287 -0.6718 -0.4394
13133TIP3    H160890   4.041   5.129  11.052  0.9467 -1.4119  0.4423
13133TIP3    H260891   4.033   5.081  10.909 -1.8726  0.5033 -0.1354
13134TIP3   OH260892   3.272   1.093   2.762  0.0571  0.1463 -0.5674
13134TIP3    H160893   3.187   1.133   2.743 -0.4810 -1.3926 -1.6171
13134TIP3    H260894   3.302   1.059   2.677  1.9070  0.9436 -0.2883
13135TIP3   OH260895   5.454   4.075   5.528  0.3538 -0.2548 -0.1890
13135TIP3    H160896   5.361   4.059   5.516  0.5225 -0.7169 -0.9684
13135TIP3    H260897   5.496   4.025   5.458  1.2405 -0.7503  0.6629
13136TIP3   OH260898   4.115   5.280  12.766 -0.0814 -0.4194 -0.1848
13136TIP3    H160899   4.093   5.193  12.798  2.2708 -1.8403 -2.0925
13136TIP3    H260900   4.058   5.293  12.690 -1.4307  0.3815  0.9189
13137TIP3   OH260901   2.437   6.447   4.149  0.0712 -0.1911  0.3494
13137TIP3    H160902   2.496   6.521   4.167 -0.5022 -0.1681  2.3560
13137TIP3    H260903   2.473   6.407   4.070  1.4186  1.1964  0.2046
13138TIP3   OH260904   2.040   1.331  12.438 -0.2784  0.2818  0.1453
13138TIP3    H160905   2.077   1.252  12.400  0.5301  0.7209 -0.0067
13138TIP3    H260906   2.111   1.368  12.490 -0.4052  1.2830 -0.3619
13139TIP3   OH260907   3.076   2.870  13.115  0.1584 -0.1938  0.1137
13139TIP3    H160908   3.001   2.823  13.079 -1.9497  1.5686  1.8861
13139TIP3    H260909   3.129   2.892  13.038 -1.5255 -0.8502 -1.3227
13140TIP3   OH260910   6.208   1.335  16.028 -0.6987  0.6484  0.0987
13140TIP3    H160911   6.230   1.423  16.058  0.2049  1.1652 -1.8959
13140TIP3    H260912   6.229   1.336  15.935  0.0903 -1.9363  0.1848
13141TIP3   OH260913   5.753   1.130   5.863  0.6650 -0.4919  0.6786
13141TIP3    H160914   5.836   1.103   5.904  0.4203  0.7127  2.0366
13141TIP3    H260915   5.777   1.155   5.774  2.0129  0.9917  1.4051
13142TIP3   OH260916   1.034   1.881  12.896 -1.0136  0.3851  0.3484
13142TIP3    H160917   0.958   1.892  12.839 -0.3852 -0.2864 -0.6651
13142TIP3    H260918   1.109   1.885  12.836 -0.3589 -0.7669  1.0469
13143TIP3   OH260919   3.116   0.045  12.194 -0.4147 -1.0640  0.0567
13143TIP3    H160920   3.137   0.129  12.236  1.8484 -1.0957 -0.8638
13143TIP3    H260921   3.035   0.062  12.146 -0.9476  0.0683  1.2999
13144TIP3   OH260922   0.045   0.702  13.844  0.9020  0.2571  0.2613
13144TIP3    H160923  -0.025   0.694  13.779  0.6170 -0.9727  0.6984
13144TIP3    H260924   0.029   0.787  13.885  1.0581  1.0286 -1.2243
13145TIP3   OH260925   2.357   0.854   5.038  0.2804  0.3455 -0.1217
13145TIP3    H160926   2.401   0.929   5.078 -0.8994  0.5731  0.8045
13145TIP3    H260927   2.268   0.884   5.022  0.4390 -0.0839 -2.0428
13146TIP3   OH260928   2.878   1.524  12.075  0.2635 -0.1821 -0.1712
13146TIP3    H160929   2.925   1.588  12.021 -1.0890  0.5660 -0.5151
13146TIP3    H260930   2.790   1.521  12.037 -1.8812  2.8509  3.8214
13147TIP3   OH260931   0.464   4.037   4.349  0.4148 -0.5870 -0.1357
13147TIP3    H160932   0.534   4.008   4.406  0.8491 -0.3264 -0.5273
13147TIP3    H260933   0.452   3.965   4.287 -1.9303 -2.0923  1.8880
13148TIP3   OH260934   3.525   6.784   1.211  0.0417 -0.4974 -0.3266
13148TIP3    H160935   3.592   6.832   1.163 -0.5118 -0.7623 -1.3836
13148TIP3    H260936   3.575   6.724   1.267  0.7236  1.0181  0.7491
13149TIP3   OH260937   3.896   3.480   5.581  0.1863 -0.6567 -0.0486
13149TIP3    H160938   3.972   3.511   5.630  0.4207 -2.2641  0.6476
13149TIP3    H260939   3.849   3.423   5.642 -0.6047 -1.1078 -1.0531
13150TIP3   OH260940   4.686   2.669   1.164  0.0690 -0.5054 -0.2114
13150TIP3    H160941   4.628   2.744   1.154  0.2305 -0.6702 -3.4033
13150TIP3    H260942   4.649   2.618   1.237 -1.4554  1.3656  0.3808
13151TIP3   OH260943   1.690   5.584  11.840 -0.6565  0.6000 -0.3339
13151TIP3    H160944   1.715   5.588  11.748  1.0418 -0.3806  0.0256
13151TIP3    H260945   1.751   5.643  11.884 -1.1396  0.6992  0.2093
13152TIP3   OH260946   1.909   0.532  13.612  0.1637 -0.4673  0.1832
13152TIP3    H160947   1.851   0.596  13.570 -1.0926 -2.7111 -1.7470
13152TIP3    H260948   1.992   0.541  13.565  0.3452  0.4767  0.6737
13153TIP3   OH260949   4.047   0.055   1.239  0.1089  0.0580  0.0723
13153TIP3    H160950   4.099   0.043   1.160  1.4114  0.2667  0.8668
13153TIP3    H260951   3.969   0.103   1.209 -0.4704 -1.7210 -1.4165
13154TIP3   OH260952   2.052   6.104  11.461 -0.8220 -0.4984  0.0012
13154TIP3    H160953   2.102   6.040  11.512 -1.4645  0.3132  1.7194
13154TIP3    H260954   2.102   6.112  11.379  0.4604 -1.5706  0.6203
13155TIP3   OH260955   3.272   0.642  14.405 -0.2640  0.2042 -0.0002
13155TIP3    H160956   3.339   0.659  14.338 -1.1270  2.0927 -0.4220
13155TIP3    H260957   3.216   0.719  14.404 -0.5675  0.1238  2.6251
13156TIP3   OH260958   6.200   0.625  12.514  0.2898 -0.3347 -0.0126
13156TIP3    H160959   6.162   0.698  12.466 -0.4495 -0.6431  0.0956
13156TIP3    H260960   6.291   0.652  12.531 -0.0697  0.7144  0.3468
13157TIP3   OH260961   4.951   0.340   0.849 -0.1624  0.1343  0.2126
13157TIP3    H160962   5.002   0.309   0.775  0.4423  0.4557  0.4835
13157TIP3    H260963   4.992   0.424   0.873  0.0301 -0.2437  1.2695
13158TIP3   OH260964   4.480   6.370   3.170  0.4514 -0.5110  0.2990
13158TIP3    H160965   4.523   6.455   3.166  2.8316 -1.6880 -0.8170
13158TIP3    H260966   4.453   6.353   3.080  0.1031 -0.9998  0.4929
13159TIP3   OH260967   6.521   4.165   4.598 -0.3819 -0.9605  0.1917
13159TIP3    H160968   6.450   4.114   4.561 -2.6632  2.7148 -0.9800
13159TIP3    H260969   6.582   4.179   4.526 -0.9710 -0.1210 -0.1582
13160TIP3   OH260970   3.049   5.925  11.310  0.0293  0.3702  0.6465
13160TIP3    H160971   3.061   5.851  11.250  1.4691  1.5638 -0.6255
13160TIP3    H260972   3.049   6.002  11.254 -0.3272  1.4236  2.0334
13161TIP3   OH260973   0.789   6.015  15.246  0.4305  0.1156  0.0728
13161TIP3    H160974   0.704   6.057  15.234 -0.6002 -1.8822 -0.0585
13161TIP3    H260975   0.805   5.970  15.163  2.5171  1.9059 -0.5751
13162TIP3   OH260976   5.067   5.754  13.292 -0.0709 -0.4728  0.0264
13162TIP3    H160977   4.986   5.741  13.243 -0.2274 -0.4111  0.2667
13162TIP3    H260978   5.083   5.848  13.289  0.9263 -0.6434 -1.4937
13163TIP3   OH260979   5.185   1.412   3.677  0.2610 -0.2667 -0.4866
13163TIP3    H160980   5.194   1.368   3.592 -0.9544  0.1690 -0.8498
13163TIP3    H260981   5.272   1.403   3.717  0.7850 -0.6852 -1.6646
13164TIP3   OH260982   3.053   3.926  15.578 -0.1892 -0.1089 -0.4764
13164TIP3    H160983   2.991   3.963  15.515  0.8449  1.3557 -0.6916
13164TIP3    H260984   3.093   3.852  15.533 -0.9424 -0.3612 -0.7542
13165TIP3   OH260985   1.344   6.821   0.076 -0.1151  0.0998  0.2154
13165TIP3    H160986   1.283   6.827   0.002 -1.1258  0.6333  1.0608
13165TIP3    H260987   1.359   6.912   0.102 -1.6537 -0.1416  2.1379
13166TIP3   OH260988   6.782   3.828   2.980  0.1372  0.3089 -0.4478
13166TIP3    H160989   6.874   3.836   2.954 -0.2896  1.1901 -1.7792
13166TIP3    H260990   6.738   3.793   2.903 -0.9716  1.9123 -0.5878
13167TIP3   OH260991   5.002   0.860   4.712  0.7225 -0.6412 -0.6707
13167TIP3    H160992   5.030   0.897   4.629 -0.2520  0.0698 -0.7037
13167TIP3    H260993   5.053   0.780   4.722  2.8888  0.6752 -0.6109
13168TIP3   OH260994   1.268   1.355   2.148 -0.2507  0.7163  0.2456
13168TIP3    H160995   1.236   1.437   2.110  0.0648  0.6033 -0.2801
13168TIP3    H260996   1.232   1.354   2.237 -3.3063 -0.2938 -0.8578
13169TIP3   OH260997   4.024   4.550  12.013 -0.0787  0.1695 -0.0235
13169TIP3    H160998   3.946   4.545  11.958  0.4895  0.5154 -0.8780
13169TIP3    H260999   4.093   4.582  11.954  0.9363 -1.0215  0.4739
13170TIP3   OH261000   4.532   0.221  13.303  0.5007 -0.0084 -0.2037
13170TIP3    H161001   4.527   0.248  13.211 -0.1462 -1.9493 -0.7747
13170TIP3    H261002   4.562   0.300  13.349 -0.3698  1.3761 -1.8852
13171TIP3   OH261003   5.154   4.264  12.612 -0.1611  0.1353 -0.1394
13171TIP3    H161004   5.199   4.336  12.567 -0.0623 -1.1402 -2.1965
13171TIP3    H261005   5.180   4.186  12.563 -0.1705 -1.3517  2.0954
13172TIP3   OH261006   1.667   3.644  14.459  0.4175  0.5584  0.3159
13172TIP3    H161007   1.740   3.641  14.520  0.9377  3.0564 -0.0858
13172TIP3    H261008   1.602   3.701  14.501  0.3980  1.5587 -0.9965
13173TIP3   OH261009   6.791   4.642   4.806  0.3256  0.4885  0.5960
13173TIP3    H161010   6.729   4.599   4.747 -0.5031  2.5915 -0.1737
13173TIP3    H261011   6.746   4.646   4.890 -0.2388  1.1695  0.2757
13174TIP3   OH261012   2.549   5.540  16.033  0.0120 -0.1471 -0.4995
13174TIP3    H161013   2.601   5.515  15.957 -1.3048  2.0265 -2.2226
13174TIP3    H261014   2.611   5.542  16.105  2.1052  1.1964 -2.2397
13175TIP3   OH261015   1.231   2.324   3.478 -0.4407 -0.4324 -0.6908
13175TIP3    H161016   1.172   2.252   3.455 -0.2753 -0.0317 -2.4634
13175TIP3    H261017   1.208   2.394   3.418  0.0723  0.6630  0.3612
13176TIP3   OH261018   4.024   6.460   6.130 -0.4362 -0.6202  0.3646
13176TIP3    H161019   4.003   6.432   6.219 -0.6713 -0.5868  0.3216
13176TIP3    H261020   4.003   6.384   6.075 -0.7100 -0.4918  0.2901
13177TIP3   OH261021   5.351   1.743  11.159  0.3713  0.1704 -0.3287
13177TIP3    H161022   5.323   1.700  11.240  2.0778 -2.5587 -1.0331
13177TIP3    H261023   5.272   1.786  11.126 -1.3517 -1.8595  0.8714
13178TIP3   OH261024   3.898   3.784   1.746  0.1359  0.0691 -0.5839
13178TIP3    H161025   3.813   3.742   1.731  1.3708 -2.7648 -0.2142
13178TIP3    H261026   3.881   3.877   1.729 -3.0038 -0.3711 -0.5581
13179TIP3   OH261027   5.739   3.783  12.874  0.2122  0.2712 -0.0888
13179TIP3    H161028   5.695   3.740  12.801  0.2191  0.1110  0.0027
13179TIP3    H261029   5.735   3.876  12.852  1.0337  0.1639 -0.7509
13180TIP3   OH261030   5.758   2.373  15.651  0.3118  0.2902  0.7536
13180TIP3    H161031   5.776   2.333  15.566 -0.5796  1.9265 -0.2702
13180TIP3    H261032   5.778   2.305  15.714 -0.9736 -1.7177 -0.8589
13181TIP3   OH261033   1.044   6.386  15.169 -0.6529  0.2291  0.0875
13181TIP3    H161034   1.110   6.427  15.225 -0.6673  1.0275 -0.4628
13181TIP3    H261035   1.069   6.294  15.165 -0.7985  0.1064  1.6115
13182TIP3   OH261036   1.064   1.515  15.343  0.3271 -0.5959 -0.7049
13182TIP3    H161037   0.998   1.581  15.364  0.0607 -0.7491 -1.0462
13182TIP3    H261038   1.137   1.564  15.307  0.4023 -0.4248 -0.3276
13183TIP3   OH261039   2.628   0.759   1.015  0.3830 -0.2092 -0.1221
13183TIP3    H161040   2.572   0.835   1.033  0.9667  0.2304 -0.1686
13183TIP3    H261041   2.716   0.795   1.008  0.7395 -0.9637  0.3938
13184TIP3   OH261042   3.106   3.099  16.533 -0.1914 -0.4527 -0.1197
13184TIP3    H161043   3.079   3.017  16.494 -0.8864 -0.3126  0.0478
13184TIP3    H261044   3.168   3.137  16.471 -1.2598 -0.2392 -1.0907
13185TIP3   OH261045   2.155   3.561   3.897  0.3661  0.1898  0.1138
13185TIP3    H161046   2.061   3.575   3.888  0.5240  0.9274 -0.4053
13185TIP3    H261047   2.195   3.615   3.830  1.3335  2.4334  2.3290
13186TIP3   OH261048   1.896   2.376   5.422  0.4417  0.3806 -0.3977
13186TIP3    H161049   1.950   2.303   5.452 -1.5278  0.1279  3.0704
13186TIP3    H261050   1.806   2.345   5.431 -0.4979  3.1695  1.3865
13187TIP3   OH261051   6.534   3.641   1.173 -0.1608  0.7279  0.0811
13187TIP3    H161052   6.593   3.709   1.142  0.4299  0.2891  0.2355
13187TIP3    H261053   6.578   3.604   1.250  1.0240 -1.8920 -1.7309
13188TIP3   OH261054   5.548   5.323   0.358  0.5595  0.6124  0.1640
13188TIP3    H161055   5.548   5.295   0.267  1.0388  1.5924 -0.1509
13188TIP3    H261056   5.634   5.300   0.392  0.2369 -0.1332  0.5043
13189TIP3   OH261057   5.833   2.125  10.850 -0.4202 -0.2116 -0.1211
13189TIP3    H161058   5.849   2.069  10.774  2.7951 -0.6347  0.7239
13189TIP3    H261059   5.778   2.196  10.816  0.1815 -0.8431 -2.6076
13190TIP3   OH261060   3.735   4.181   3.431  0.5387  0.0458 -0.4801
13190TIP3    H161061   3.728   4.186   3.336  0.9949 -1.3695 -0.6100
13190TIP3    H261062   3.815   4.231   3.452  0.3915  0.4295 -0.8191
13191TIP3   OH261063   1.848   1.580  14.090  0.0722  0.3355  0.2654
13191TIP3    H161064   1.943   1.568  14.101  0.2710  1.5816  0.0348
13191TIP3    H261065   1.837   1.674  14.080 -1.1899  0.1882  0.1498
13192TIP3   OH261066   4.515   5.310   5.938 -0.3264  0.2004  0.0952
13192TIP3    H161067   4.523   5.404   5.918 -0.2497 -0.3406 -2.8303
13192TIP3    H261068   4.606   5.280   5.946 -0.3637  0.5063  1.9440
13193TIP3   OH261069   5.654   1.942  11.709  0.1360  0.3278  0.0605
13193TIP3    H161070   5.748   1.955  11.696  0.0487  0.0279 -1.0133
13193TIP3    H261071   5.628   1.884  11.637 -0.8197  0.1908  0.5023
13194TIP3   OH261072   1.842   4.568  17.015 -1.3111 -0.5672  0.6827
13194TIP3    H161073   1.841   4.615  16.931  0.9927 -0.2109  0.7892
13194TIP3    H261074   1.789   4.490  16.999 -3.3407  0.8774 -0.1888
13195TIP3   OH261075   4.317   6.164   4.417  0.0082 -0.7235 -0.2876
13195TIP3    H161076   4.412   6.176   4.412  0.4396 -2.2852  2.4325
13195TIP3    H261077   4.303   6.074   4.385 -0.5001 -0.6560 -0.2546
13196TIP3   OH261078   1.176   3.092   5.519  0.5610 -0.1910 -0.3904
13196TIP3    H161079   1.147   3.183   5.518 -0.5916 -0.4957  1.1242
13196TIP3    H261080   1.172   3.066   5.611 -0.6949 -2.2099 -0.9369
13197TIP3   OH261081   5.221   6.637  11.357 -0.1110 -0.2324 -0.6968
13197TIP3    H161082   5.266   6.706  11.406 -2.4478  0.8092  0.1220
13197TIP3    H261083   5.273   6.558  11.374  1.1251  0.8030  0.5567
13198TIP3   OH261084   0.667   6.591   4.847  0.1815  0.4137  0.7313
13198TIP3    H161085   0.600   6.533   4.882 -0.1658 -0.9944 -1.9911
13198TIP3    H261086   0.624   6.677   4.843 -0.9951 -0.1681  0.3365
13199TIP3   OH261087   5.598   0.707   0.901  0.1873  0.2104 -0.0038
13199TIP3    H161088   5.507   0.677   0.904  0.7971 -2.0049 -1.4607
13199TIP3    H261089   5.596   0.786   0.848 -0.8564 -0.0362 -0.3556
13200TIP3   OH261090   6.367   0.902  14.210  0.4755 -0.0217  0.3460
13200TIP3    H161091   6.380   0.882  14.117  3.5266  1.4518  0.3096
13200TIP3    H261092   6.448   0.947  14.236 -0.8032  0.7747  3.4154
13201TIP3   OH261093   6.427   4.025   2.895 -0.5143 -0.7137 -1.3579
13201TIP3    H161094   6.484   4.004   2.820  2.5307  0.1272  0.5490
13201TIP3    H261095   6.462   4.107   2.929 -1.2402 -1.4918  1.4689
13202TIP3   OH261096   2.870   1.103  11.354 -0.2690  0.2810  0.3498
13202TIP3    H161097   2.831   1.048  11.422  1.8235 -0.2074  1.2405
13202TIP3    H261098   2.935   1.047  11.312  0.1581  1.3189 -0.4137
13203TIP3   OH261099   5.630   2.824   3.375 -0.2814  0.5093  0.0941
13203TIP3    H161100   5.698   2.863   3.320  0.0862 -0.8336 -0.4426
13203TIP3    H261101   5.675   2.803   3.457 -0.2277  0.3384  0.0231
13204TIP3   OH261102   0.248   1.911   3.241 -0.3122 -0.6328 -0.3431
13204TIP3    H161103   0.156   1.888   3.236 -0.2238 -1.1969  0.4511
13204TIP3    H261104   0.262   1.936   3.332  0.2240 -0.1146 -0.5568
13205TIP3   OH261105   4.421   3.744   6.193  0.0949 -0.0637 -0.1302
13205TIP3    H161106   4.380   3.711   6.272  0.0898  0.7312  0.2092
13205TIP3    H261107   4.422   3.839   6.205  0.4821  0.0322 -0.8922
13206TIP3   OH261108   4.913   4.617   4.819 -0.5806 -0.4963 -0.4746
13206TIP3    H161109   4.856   4.658   4.884  1.1304 -1.6584  1.8641
13206TIP3    H261110   5.001   4.624   4.854  0.5679 -0.4585 -3.0835
13207TIP3   OH261111   3.591   4.907   3.021  0.0524  0.3179  0.3049
13207TIP3    H161112   3.617   4.921   3.112  0.9616  0.2546  0.0646
13207TIP3    H261113   3.530   4.834   3.024  2.1239 -1.4977  0.6044
13208TIP3   OH261114   2.849   6.240  12.929 -0.1657  0.9045 -0.2081
13208TIP3    H161115   2.935   6.276  12.951 -0.7441  1.8607  0.5626
13208TIP3    H261116   2.830   6.179  13.001  0.4819 -0.4470 -1.1264
13209TIP3   OH261117   0.375   5.088   2.102 -0.7828  0.1486  0.0574
13209TIP3    H161118   0.407   5.058   2.186  0.1217 -1.9535 -0.9774
13209TIP3    H261119   0.454   5.104   2.050 -1.3360  0.7536 -0.6388
13210TIP3   OH261120   0.686   1.770   1.613 -0.4651  0.4990 -0.5710
13210TIP3    H161121   0.734   1.740   1.536  0.5931  1.2987 -0.2394
13210TIP3    H261122   0.599   1.792   1.579 -0.4092 -0.3589 -1.2948
13211TIP3   OH261123   6.410   6.139  14.031  0.3020 -0.3070  0.2819
13211TIP3    H161124   6.420   6.218  13.978  1.7240 -0.2203  0.6386
13211TIP3    H261125   6.324   6.149  14.072  0.2553  0.8308 -0.0458
13212TIP3   OH261126   2.375   4.613  11.771  0.1644 -0.6041  0.0820
13212TIP3    H161127   2.387   4.531  11.723  0.5690 -0.5774  0.1344
13212TIP3    H261128   2.414   4.598  11.857  1.1806 -0.0286 -0.2580
13213TIP3   OH261129   4.180   4.161  11.490 -0.3661  0.0000 -0.2439
13213TIP3    H161130   4.269   4.130  11.501  0.0562  1.5399  0.9737
13213TIP3    H261131   4.187   4.235  11.429 -0.3449  1.9210  1.9762
13214TIP3   OH261132   5.652   1.098   6.552  0.4228  0.0969  0.6583
13214TIP3    H161133   5.665   1.191   6.531 -1.0655  0.3870  0.8898
13214TIP3    H261134   5.729   1.054   6.516  0.8371  1.3435 -0.0336
13215TIP3   OH261135   2.722   2.150   5.445  0.2784 -0.2624  0.7748
13215TIP3    H161136   2.769   2.117   5.368 -0.0687 -0.7715  0.7812
13215TIP3    H261137   2.640   2.100   5.447 -0.6265  1.1191  0.3258
13216TIP3   OH261138   3.119   0.669   4.105 -0.1081 -0.1445 -0.3136
13216TIP3    H161139   3.085   0.719   4.030  0.9082 -0.0728 -0.7351
13216TIP3    H261140   3.202   0.711   4.127 -0.6391  0.1652  1.2055
13217TIP3   OH261141   3.294   1.785  14.021  0.5115  0.1513  0.1117
13217TIP3    H161142   3.366   1.846  14.038  0.8447 -0.2411  0.1187
13217TIP3    H261143   3.256   1.816  13.938  0.4492  0.5798  0.2964
13218TIP3   OH261144   4.211   2.116  14.698 -0.4474 -0.1949  0.0289
13218TIP3    H161145   4.153   2.089  14.627 -1.4589  2.9063 -0.4503
13218TIP3    H261146   4.298   2.120  14.658 -0.7264 -0.0914 -0.5803
13219TIP3   OH261147   0.076   3.549  15.631 -0.1724 -0.2533 -0.3888
13219TIP3    H161148   0.044   3.472  15.676 -0.9403  0.1628 -0.2072
13219TIP3    H261149   0.029   3.550  15.547  1.7815 -1.4378 -1.5800
13220TIP3   OH261150   6.506   0.979  16.474  0.4154 -0.0406  0.0323
13220TIP3    H161151   6.424   1.011  16.436  0.9074  0.5564 -0.5409
13220TIP3    H261152   6.561   1.057  16.484  1.3270 -0.5790 -0.6331
13221TIP3   OH261153   1.435   1.626   2.746  0.3836  0.1689 -0.2100
13221TIP3    H161154   1.500   1.658   2.684 -0.2650  3.2755  0.5322
13221TIP3    H261155   1.473   1.642   2.832 -0.6543  0.5073  0.2110
13222TIP3   OH261156   3.903   1.479  11.528  0.2725  0.0390  0.7008
13222TIP3    H161157   3.886   1.453  11.619  1.4878 -0.4186  0.8152
13222TIP3    H261158   3.971   1.546  11.535  0.3132  0.0637  0.1335
13223TIP3   OH261159   4.172   6.447   6.502  0.1069  0.1245 -0.2391
13223TIP3    H161160   4.103   6.508   6.529 -0.7449 -1.4308  1.3045
13223TIP3    H261161   4.135   6.403   6.425  0.9591  1.8635 -1.7213
13224TIP3   OH261162   6.390   0.719   2.523 -0.0935 -0.3560 -0.3056
13224TIP3    H161163   6.439   0.640   2.498  0.0462  0.1680 -1.7864
13224TIP3    H261164   6.434   0.790   2.476  1.2252  1.0355  2.7620
13225TIP3   OH261165   1.470   0.756   4.085  0.0030 -0.5614  0.1707
13225TIP3    H161166   1.409   0.745   4.012 -1.2069 -1.2013  1.2372
13225TIP3    H261167   1.414   0.765   4.162  1.1569 -3.7826  1.5766
13226TIP3   OH261168   0.426   5.641  13.582 -0.4050 -0.1490  0.6292
13226TIP3    H161169   0.359   5.675  13.642 -0.7081  0.2928  0.0506
13226TIP3    H261170   0.464   5.719  13.542  1.1309 -0.3238  1.6360
13227TIP3   OH261171   1.313   6.346  11.682 -0.3536 -0.0224  0.1427
13227TIP3    H161172   1.316   6.278  11.615 -0.0975  0.7517 -0.6524
13227TIP3    H261173   1.221   6.353  11.707 -0.1771 -1.7932  1.4431
13228TIP3   OH261174   2.020   3.318   6.458 -0.3077  0.1441 -0.1286
13228TIP3    H161175   2.013   3.384   6.528 -1.7358  1.8256 -1.7457
13228TIP3    H261176   1.965   3.246   6.488  0.0674  0.3003  1.0047
13229TIP3   OH261177   4.228   3.911  11.188 -0.1169  0.3606  0.3045
13229TIP3    H161178   4.198   3.827  11.155  0.6573  0.1840  0.0433
13229TIP3    H261179   4.231   3.967  11.110 -0.6326  0.6388  0.4777
13230TIP3   OH261180   4.660   5.909  10.693  0.5394 -0.1558 -0.1601
13230TIP3    H161181   4.669   5.967  10.617  0.6239  1.5216  1.0601
13230TIP3    H261182   4.579   5.862  10.678  0.7103 -0.0750 -1.4315
13231TIP3   OH261183   6.012   3.221  16.894  0.3402  0.4413 -0.3142
13231TIP3    H161184   5.951   3.202  16.966  0.6865 -0.1076 -0.1578
13231TIP3    H261185   5.991   3.156  16.827  0.7101  0.2805 -0.2804
13232TIP3   OH261186   0.931   3.295   2.546  0.1114  0.5683  0.3202
13232TIP3    H161187   0.950   3.297   2.640 -1.3170 -1.0357  0.6759
13232TIP3    H261188   1.013   3.265   2.506 -0.1849 -1.7882  1.3760
13233TIP3   OH261189   4.144   2.694  11.601  0.4463 -0.1717 -0.3094
13233TIP3    H161190   4.171   2.647  11.680 -0.8609  0.3891  0.5143
13233TIP3    H261191   4.083   2.635  11.558 -0.1983  0.2253  0.0446
13234TIP3   OH261192   5.357   6.819  13.565  0.0442  0.7905  0.4111
13234TIP3    H161193   5.431   6.766  13.595  0.3576  0.2207 -1.2505
13234TIP3    H261194   5.309   6.841  13.644  0.3445 -1.3392  1.2318
13235TIP3   OH261195   0.042   2.753   0.999 -0.0184 -0.0468  0.9451
13235TIP3    H161196   0.076   2.670   1.032  1.4308 -0.5818 -1.5646
13235TIP3    H261197  -0.015   2.727   0.925  1.3537  1.1493 -0.6099
13236TIP3   OH261198   2.775   0.955  14.664 -0.3929 -0.0332 -0.3771
13236TIP3    H161199   2.742   1.044  14.676 -0.5726 -0.0494 -0.7447
13236TIP3    H261200   2.801   0.951  14.572  2.2570  0.5105  0.2804
13237TIP3   OH261201   1.090   2.804   3.705  0.0885 -0.1296 -0.0388
13237TIP3    H161202   1.173   2.837   3.671  0.2519 -0.3177  0.1712
13237TIP3    H261203   1.065   2.736   3.643 -1.6217  2.1365 -2.0371
13238TIP3   OH261204   5.613   3.970   0.130 -0.0254  0.7633  0.0809
13238TIP3    H161205   5.540   3.912   0.153  0.4018  0.5710  1.0084
13238TIP3    H261206   5.660   3.983   0.213 -0.2292  2.6086 -0.0349
13239TIP3   OH261207   6.566   4.665   5.351 -0.4720 -0.0914  0.1950
13239TIP3    H161208   6.569   4.572   5.329 -1.1095  0.1255 -0.8689
13239TIP3    H261209   6.608   4.709   5.277 -0.2837  0.4772  0.6343
13240TIP3   OH261210   3.787   0.356   5.276 -0.4386  0.0867  0.6137
13240TIP3    H161211   3.758   0.411   5.203  1.4572  1.6481  0.9653
13240TIP3    H261212   3.875   0.328   5.252  0.1994  0.5765  2.2414
13241TIP3   OH261213   4.356   0.896   0.574  0.2757  0.0478 -0.4189
13241TIP3    H161214   4.449   0.882   0.595 -0.1162 -0.9946  0.7290
13241TIP3    H261215   4.320   0.808   0.565 -0.3803  0.4519 -2.0087
13242TIP3   OH261216   1.907   1.286  16.594 -0.8125  0.4172 -0.3470
13242TIP3    H161217   1.954   1.366  16.571  0.7185 -0.2254  0.3979
13242TIP3    H261218   1.976   1.221  16.607 -2.0612 -1.2384 -1.6902
13243TIP3   OH261219   1.358   5.465   4.759 -0.2787 -0.1926 -0.1880
13243TIP3    H161220   1.304   5.499   4.830  2.3109 -0.0880  1.9056
13243TIP3    H261221   1.305   5.477   4.680 -2.7712  0.9229  1.5316
13244TIP3   OH261222   0.588   4.907  10.724  0.2799 -0.1925  0.0160
13244TIP3    H161223   0.517   4.949  10.676 -0.3678  0.4102  1.4554
13244TIP3    H261224   0.664   4.963  10.708 -0.4140  1.1815  1.3394
13245TIP3   OH261225   6.406   2.080  17.001  0.2205  0.3930 -0.6005
13245TIP3    H161226   6.459   2.159  17.011  1.3795 -0.0120 -2.9306
13245TIP3    H261227   6.465   2.015  16.961 -1.2086 -1.0367 -0.4975
13246TIP3   OH261228   5.091   4.861   5.958  0.0235 -0.0961 -0.3948
13246TIP3    H161229   5.082   4.819   6.044  1.0921 -1.3091 -0.8409
13246TIP3    H261230   5.143   4.940   5.975  1.7946 -1.2634 -0.1483
13247TIP3   OH261231   4.870   4.766   2.958  0.4677 -0.2238 -0.8057
13247TIP3    H161232   4.954   4.808   2.975  0.0651  0.1113  0.5608
13247TIP3    H261233   4.851   4.784   2.866  0.5284  2.2506 -0.4045
13248TIP3   OH261234   4.796   3.288   5.981  0.6537  0.2919  0.4067
13248TIP3    H161235   4.821   3.199   5.958 -3.4483 -1.3773  1.4251
13248TIP3    H261236   4.806   3.292   6.076  0.7802  0.9347  0.3733
13249TIP3   OH261237   4.856   5.102   0.542  0.0729 -0.2255  0.2242
13249TIP3    H161238   4.856   5.092   0.447 -0.4313  1.7854 -0.0507
13249TIP3    H261239   4.791   5.039   0.573 -2.6251  1.6575 -1.1903
13250TIP3   OH261240   6.405   4.104  15.601  0.2673 -0.5704  0.5972
13250TIP3    H161241   6.416   4.069  15.689  1.2381  0.5257  0.9334
13250TIP3    H261242   6.469   4.175  15.595  1.1922 -1.4964 -1.4606
13251TIP3   OH261243   5.663   1.855   3.921 -0.9041  0.3441  0.0097
13251TIP3    H161244   5.701   1.769   3.906 -1.1837  0.0630  0.8997
13251TIP3    H261245   5.675   1.901   3.837 -2.2114 -1.0978 -1.0087
13252TIP3   OH261246   3.842   5.282  16.047  0.1709  1.1023  1.1211
13252TIP3    H161247   3.837   5.317  16.136 -0.4490  1.5462  0.9185
13252TIP3    H261248   3.780   5.335  15.997  1.3019  1.5563  0.1794
13253TIP3   OH261249   6.134   4.625  15.080 -0.6310  0.3124  0.5950
13253TIP3    H161250   6.150   4.550  15.023 -0.0624  0.1638  0.9428
13253TIP3    H261251   6.173   4.699  15.034 -1.1736  0.3968  0.2616
13254TIP3   OH261252   0.432   4.562   3.176  0.5761  0.7237 -0.2161
13254TIP3    H161253   0.397   4.567   3.265  0.1092  2.9003 -0.4639
13254TIP3    H261254   0.422   4.651   3.141  0.7497 -0.0681 -2.4521
13255TIP3   OH261255   3.192   1.949   3.633  0.0663  0.0272  0.3950
13255TIP3    H161256   3.236   1.920   3.552 -1.2431 -1.1620  0.0802
13255TIP3    H261257   3.102   1.965   3.606  0.2944  2.7070  0.9769
13256TIP3   OH261258   2.486   6.045  15.500  0.5829  0.4865  0.2290
13256TIP3    H161259   2.419   6.111  15.515 -0.2502  0.0575 -1.4072
13256TIP3    H261260   2.510   6.055  15.408  0.7407 -1.1961  0.0501
13257TIP3   OH261261   1.094   2.039  14.013 -0.6346  0.6000  0.1739
13257TIP3    H161262   1.157   1.971  13.990 -0.1986  0.6109  1.2851
13257TIP3    H261263   1.101   2.104  13.942  0.3942  0.4632  0.1418
13258TIP3   OH261264   5.421   4.168   4.869  0.5927  0.0569  0.2213
13258TIP3    H161265   5.351   4.103   4.874 -0.4351  0.9887 -1.2388
13258TIP3    H261266   5.379   4.246   4.834  2.0960  1.0888  0.5989
13259TIP3   OH261267   0.180   6.841  16.913 -0.2228  0.0292 -0.1404
13259TIP3    H161268   0.175   6.936  16.929  1.8671  0.2233 -0.3390
13259TIP3    H261269   0.267   6.828  16.877 -0.5579 -1.9733 -0.3282
13260TIP3   OH261270   6.034   6.014   6.302  0.2473 -0.0285  0.4556
13260TIP3    H161271   5.989   6.078   6.357  0.2375 -0.4259  0.9227
13260TIP3    H261272   6.026   6.048   6.213 -3.2535 -1.3566  0.1274
13261TIP3   OH261273   4.268   1.734  13.035  0.2747 -0.0581 -0.3783
13261TIP3    H161274   4.291   1.827  13.028  0.0417  0.0357  0.0280
13261TIP3    H261275   4.318   1.704  13.111  0.8980 -0.4431 -0.9321
13262TIP3   OH261276   5.612   4.140   5.790  0.4731  0.2718 -0.2183
13262TIP3    H161277   5.572   4.102   5.712 -1.6575  1.4165  0.2552
13262TIP3    H261278   5.588   4.081   5.861  2.6622 -0.9330 -0.3880
13263TIP3   OH261279   0.855   6.835   5.477  0.2906 -0.2604  0.3321
13263TIP3    H161280   0.932   6.786   5.505  0.3144  0.6842  2.0276
13263TIP3    H261281   0.875   6.926   5.497 -0.4665  0.2567 -1.1126
13264TIP3   OH261282   3.507   4.046   1.140  0.4427  0.1545  0.1433
13264TIP3    H161283   3.438   4.106   1.168 -0.4576 -0.6036 -0.4022
13264TIP3    H261284   3.588   4.086   1.172 -0.0962  1.8267 -0.4830
13265TIP3   OH261285   6.451   1.368  13.682  0.8681 -0.4246 -0.4552
13265TIP3    H161286   6.442   1.305  13.611 -2.3329 -0.2957 -0.2911
13265TIP3    H261287   6.404   1.329  13.756  1.1850  0.9474  0.5260
13266TIP3   OH261288   2.387   2.919  12.702  0.3506  0.5483  0.4217
13266TIP3    H161289   2.439   2.995  12.729  0.3985  0.0844  1.6815
13266TIP3    H261290   2.440   2.843  12.725  0.3878  0.1103 -1.0104
13267TIP3   OH261291   5.799   1.459   0.268 -0.2572  0.1469 -0.3009
13267TIP3    H161292   5.860   1.497   0.205  0.3916  0.2228  0.3477
13267TIP3    H261293   5.727   1.522   0.273  0.7512  1.2890  0.6786
13268TIP3   OH261294   3.680   4.704   4.885  0.1737 -0.2415  0.1078
13268TIP3    H161295   3.643   4.792   4.884 -1.6221 -0.9414 -0.8438
13268TIP3    H261296   3.775   4.717   4.889 -0.0665  1.6535  4.2534
13269TIP3   OH261297   6.530   0.068   1.413  0.1768 -0.4387  0.3367
13269TIP3    H161298   6.469   0.027   1.475 -0.1688  0.1092  0.3596
13269TIP3    H261299   6.576  -0.006   1.373 -1.4270 -0.9623 -0.6405
13270TIP3   OH261300   4.423   4.066  11.279  0.0654 -0.2379  0.6901
13270TIP3    H161301   4.351   4.007  11.255  0.4610 -0.0168 -1.2085
13270TIP3    H261302   4.472   4.018  11.346 -0.6144 -1.3274  0.4327
13271TIP3   OH261303   1.702   1.560   4.230 -0.5559 -0.0875 -0.1079
13271TIP3    H161304   1.742   1.473   4.222  0.7110  0.4653 -0.0141
13271TIP3    H261305   1.712   1.583   4.322 -1.9836 -0.3189  0.1379
13272TIP3   OH261306   3.548   5.529  15.159  0.0764 -0.2872  0.2428
13272TIP3    H161307   3.493   5.607  15.147 -0.8351 -1.2079 -2.3675
13272TIP3    H261308   3.630   5.563  15.195 -0.8135  1.6528  0.6120
13273TIP3   OH261309   4.570   2.587   6.222 -0.7268  0.5483  0.7644
13273TIP3    H161310   4.523   2.653   6.171 -2.5760 -1.0295  0.3358
13273TIP3    H261311   4.530   2.590   6.309 -0.5496  0.2686  0.8591
13274TIP3   OH261312   6.352   5.411  10.954  0.8883  0.2242  0.4635
13274TIP3    H161313   6.288   5.416  10.883  1.2642 -0.5467  0.0509
13274TIP3    H261314   6.392   5.498  10.956  1.4403  0.0208 -0.8237
13275TIP3   OH261315   2.201   2.744   3.253  0.3578  0.5203  0.4233
13275TIP3    H161316   2.203   2.648   3.260 -0.2480  0.4602 -0.1075
13275TIP3    H261317   2.172   2.773   3.340  2.2458  0.3388  1.1653
13276TIP3   OH261318   3.431   1.515   3.165  0.2691 -0.2553  0.4299
13276TIP3    H161319   3.473   1.495   3.081  0.0853 -2.9507  0.9013
13276TIP3    H261320   3.342   1.482   3.155 -0.2517  0.8589  1.1824
13277TIP3   OH261321   4.856   6.138  15.375  0.0611  0.6202 -0.3175
13277TIP3    H161322   4.910   6.122  15.298 -0.8625 -1.8923 -0.5409
13277TIP3    H261323   4.803   6.214  15.352  1.3402  1.2721 -1.2525
13278TIP3   OH261324   0.117   3.888  10.422 -0.2772  0.2391  0.2342
13278TIP3    H161325   0.154   3.976  10.413  0.0856  0.0253 -0.4586
13278TIP3    H261326   0.155   3.854  10.503 -0.6234  0.8174  0.6400
13279TIP3   OH261327   3.613   4.518   4.021  0.3599  0.2054  0.5638
13279TIP3    H161328   3.578   4.605   4.040 -1.5243 -0.5847  0.9954
13279TIP3    H261329   3.559   4.486   3.949 -0.0800 -1.2084  1.4785
13280TIP3   OH261330   1.639   6.003  12.101 -0.3725  0.1569  0.1842
13280TIP3    H161331   1.563   5.997  12.159 -0.2995 -0.1585  0.2492
13280TIP3    H261332   1.694   6.070  12.140 -0.3203 -0.0580  0.4875
13281TIP3   OH261333   2.438   0.930   4.168 -0.2411  0.1713  0.0986
13281TIP3    H161334   2.402   0.860   4.114  1.0183 -1.9438  1.7959
13281TIP3    H261335   2.366   0.955   4.227 -0.6593  0.2136 -0.4250
13282TIP3   OH261336   5.007   0.615   0.468  0.0314  0.4037 -0.4517
13282TIP3    H161337   4.940   0.605   0.536 -0.7151  0.0632 -1.2302
13282TIP3    H261338   5.007   0.531   0.422  0.8241  0.4889 -0.6278
13283TIP3   OH261339   2.560   4.140  11.526  0.0566 -1.0958  0.1191
13283TIP3    H161340   2.639   4.143  11.472  1.3629 -2.3696  1.8426
13283TIP3    H261341   2.575   4.067  11.586 -3.6337 -3.2812 -1.2463
13284TIP3   OH261342   5.287   5.330   1.436 -0.3734 -0.2265  0.1987
13284TIP3    H161343   5.320   5.417   1.416 -1.7980  0.0042 -1.3591
13284TIP3    H261344   5.362   5.272   1.424  0.7377  0.7994  1.8168
13285TIP3   OH261345   2.708   6.165   4.395 -0.3113  0.1756  0.0617
13285TIP3    H161346   2.731   6.139   4.484  1.1878  1.3661  0.0669
13285TIP3    H261347   2.728   6.259   4.392 -2.8086  0.7462 -0.7729
13286TIP3   OH261348   0.375   2.834   6.068  0.5639 -0.3611  0.0244
13286TIP3    H161349   0.407   2.746   6.091 -0.5974 -0.9145 -0.3796
13286TIP3    H261350   0.356   2.875   6.152  0.9947 -0.5449  0.2134
13287TIP3   OH261351   5.868   5.590   0.921  0.2757 -0.1296  0.8769
13287TIP3    H161352   5.955   5.570   0.885  0.6774  1.0628  1.1418
13287TIP3    H261353   5.815   5.611   0.844  0.3078 -0.5505  0.7392
13288TIP3   OH261354   2.282   2.601  14.526 -0.1773  0.1747 -0.2890
13288TIP3    H161355   2.281   2.567  14.436  1.2586  0.8273 -0.5794
13288TIP3    H261356   2.327   2.533  14.577  1.0396  0.7630 -0.5241
13289TIP3   OH261357   1.014   1.725  14.434 -0.2720  0.3219 -0.3561
13289TIP3    H161358   1.046   1.773  14.358  0.2231 -0.3308 -0.5694
13289TIP3    H261359   1.092   1.687  14.473 -0.4905  0.8918  0.6575
13290TIP3   OH261360   1.420   0.927   1.890  0.4084  0.2885  0.4952
13290TIP3    H161361   1.392   0.875   1.966 -0.8834 -1.6543 -1.1879
13290TIP3    H261362   1.385   1.014   1.906 -1.5364 -0.5804  1.2934
13291TIP3   OH261363   2.464   6.048   4.291  0.3007 -0.7455 -0.0299
13291TIP3    H161364   2.532   6.085   4.348  2.4342  0.6497 -3.1545
13291TIP3    H261365   2.504   5.968   4.256 -0.5070 -0.9841 -0.4136
13292TIP3   OH261366   3.179   6.748   6.192  0.0192 -0.3517  0.1016
13292TIP3    H161367   3.261   6.790   6.167  0.5006 -0.1579  1.8677
13292TIP3    H261368   3.112   6.793   6.140  0.9281  0.1443 -0.6565
13293TIP3   OH261369   6.735   1.903  11.646 -0.3702  0.6721  0.3755
13293TIP3    H161370   6.649   1.862  11.645 -0.9033  1.6385  2.2671
13293TIP3    H261371   6.788   1.849  11.587 -2.3429  0.3149 -1.1701
13294TIP3   OH261372   6.642   4.790   5.050  0.4927 -0.5909 -0.2292
13294TIP3    H161373   6.594   4.873   5.058  1.7243  0.0372  1.5308
13294TIP3    H261374   6.732   4.813   5.073  0.9878 -2.3138 -0.3188
13295TIP3   OH261375   3.867   1.841  13.652 -0.1572  0.7054 -0.2031
13295TIP3    H161376   3.862   1.801  13.739 -0.8849 -0.4267 -0.7393
13295TIP3    H261377   3.911   1.776  13.598 -2.7390 -0.1456 -1.4695
13296TIP3   OH261378   0.122   2.928   0.731 -0.3455 -0.0042  0.0493
13296TIP3    H161379   0.158   2.875   0.660 -2.3631 -0.6604 -0.5486
13296TIP3    H261380   0.165   2.896   0.809  0.3651 -0.7309 -0.6288
13297TIP3   OH261381   0.235   4.327   2.493  0.1102 -0.2566 -0.0055
13297TIP3    H161382   0.202   4.241   2.466 -0.5767 -0.0230  0.0657
13297TIP3    H261383   0.268   4.313   2.582 -1.2051 -0.1836  0.5299
13298TIP3   OH261384   4.364   2.475   5.720  0.3994 -0.1573 -0.0299
13298TIP3    H161385   4.337   2.518   5.802  1.1680 -1.7945  1.1479
13298TIP3    H261386   4.284   2.434   5.688  0.1680  0.1790  0.1095
13299TIP3   OH261387   4.154   5.862   4.708  0.8629 -0.1760 -0.4454
13299TIP3    H161388   4.214   5.788   4.695  0.4447 -0.9652  1.6370
13299TIP3    H261389   4.070   5.831   4.677  0.9245 -0.1582 -0.6298
13300TIP3   OH261390   4.499   6.462  12.088  0.0207  0.0977  0.9093
13300TIP3    H161391   4.468   6.553  12.090  2.7064  1.1099  0.5593
13300TIP3    H261392   4.580   6.465  12.037 -0.3622 -2.7228 -0.0254
13301TIP3   OH261393   5.603   2.717   1.063 -0.5109 -0.4624  0.0509
13301TIP3    H161394   5.585   2.680   0.977  0.7926  1.8276 -1.2864
13301TIP3    H261395   5.695   2.741   1.061 -0.2617 -0.9591  2.3617
13302TIP3   OH261396   2.371   6.679   0.067  0.1087 -0.0910  0.2419
13302TIP3    H161397   2.391   6.662   0.159 -0.0189 -2.2766 -0.0734
13302TIP3    H261398   2.307   6.750   0.069 -0.5850 -0.6929  1.9118
13303TIP3   OH261399   1.458   4.864   0.912  0.1651  0.0403  0.5307
13303TIP3    H161400   1.409   4.908   0.982  0.5524  1.4250 -0.0429
13303TIP3    H261401   1.490   4.784   0.953 -0.9841  0.0217  1.4633
13304TIP3   OH261402   2.977   5.463  12.303 -0.1292  0.2025  0.2747
13304TIP3    H161403   2.988   5.532  12.238  1.6107  1.2156  1.5462
13304TIP3    H261404   3.059   5.414  12.300  0.2693  0.6789  2.1021
13305TIP3   OH261405   5.863   6.173  14.863  0.5204 -0.2183  0.1298
13305TIP3    H161406   5.791   6.160  14.925 -0.7079 -1.3785 -1.4584
13305TIP3    H261407   5.933   6.118  14.896  0.5393  0.5453  1.4374
13306TIP3   OH261408   6.693   6.844  11.452 -0.2096  0.0094  0.0270
13306TIP3    H161409   6.738   6.927  11.471 -0.0432  0.0588 -0.5685
13306TIP3    H261410   6.749   6.777  11.492  0.6990  0.0217 -1.1703
13307TIP3   OH261411   1.369   6.146   5.637  0.1059 -0.6226  0.0472
13307TIP3    H161412   1.289   6.108   5.672 -0.9884 -0.3009 -1.9911
13307TIP3    H261413   1.355   6.152   5.543  2.4763 -0.4059 -0.3679
13308TIP3   OH261414   2.629   0.137  13.930  0.2743  0.6906  0.0068
13308TIP3    H161415   2.680   0.074  13.981  0.8953  0.2127 -1.1510
13308TIP3    H261416   2.661   0.127  13.840 -2.0168  0.1948 -0.8412
13309TIP3   OH261417   3.402   0.188   1.059  0.1805  0.2195 -0.2993
13309TIP3    H161418   3.471   0.130   1.091 -0.0284 -0.9669 -1.8856
13309TIP3    H261419   3.323   0.134   1.058 -1.2458  1.9514  2.9326
13310TIP3   OH261420   5.055   2.819  13.221  0.2090 -0.0877  0.5552
13310TIP3    H161421   4.989   2.885  13.240 -0.4316  0.0539 -1.7742
13310TIP3    H261422   5.022   2.739  13.261 -2.5369 -0.5168 -2.1543
13311TIP3   OH261423   4.647   3.570   4.510 -0.1177  0.1829 -0.2706
13311TIP3    H161424   4.669   3.653   4.469 -0.9923  0.7318  0.3544
13311TIP3    H261425   4.594   3.524   4.444 -0.6625  0.6367 -0.1543
13312TIP3   OH261426   3.171   5.630  15.908 -0.7443 -0.1340  0.2165
13312TIP3    H161427   3.085   5.669  15.922  0.7662  2.7628  2.4090
13312TIP3    H261428   3.168   5.547  15.957 -3.3970 -2.2125 -2.9917
13313TIP3   OH261429   4.100   5.276   4.205  0.0335 -0.8450  0.0049
13313TIP3    H161430   4.144   5.343   4.153  0.6513 -0.2897  1.2081
13313TIP3    H261431   4.024   5.251   4.152 -0.3716  0.9975 -0.3471
13314TIP3   OH261432   3.581   2.498  17.033 -0.1535  0.1084 -0.1951
13314TIP3    H161433   3.547   2.409  17.019  0.8388 -0.1565 -1.0735
13314TIP3    H261434   3.517   2.539  17.091 -0.6941 -1.1383  0.1335
13315TIP3   OH261435   2.188   0.053  12.771  0.2929 -0.0069  0.6035
13315TIP3    H161436   2.123   0.084  12.834  0.4485  2.3128 -0.2766
13315TIP3    H261437   2.166  -0.039  12.757 -0.0246 -0.4953  3.6350
13316TIP3   OH261438   5.884   2.725  15.158  0.0793  0.6313  0.4279
13316TIP3    H161439   5.884   2.785  15.083 -1.8048  1.7989  1.2789
13316TIP3    H261440   5.942   2.767  15.222 -2.1439  2.3251  1.4903
13317TIP3   OH261441   3.283   6.333  14.844  0.2267  0.2841  0.5769
13317TIP3    H161442   3.328   6.311  14.763  0.1433  1.1766  0.2800
13317TIP3    H261443   3.222   6.403  14.820 -2.2555 -1.6773  0.6850
13318TIP3   OH261444   5.323   2.938   2.077  0.3954 -0.3904  0.2594
13318TIP3    H161445   5.414   2.960   2.059  0.7452 -2.1705 -0.4068
13318TIP3    H261446   5.296   2.884   2.002 -2.2206  2.5807 -1.1472
13319TIP3   OH261447   2.626   0.900   4.765  0.0168 -0.6273 -0.5456
13319TIP3    H161448   2.666   0.977   4.726 -1.6089 -1.1695 -3.5946
13319TIP3    H261449   2.551   0.934   4.815  0.5737 -0.1189 -0.0357
13320TIP3   OH261450   4.747   3.099  12.258  0.1661  0.6325 -0.5131
13320TIP3    H161451   4.685   3.168  12.235 -0.3040  0.5205  0.3670
13320TIP3    H261452   4.694   3.019  12.263  0.0504  0.7850  1.7147
13321TIP3   OH261453   2.408   0.571  16.360  0.1271  0.4584  0.4100
13321TIP3    H161454   2.346   0.501  16.379  0.6781  0.4370  2.2491
13321TIP3    H261455   2.443   0.548  16.273  0.2893 -1.5506  0.9507
13322TIP3   OH261456   4.983   6.359  13.801 -0.4680  0.3559 -0.2548
13322TIP3    H161457   4.945   6.384  13.717 -0.3860  1.3355 -0.0171
13322TIP3    H261458   4.942   6.275  13.822 -1.3651  0.6613 -0.7200
13323TIP3   OH261459   3.952   0.640   2.178 -0.4165  0.2510  0.2231
13323TIP3    H161460   3.976   0.732   2.176  2.6410 -0.4194  0.3022
13323TIP3    H261461   3.877   0.633   2.120  1.5697  2.2549 -2.8699
13324TIP3   OH261462   2.063   6.795  14.439  0.9086 -0.0250 -0.0092
13324TIP3    H161463   1.978   6.783  14.395  0.7016  1.9930 -0.2784
13324TIP3    H261464   2.041   6.842  14.519  1.7541  0.4648 -0.0537
13325TIP3   OH261465   3.864   6.804   0.902 -0.3217  0.1797  0.1801
13325TIP3    H161466   3.784   6.775   0.858 -0.3445  0.3707  0.0923
13325TIP3    H261467   3.905   6.723   0.934 -0.1363 -0.0030 -0.4864
13326TIP3   OH261468   3.605   3.823  16.980  0.2065  0.3754  0.3516
13326TIP3    H161469   3.556   3.745  17.007 -0.9445  1.4313  1.4213
13326TIP3    H261470   3.679   3.788  16.931 -0.9000 -1.3303 -0.1912
13327TIP3   OH261471   4.525   0.718  15.110 -0.0549 -0.1730 -0.0424
13327TIP3    H161472   4.617   0.695  15.095  0.2208  0.4707  0.6061
13327TIP3    H261473   4.525   0.764  15.194 -1.0100 -0.3832  0.0888
13328TIP3   OH261474   0.778   1.490   2.893  0.5588  0.7228 -0.3752
13328TIP3    H161475   0.847   1.481   2.828 -0.1355  1.6665 -1.2728
13328TIP3    H261476   0.715   1.421   2.873  0.2329  1.1547 -0.8665
13329TIP3   OH261477   5.167   1.804  11.719 -0.0584 -0.3122  0.0323
13329TIP3    H161478   5.245   1.846  11.756 -0.8144  1.1144  0.0787
13329TIP3    H261479   5.116   1.876  11.683 -1.9118 -1.0874  1.0070
13330TIP3   OH261480   0.528   2.363  11.314  0.7809 -0.2660 -0.8199
13330TIP3    H161481   0.465   2.415  11.263 -1.0385 -1.8846 -0.3266
13330TIP3    H261482   0.495   2.274  11.309  0.7048 -0.5902  2.8608
13331TIP3   OH261483   6.127   5.841  14.717 -0.1598  0.1981 -0.4765
13331TIP3    H161484   6.131   5.909  14.649  1.1586  1.4092  0.7527
13331TIP3    H261485   6.105   5.761  14.669 -0.9899  1.3285 -2.0802
13332TIP3   OH261486   5.241   2.624  14.556  0.4581  0.4911 -0.4953
13332TIP3    H161487   5.284   2.546  14.520 -0.4374  0.6507 -1.9871
13332TIP3    H261488   5.215   2.598  14.644 -1.1676 -1.4476 -1.4745
13333TIP3   OH261489   2.485   1.397  16.413  0.2071 -0.2062 -0.6294
13333TIP3    H161490   2.431   1.468  16.376 -2.2449 -0.1011  2.6733
13333TIP3    H261491   2.568   1.439  16.435 -0.0685  0.8617 -1.5211
13334TIP3   OH261492   0.904   6.458   0.574 -0.0268  0.2992  0.0955
13334TIP3    H161493   0.885   6.460   0.480 -3.0054  2.2134  0.5986
13334TIP3    H261494   0.951   6.540   0.590  2.0095 -0.7965  0.1175
13335TIP3   OH261495   4.288   5.174   3.025  0.2774 -0.4474 -1.0461
13335TIP3    H161496   4.298   5.188   3.120  0.3516 -2.3430 -0.7442
13335TIP3    H261497   4.363   5.119   3.002 -1.3089 -2.4553 -1.6220
13336TIP3   OH261498   0.614   4.853   1.086 -0.0941 -0.5697 -0.4648
13336TIP3    H161499   0.558   4.904   1.146  0.2646 -1.3975  0.5981
13336TIP3    H261500   0.637   4.775   1.136  2.1743 -0.1618 -0.7977
13337TIP3   OH261501   0.376   3.231  15.449  0.0610  0.0380 -0.9277
13337TIP3    H161502   0.362   3.255  15.541  1.1534 -3.2218  0.2277
13337TIP3    H261503   0.471   3.238  15.437 -0.0525  0.2447 -1.7725
13338TIP3   OH261504   3.720   0.573   3.933  0.6749  0.1524 -0.4624
13338TIP3    H161505   3.697   0.491   3.976  0.9931  0.3341  0.0586
13338TIP3    H261506   3.635   0.615   3.915  0.5543  0.3587  0.5421
13339TIP3   OH261507   1.708   0.645  13.429  0.9031 -0.1979  0.2809
13339TIP3    H161508   1.761   0.631  13.351 -1.4104 -0.3188 -1.3680
13339TIP3    H261509   1.662   0.727  13.413 -0.3214 -0.7044  1.0442
13340TIP3   OH261510   2.857   4.814   1.498 -0.2961  0.4968  0.0526
13340TIP3    H161511   2.888   4.732   1.538  0.1573 -1.6130 -4.0869
13340TIP3    H261512   2.762   4.807   1.499 -0.2577 -0.4547 -0.7918
13341TIP3   OH261513   5.877   1.918  12.731 -0.6828  0.0440 -0.1121
13341TIP3    H161514   5.928   1.904  12.651 -0.3491 -0.4131  0.1754
13341TIP3    H261515   5.930   1.978  12.783 -0.9104  0.3585 -0.2339
13342TIP3   OH261516   6.171   6.138  12.198  0.4169 -0.1268  0.2888
13342TIP3    H161517   6.170   6.233  12.197 -0.7896 -0.1265 -0.7640
13342TIP3    H261518   6.210   6.115  12.282 -2.3870  1.2854  2.0989
13343TIP3   OH261519   0.861   5.845  12.042 -0.0164  0.3449  0.6013
13343TIP3    H161520   0.858   5.761  11.997 -1.4219  0.6834  0.0066
13343TIP3    H261521   0.789   5.841  12.105 -1.3937  1.8043 -0.7944
13344TIP3   OH261522   5.144   3.909   4.210 -0.4493 -0.0477  0.7386
13344TIP3    H161523   5.080   3.907   4.282 -1.5998 -0.8247 -0.2681
13344TIP3    H261524   5.223   3.946   4.250 -1.4735  0.8221  2.0622
13345TIP3   OH261525   3.606   4.862  15.518 -0.0318 -0.0516 -0.3871
13345TIP3    H161526   3.608   4.954  15.491  1.5336  0.5042  1.4218
13345TIP3    H261527   3.579   4.865  15.609  0.5592 -1.3435 -0.1547
13346TIP3   OH261528   4.953   4.871  13.537  0.3540 -0.2646 -0.1311
13346TIP3    H161529   4.915   4.801  13.486 -0.6808  0.2933 -0.1540
13346TIP3    H261530   4.909   4.950  13.507  2.3764  0.6114 -1.0037
13347TIP3   OH261531   3.622   4.610   0.789  0.0589  0.1621 -0.9086
13347TIP3    H161532   3.562   4.684   0.801 -1.6579 -1.2409 -0.2382
13347TIP3    H261533   3.690   4.624   0.854  0.2431  1.5825 -1.3796
13348TIP3   OH261534   3.233   1.073  12.758  0.0335 -0.6657 -0.4785
13348TIP3    H161535   3.302   1.041  12.699  0.2758  1.4206 -1.4281
13348TIP3    H261536   3.251   1.031  12.842  2.8251  0.1913 -0.5426
13349TIP3   OH261537   5.157   4.095   6.290  0.2195  0.6527  0.3589
13349TIP3    H161538   5.133   4.184   6.317  1.5559  0.5091  2.1697
13349TIP3    H261539   5.209   4.061   6.363 -0.0710 -1.5484 -0.4064
13350TIP3   OH261540   2.792   1.808   2.863  0.5859  0.1421  0.0650
13350TIP3    H161541   2.825   1.898   2.855  0.3327  0.0983 -2.4151
13350TIP3    H261542   2.728   1.812   2.934  0.4457  1.9809 -0.1125
13351TIP3   OH261543   6.779   1.484   2.449 -0.5725  0.7693  0.0713
13351TIP3    H161544   6.743   1.444   2.370 -0.7499 -2.2382  1.5423
13351TIP3    H261545   6.704   1.523   2.493 -0.8542  0.4355 -0.1142
13352TIP3   OH261546   6.025   1.792   1.067 -0.0984  1.8091  0.1995
13352TIP3    H161547   6.106   1.832   1.036  1.8341 -1.8524  0.0146
13352TIP3    H261548   6.051   1.706   1.100 -3.8849  0.5616  0.4668
13353TIP3   OH261549   0.761   2.007   3.714 -0.0172  0.1080 -0.3356
13353TIP3    H161550   0.801   1.940   3.770 -0.7863 -0.4911 -0.4850
13353TIP3    H261551   0.775   1.975   3.625 -0.4053  0.1419 -0.4068
13354TIP3   OH261552   2.545   2.941  14.638 -0.1735  0.5736  0.4252
13354TIP3    H161553   2.568   2.989  14.718  2.6560 -0.7606  0.5579
13354TIP3    H261554   2.589   2.990  14.568  0.1303 -0.0685  0.1589
13355TIP3   OH261555   5.803   3.452   3.522  0.2275 -1.0523  0.1702
13355TIP3    H161556   5.767   3.367   3.496 -1.5813 -0.4733  0.6519
13355TIP3    H261557   5.752   3.516   3.472  1.2246 -0.2213  0.1883
13356TIP3   OH261558   6.094   2.739  16.383 -0.3924  0.1825  0.2471
13356TIP3    H161559   6.144   2.713  16.461 -0.0630  1.1257  0.3588
13356TIP3    H261560   6.114   2.671  16.319 -0.2076 -0.2947  0.7963
13357TIP3   OH261561   3.179   4.984  11.647 -0.1802  0.3990  0.2627
13357TIP3    H161562   3.135   4.963  11.730  1.0065  2.3369  1.4556
13357TIP3    H261563   3.271   4.997  11.671  0.4318 -0.1541 -1.5921
13358TIP3   OH261564   0.481   1.411  13.945 -0.1149  0.1186  0.3683
13358TIP3    H161565   0.398   1.437  13.905 -0.5420 -2.0040 -0.2689
13358TIP3    H261566   0.527   1.364  13.876  1.4548  0.8777  0.8592
13359TIP3   OH261567   2.104   2.358   4.118 -0.1737 -0.3120  0.2633
13359TIP3    H161568   2.125   2.307   4.040  2.0598  0.4880  0.2732
13359TIP3    H261569   2.178   2.343   4.177  0.7248  2.9852  0.1934
13360TIP3   OH261570   2.395   0.343  17.188 -0.2572 -0.2806 -0.6886
13360TIP3    H161571   2.440   0.390  17.117  1.6188 -1.3907 -0.3143
13360TIP3    H261572   2.382   0.255  17.154 -2.4576  0.0608 -0.8562
13361TIP3   OH261573   2.699   2.649  16.727 -0.3057 -0.5592  0.5566
13361TIP3    H161574   2.656   2.564  16.719 -0.0757 -0.7040  0.8491
13361TIP3    H261575   2.781   2.640  16.679  0.3336 -0.9255  1.6943
13362TIP3   OH261576   6.016   6.842  16.887 -0.0239 -0.3329  0.2833
13362TIP3    H161577   6.045   6.903  16.955  0.0410 -0.4114  0.3270
13362TIP3    H261578   6.097   6.813  16.845 -0.1345  0.9868 -0.9400
13363TIP3   OH261579   1.479   4.079  11.093  0.1323 -0.3107 -0.3607
13363TIP3    H161580   1.566   4.051  11.122  0.7949  2.1668  0.2493
13363TIP3    H261581   1.491   4.103  11.001  0.2820  0.6916 -0.0873
13364TIP3   OH261582   5.302   5.379   4.407  0.1108 -0.0237  0.2943
13364TIP3    H161583   5.365   5.448   4.428 -0.8186  0.7100  0.7304
13364TIP3    H261584   5.223   5.403   4.454  0.3045 -2.3721  2.0302
13365TIP3   OH261585   3.813   1.595  11.283  0.0599  0.2722  0.5244
13365TIP3    H161586   3.811   1.690  11.294  0.2759  0.1814  1.4467
13365TIP3    H261587   3.855   1.563  11.363 -0.4931 -0.6324  0.4602
13366TIP3   OH261588   5.859   4.130   4.985 -0.3193 -0.7636  0.0896
13366TIP3    H161589   5.835   4.162   5.072  0.3781 -0.7724  0.2880
13366TIP3    H261590   5.780   4.087   4.953 -0.0810 -2.2818  1.4204
13367TIP3   OH261591   5.228   4.233  14.631 -0.6014 -0.0640 -0.8540
13367TIP3    H161592   5.257   4.167  14.695 -1.8864 -0.7451 -0.9529
13367TIP3    H261593   5.310   4.262  14.590  0.1572 -0.3356  0.3816
13368TIP3   OH261594   1.664   5.935   0.662 -0.4354  0.1361 -0.1326
13368TIP3    H161595   1.643   5.945   0.569 -0.3446 -0.3705 -0.2101
13368TIP3    H261596   1.759   5.950   0.667 -0.8067  2.8796  0.2825
13369TIP3   OH261597   4.035   2.552   0.111  0.3129 -0.2470 -0.2652
13369TIP3    H161598   4.069   2.639   0.095 -1.9219  0.6363 -0.5540
13369TIP3    H261599   3.960   2.544   0.053  1.2691 -2.9520 -1.3020
13370TIP3   OH261600   0.389   1.876   1.798 -0.0849  0.0715  0.1982
13370TIP3    H161601   0.390   1.849   1.706 -2.7141  0.7957 -0.1237
13370TIP3    H261602   0.360   1.798   1.846 -0.9202  0.3334  0.1246
13371TIP3   OH261603   0.454   5.364  11.130 -0.4033 -0.1066  0.1079
13371TIP3    H161604   0.522   5.332  11.070  0.0283  0.9454  0.0093
13371TIP3    H261605   0.409   5.432  11.081  0.9778  1.8982  1.4613
13372TIP3   OH261606   3.473   5.278   2.692 -0.3916 -0.1276  0.5094
13372TIP3    H161607   3.492   5.193   2.730  1.0246 -0.1014 -0.0629
13372TIP3    H261608   3.383   5.272   2.663 -0.7053 -0.9962  1.5858
13373TIP3   OH261609   2.720   2.799   5.385  0.6222  0.0886  0.0708
13373TIP3    H161610   2.632   2.763   5.381  0.4373  0.4763  0.6232
13373TIP3    H261611   2.710   2.891   5.360  0.7968  0.2589  0.6226
13374TIP3   OH261612   5.887   2.723   5.649  0.4159 -0.2864  0.1195
13374TIP3    H161613   5.867   2.675   5.729  0.0264  0.2164  0.3243
13374TIP3    H261614   5.979   2.704   5.632  0.8969  0.7386  1.4653
13375TIP3   OH261615   3.985   4.743  10.584  0.2078 -0.0887 -0.2316
13375TIP3    H161616   3.998   4.769  10.675 -2.0794 -0.6094  0.3188
13375TIP3    H261617   4.047   4.672  10.570  1.1318  0.5106  0.6464
13376TIP3   OH261618   4.323   1.909   3.648  0.5734  0.1633 -0.1382
13376TIP3    H161619   4.383   1.835   3.646  0.3845 -0.0001  0.2011
13376TIP3    H261620   4.377   1.983   3.674  0.3770 -0.2382  1.5189
13377TIP3   OH261621   2.073   0.739  11.780 -0.4914 -0.1895 -0.5687
13377TIP3    H161622   2.062   0.728  11.875 -1.6085  1.3764 -0.4723
13377TIP3    H261623   2.109   0.827  11.770 -2.2455  0.4576 -1.6398
13378TIP3   OH261624   3.455   6.178   1.016 -0.4832 -0.1922 -0.2992
13378TIP3    H161625   3.519   6.194   0.946 -1.0409 -0.1498 -0.8071
13378TIP3    H261626   3.423   6.089   1.000 -0.0303 -0.4867  0.3835
13379TIP3   OH261627   6.342   4.900  15.293 -0.1531  0.4694 -0.0299
13379TIP3    H161628   6.318   4.817  15.251  1.3866  0.0304 -0.1251
13379TIP3    H261629   6.337   4.965  15.223 -2.0232  0.6185  0.1953
13380TIP3   OH261630   2.179   4.396  16.976  0.1531  0.1104 -0.7663
13380TIP3    H161631   2.170   4.487  16.946 -0.8713 -0.0943 -1.1221
13380TIP3    H261632   2.095   4.356  16.956  0.4823 -0.8384 -0.3060
13381TIP3   OH261633   0.033   0.810  16.767  0.3436  0.6893  0.1110
13381TIP3    H161634   0.090   0.852  16.702  1.8216 -1.2985  0.0407
13381TIP3    H261635  -0.053   0.849  16.751  1.0562  1.6454 -1.7845
13382TIP3   OH261636   1.361   6.629  14.773  0.0410  0.0874 -0.7825
13382TIP3    H161637   1.351   6.679  14.854 -0.7362 -1.3621  0.0672
13382TIP3    H261638   1.450   6.593  14.777 -0.0800 -0.1860 -0.4242
13383TIP3   OH261639   3.265   4.450   2.023 -0.0029  0.0182 -0.0566
13383TIP3    H161640   3.243   4.361   2.052 -1.2400 -0.3589 -1.9908
13383TIP3    H261641   3.181   4.492   2.008  0.5755  1.3890  0.3422
13384TIP3   OH261642   2.846   5.809  16.508  0.2921 -0.2030  0.2577
13384TIP3    H161643   2.849   5.869  16.583 -0.0513 -0.6034  0.5951
13384TIP3    H261644   2.754   5.786  16.499  0.3612 -0.3150 -0.1616
13385TIP3   OH261645   4.499   1.709  12.367  0.0861 -0.8304 -0.4342
13385TIP3    H161646   4.517   1.633  12.423 -2.4399  2.1040  5.1718
13385TIP3    H261647   4.404   1.708  12.355 -0.2221  1.9350  0.9754
13386TIP3   OH261648   2.434   2.809   1.417  0.5121 -0.5406  0.1815
13386TIP3    H161649   2.507   2.756   1.448 -0.4035 -1.6396  0.5231
13386TIP3    H261650   2.406   2.860   1.494  2.0168  1.2578 -0.3820
13387TIP3   OH261651   3.050   2.762  13.648 -0.2199  0.0343 -0.5148
13387TIP3    H161652   3.072   2.788  13.558 -1.1860  0.8249 -0.5404
13387TIP3    H261653   3.134   2.764  13.694  0.0868  1.0590 -1.0638
13388TIP3   OH261654   3.446   0.949   2.288  0.0804 -0.5480  0.2758
13388TIP3    H161655   3.381   1.014   2.262  1.1974  1.2981  1.8229
13388TIP3    H261656   3.526   0.974   2.240  0.0414 -2.0279 -0.6379
13389TIP3   OH261657   3.837   2.981  11.012 -0.0082  0.5408 -0.0576
13389TIP3    H161658   3.914   3.007  11.062  0.6455  0.0788 -0.7951
13389TIP3    H261659   3.780   2.938  11.077  1.8836 -2.2740 -0.0723
13390TIP3   OH261660   0.696   6.452   0.751  0.2134  0.7858  0.1301
13390TIP3    H161661   0.614   6.479   0.710  0.4542  2.2612  0.5473
13390TIP3    H261662   0.763   6.469   0.686  0.1906 -0.6113 -0.2852
13391TIP3   OH261663   0.740   0.911  16.708 -0.5150 -0.3404 -0.0033
13391TIP3    H161664   0.816   0.854  16.720 -1.5052 -1.3233  2.3231
13391TIP3    H261665   0.668   0.864  16.751 -2.2339  1.0028 -1.2424
13392TIP3   OH261666   5.241   2.048  13.735  0.2081 -0.0405 -0.0134
13392TIP3    H161667   5.270   1.995  13.809  1.1196 -1.7351 -1.4817
13392TIP3    H261668   5.322   2.086  13.700 -0.1819  0.5924 -0.2385
13393TIP3   OH261669   5.784   1.964   3.092 -0.0630  0.0108  0.2547
13393TIP3    H161670   5.765   1.976   3.185  1.1123 -2.2498  0.8773
13393TIP3    H261671   5.795   2.053   3.058 -0.6511  0.9083  2.2284
13394TIP3   OH261672   4.521   5.156  14.832 -0.2808  0.4735 -0.4474
13394TIP3    H161673   4.445   5.129  14.782 -0.4079 -1.3952  0.6751
13394TIP3    H261674   4.587   5.177  14.766 -0.4163 -1.9702 -1.4382
13395TIP3   OH261675   5.613   4.713  12.303 -0.5070 -0.2299 -0.3476
13395TIP3    H161676   5.648   4.780  12.363 -2.9313  1.3423 -0.5418
13395TIP3    H261677   5.518   4.715  12.317 -0.7535 -3.1016 -0.9875
13396TIP3   OH261678   2.960   3.648   3.264  0.3515 -0.4232 -0.0577
13396TIP3    H161679   2.951   3.735   3.224 -0.6708 -0.9168 -0.9490
13396TIP3    H261680   2.916   3.655   3.348 -1.0277 -0.4459 -0.7421
13397TIP3   OH261681   3.716   2.772   3.643 -0.4202  0.3222 -0.5340
13397TIP3    H161682   3.658   2.847   3.634  0.0975  1.0765  1.6678
13397TIP3    H261683   3.687   2.711   3.576 -0.6661  2.5745 -2.6200
13398TIP3   OH261684   1.523   3.439   1.051 -0.0353 -0.3451  0.1023
13398TIP3    H161685   1.494   3.354   1.085  1.6776 -0.5852  1.0757
13398TIP3    H261686   1.573   3.418   0.973  1.0253 -0.3281  0.7567
13399TIP3   OH261687   6.052   1.797   1.838 -0.1143  0.5420  0.3100
13399TIP3    H161688   6.127   1.848   1.805 -0.0678  1.3048  1.5433
13399TIP3    H261689   6.016   1.850   1.908 -1.2477 -0.2688  0.3600
13400TIP3   OH261690   4.253   1.547  12.714 -0.3590  0.5767  0.0381
13400TIP3    H161691   4.253   1.643  12.720 -1.3532  0.5926 -0.0395
13400TIP3    H261692   4.198   1.518  12.787  0.1532  0.0447  0.2232
13401TIP3   OH261693   3.048   1.327   2.044  0.6950 -0.2158  0.2483
13401TIP3    H161694   2.987   1.378   1.992  1.8655  1.3041  0.2737
13401TIP3    H261695   3.051   1.372   2.129  0.7997 -1.0880  0.7184
13402TIP3   OH261696   5.496   2.762  14.515  0.0599 -0.0092 -0.1457
13402TIP3    H161697   5.522   2.670  14.510 -0.3578 -0.1404  0.0846
13402TIP3    H261698   5.411   2.761  14.558  0.7473  0.6146  1.2894
13403TIP3   OH261699   4.494   3.215  14.182 -0.6305 -0.1710  0.0732
13403TIP3    H161700   4.500   3.174  14.096  0.5702 -1.2583  0.6266
13403TIP3    H261701   4.411   3.261  14.182 -1.1655 -1.0864 -1.2685
13404TIP3   OH261702   3.250   3.911   1.624 -0.2632  0.0215 -0.5657
13404TIP3    H161703   3.344   3.921   1.642 -0.2198 -0.3707 -0.5676
13404TIP3    H261704   3.207   3.956   1.697 -0.0870  2.0741 -1.6276
13405TIP3   OH261705   1.982   0.558   5.625 -0.5738  0.0500 -0.4736
13405TIP3    H161706   1.903   0.565   5.679 -0.6733  0.0928 -0.6224
13405TIP3    H261707   2.053   0.587   5.681 -0.7758  0.8198 -0.6091
13406TIP3   OH261708   0.676   3.666   4.449  0.0566 -0.0622 -0.3237
13406TIP3    H161709   0.659   3.610   4.373  0.0090 -0.1509 -0.2462
13406TIP3    H261710   0.768   3.649   4.471  1.2919  2.6534 -2.6527
13407TIP3   OH261711   1.681   3.055   4.216  0.2689  0.1770 -0.7616
13407TIP3    H161712   1.696   3.086   4.305 -1.4756  0.6329 -0.5924
13407TIP3    H261713   1.756   3.086   4.167  1.1694  0.0906  0.4963
13408TIP3   OH261714   1.808   3.616   0.424 -0.4690 -0.5477  0.1499
13408TIP3    H161715   1.764   3.538   0.390 -0.3478  0.1153 -1.6220
13408TIP3    H261716   1.901   3.595   0.419 -0.3860  0.0407 -1.2948
13409TIP3   OH261717   5.526   1.577   0.853 -0.6528 -0.3130  0.0768
13409TIP3    H161718   5.538   1.623   0.936 -0.0247  1.7901 -1.1158
13409TIP3    H261719   5.613   1.543   0.831 -0.7527 -0.5957  0.1087
13410TIP3   OH261720   4.664   6.112   6.515  0.1050 -0.3070 -0.4636
13410TIP3    H161721   4.650   6.172   6.588 -0.0546 -0.9188  0.0213
13410TIP3    H261722   4.684   6.028   6.557  1.0817 -0.4183 -1.1289
13411TIP3   OH261723   4.717   6.730  13.129 -0.4657  0.2176 -0.3218
13411TIP3    H161724   4.808   6.707  13.110 -0.0032  2.4896 -1.1884
13411TIP3    H261725   4.711   6.730  13.224  1.1438  2.2255 -0.1300
13412TIP3   OH261726   2.343   2.975   1.658 -0.1968  0.0210 -0.7504
13412TIP3    H161727   2.385   2.960   1.743 -0.8942 -1.6697 -0.6740
13412TIP3    H261728   2.350   3.070   1.645  0.7017  0.2017  0.7800
13413TIP3   OH261729   0.309   1.603   5.330 -0.4201  0.1769 -0.4120
13413TIP3    H161730   0.283   1.512   5.321 -1.6784  0.5859 -1.1819
13413TIP3    H261731   0.361   1.606   5.410 -1.6213 -0.9591  0.4463
13414TIP3   OH261732   3.445   1.299  12.730  0.0440 -0.6599 -0.5129
13414TIP3    H161733   3.373   1.248  12.693  2.7060 -3.9657 -1.5769
13414TIP3    H261734   3.465   1.256  12.814  2.0375 -1.1972 -1.2000
13415TIP3   OH261735   1.532   4.571  13.211  0.0874  0.0468  0.3620
13415TIP3    H161736   1.618   4.548  13.177  0.2750  1.1882  0.0030
13415TIP3    H261737   1.470   4.524  13.155  0.4594 -2.3981  1.8522
13416TIP3   OH261738   5.306   1.394  14.342 -0.9729  0.1042  0.0840
13416TIP3    H161739   5.267   1.387  14.429 -1.3878  0.5993 -0.0560
13416TIP3    H261740   5.269   1.474  14.305 -1.4288 -0.5119 -0.8545
13417TIP3   OH261741   2.384   1.542  13.432  0.6519 -0.3082  0.1124
13417TIP3    H161742   2.348   1.626  13.463  0.5530 -0.4534  0.3948
13417TIP3    H261743   2.329   1.519  13.357  0.9077  0.0582 -0.1919
13418TIP3   OH261744   1.577   5.981  15.141 -0.1434  0.1461 -0.0014
13418TIP3    H161745   1.585   6.025  15.225  1.1966 -0.8537  0.4441
13418TIP3    H261746   1.621   5.897  15.154 -0.2811 -0.2039 -1.5704
13419TIP3   OH261747   4.392   4.584   1.766 -0.6449  0.3933  0.0264
13419TIP3    H161748   4.423   4.546   1.848  0.7397 -0.7935 -0.9703
13419TIP3    H261749   4.363   4.509   1.714  0.9286  0.7619 -1.5073
13420TIP3   OH261750   6.457   1.938  13.351  0.1025 -0.0529  0.4264
13420TIP3    H161751   6.472   1.853  13.391  2.2288 -0.2238 -0.6214
13420TIP3    H261752   6.490   2.001  13.415  0.8495 -0.1646  0.1549
13421TIP3   OH261753   2.432   4.702   5.229 -0.1230 -0.3031 -0.5345
13421TIP3    H161754   2.347   4.680   5.192 -0.6897  0.2086  0.4292
13421TIP3    H261755   2.484   4.734   5.155 -0.3995 -1.6028 -1.3329
13422TIP3   OH261756   4.167   2.600   1.287 -0.0217 -0.3367 -0.3180
13422TIP3    H161757   4.108   2.570   1.217  1.2411 -2.1470 -0.6658
13422TIP3    H261758   4.241   2.638   1.241  0.3371 -0.5908  0.0476
13423TIP3   OH261759   4.365   4.854  14.385 -0.3702 -0.5460 -0.8807
13423TIP3    H161760   4.336   4.803  14.461  1.0504  0.5464  0.4454
13423TIP3    H261761   4.293   4.915  14.368 -1.1659 -1.5181 -1.1527
13424TIP3   OH261762   5.761   1.273  13.739  0.2793 -0.3678  0.3126
13424TIP3    H161763   5.787   1.239  13.824 -0.6572  1.5899  1.4391
13424TIP3    H261764   5.841   1.269  13.686  2.0873  2.1947  2.5731
13425TIP3   OH261765   0.236   2.729  12.158  0.0526 -0.3110  0.4253
13425TIP3    H161766   0.282   2.768  12.083 -1.2678  1.6670  0.5908
13425TIP3    H261767   0.296   2.741  12.232  0.3740 -0.1730  0.1442
13426TIP3   OH261768   3.002   2.180   0.024  0.3674 -0.0005 -0.4136
13426TIP3    H161769   2.936   2.214   0.083  0.1967  1.7645 -1.5410
13426TIP3    H261770   3.004   2.242  -0.049  2.2608 -0.7678 -1.0979
13427TIP3   OH261771   3.456   5.616   2.575  0.3513  0.1717  0.3091
13427TIP3    H161772   3.371   5.591   2.610  0.7042 -1.0724  0.3327
13427TIP3    H261773   3.503   5.653   2.651 -0.6922  2.3791 -0.0558
13428TIP3   OH261774   5.149   5.233  10.765  0.1454  0.4478  0.7123
13428TIP3    H161775   5.209   5.167  10.800 -1.7802 -1.7411  0.1749
13428TIP3    H261776   5.110   5.273  10.842 -0.7792 -1.1631  1.1288
13429TIP3   OH261777   2.144   1.991  17.023  0.0859  0.0874  0.5570
13429TIP3    H161778   2.051   2.003  17.005  0.7956  2.8059 -2.0544
13429TIP3    H261779   2.171   1.920  16.964 -0.1195  0.0645  0.4895
13430TIP3   OH261780   4.502   1.175  16.173  0.8467 -1.0356  0.0149
13430TIP3    H161781   4.458   1.250  16.214  1.9233 -0.3731 -0.0259
13430TIP3    H261782   4.507   1.197  16.080 -2.1311 -2.7924 -0.7114
13431TIP3   OH261783   5.326   0.316  16.717  0.8414  0.3914  0.5090
13431TIP3    H161784   5.312   0.334  16.624  0.1546  0.7616  0.6780
13431TIP3    H261785   5.329   0.220  16.723  0.7902  0.3655  0.1206
13432TIP3   OH261786   6.024   1.571   0.118  0.1363 -0.3018  0.4371
13432TIP3    H161787   5.984   1.594   0.035  1.6893 -0.5457 -0.4145
13432TIP3    H261788   6.103   1.521   0.094 -0.3552 -1.9836  2.0844
13433TIP3   OH261789   4.577   3.473   0.686 -0.1602 -0.4162  0.2586
13433TIP3    H161790   4.578   3.400   0.623  0.7309  1.1358 -1.6307
13433TIP3    H261791   4.484   3.495   0.694 -0.2369 -0.1213 -1.1884
13434TIP3   OH261792   6.484   2.250  16.670 -0.2601 -0.0709  0.6467
13434TIP3    H161793   6.390   2.246  16.655 -0.3533 -1.2958  1.3655
13434TIP3    H261794   6.495   2.316  16.738 -0.5776  0.2267  0.4110
13435TIP3   OH261795   6.181   5.788  10.263 -0.7242 -0.2692  0.1904
13435TIP3    H161796   6.138   5.747  10.338 -1.0028  2.1071  1.4244
13435TIP3    H261797   6.159   5.731  10.189 -2.0495 -1.6602  1.5771
13436TIP3   OH261798   6.822   1.596  17.025  0.0404  0.7603  0.7156
13436TIP3    H161799   6.892   1.554  17.075 -0.7326 -1.0419  0.3877
13436TIP3    H261800   6.765   1.523  16.999  0.0632  1.6776 -2.2279
13437TIP3   OH261801   4.762   4.694   3.765 -0.2273 -0.2975 -0.3367
13437TIP3    H161802   4.731   4.748   3.692 -0.0715 -0.5642 -0.5992
13437TIP3    H261803   4.812   4.624   3.724 -0.6791 -0.8146 -0.0080
13438TIP3   OH261804   3.396   6.828  13.019  0.1208 -0.4540 -0.0284
13438TIP3    H161805   3.449   6.767  12.968 -0.7813 -1.2580 -0.0176
13438TIP3    H261806   3.354   6.774  13.086 -1.4761 -0.0119 -0.6307
13439TIP3   OH261807   3.254   4.842   5.824 -0.5597 -0.3972  0.3756
13439TIP3    H161808   3.202   4.920   5.845  0.2283  1.0296 -2.4300
13439TIP3    H261809   3.299   4.820   5.906  0.0661  2.8516  1.0506
13440TIP3   OH261810   4.622   5.500   3.759  0.4410  0.1114 -0.2383
13440TIP3    H161811   4.584   5.458   3.682 -0.1227 -2.2477  1.2557
13440TIP3    H261812   4.631   5.592   3.733 -2.3022 -0.0356 -2.1540
13441TIP3   OH261813   0.068   6.367  12.203 -0.3519  0.3152 -0.1371
13441TIP3    H161814   0.139   6.386  12.264 -0.7482 -0.2627  0.5197
13441TIP3    H261815   0.110   6.322  12.130 -0.1371 -0.7259  0.6018
13442TIP3   OH261816   6.376   4.595   0.296 -0.0634 -0.0297  0.0604
13442TIP3    H161817   6.442   4.529   0.315  0.8098  0.9886  0.6655
13442TIP3    H261818   6.387   4.661   0.364 -1.7178  0.1715  0.1803
13443TIP3   OH261819   3.629   5.618   2.033  0.4365  0.2664 -0.6327
13443TIP3    H161820   3.548   5.666   2.049  0.5543  0.3705 -0.3225
13443TIP3    H261821   3.627   5.545   2.095 -0.8539 -1.5574 -2.6893
13444TIP3   OH261822   4.148   5.818  15.822  0.0515  0.5746 -0.5790
13444TIP3    H161823   4.231   5.780  15.793  0.6421 -0.4896  2.1909
13444TIP3    H261824   4.170   5.907  15.846  0.3840  0.3250  0.0569
13445TIP3   OH261825   5.810   0.215  15.961 -0.3743 -0.3042  0.1911
13445TIP3    H161826   5.819   0.207  16.056 -0.2902  2.2490  0.4718
13445TIP3    H261827   5.873   0.283  15.937  1.6864 -2.8292 -2.1590
13446TIP3   OH261828   2.934   3.742   0.280  0.1643 -0.2456 -0.1955
13446TIP3    H161829   2.869   3.748   0.211 -1.0406  1.4505  1.0047
13446TIP3    H261830   2.977   3.827   0.281 -0.1485 -0.0734  1.3944
13447TIP3   OH261831   0.345   0.437   3.975  0.9864 -0.5464 -0.2991
13447TIP3    H161832   0.377   0.470   3.891 -0.2736  1.6878  0.0338
13447TIP3    H261833   0.319   0.347   3.957  1.4229 -0.3358 -2.1261
13448TIP3   OH261834   0.787   5.653   4.304  0.0120  0.4738  0.2256
13448TIP3    H161835   0.782   5.589   4.375  0.2124 -0.4847 -0.5931
13448TIP3    H261836   0.697   5.660   4.271  0.1050  0.0785 -0.1267
13449TIP3   OH261837   4.888   6.423   6.311  0.3009  0.5143 -0.5286
13449TIP3    H161838   4.844   6.447   6.392 -1.7122 -0.3853 -1.2975
13449TIP3    H261839   4.945   6.498   6.292 -0.0419  1.2352  1.0957
13450TIP3   OH261840   4.320   6.126   0.339 -0.0072  0.6373  0.8078
13450TIP3    H161841   4.410   6.139   0.309  1.0135 -0.2957  3.2013
13450TIP3    H261842   4.304   6.198   0.400 -0.3954  0.1132  1.3400
13451TIP3   OH261843   1.524   3.951  15.068 -0.0449  0.4348 -0.4044
13451TIP3    H161844   1.553   4.008  15.139  1.2254 -0.7115  0.0260
13451TIP3    H261845   1.429   3.963  15.065 -0.0698  0.8015  1.2025
13452TIP3   OH261846   4.254   5.763   0.615 -0.2595 -0.1293 -0.1021
13452TIP3    H161847   4.329   5.715   0.579 -1.3765 -1.1809 -1.1068
13452TIP3    H261848   4.222   5.816   0.542 -1.1946 -0.5856 -0.0394
13453TIP3   OH261849   4.088   3.565  15.559 -0.4677 -0.5720  0.1285
13453TIP3    H161850   4.012   3.622  15.574  0.3831  0.5375  0.3908
13453TIP3    H261851   4.061   3.506  15.489 -2.4137 -1.8249  1.8577
13454TIP3   OH261852   2.941   5.774  14.338  0.5694 -0.5016 -0.1338
13454TIP3    H161853   2.967   5.863  14.312  1.8940 -1.1698 -1.2575
13454TIP3    H261854   3.018   5.720  14.319 -1.0502 -2.3528 -2.0417
13455TIP3   OH261855   2.682   4.315   3.636  0.1232  0.0025  0.2904
13455TIP3    H161856   2.683   4.244   3.572 -0.4039 -0.3005  0.6059
13455TIP3    H261857   2.597   4.357   3.624  0.0173 -0.0601  0.7891
13456TIP3   OH261858   1.136   3.611  15.262  0.0190  0.4309  0.0791
13456TIP3    H161859   1.052   3.566  15.264  0.7695 -1.0621 -0.3792
13456TIP3    H261860   1.188   3.567  15.329  1.1035 -0.0851 -1.0751
13457TIP3   OH261861   5.366   2.852  16.117  0.2014  0.3118 -0.2990
13457TIP3    H161862   5.271   2.856  16.117  0.2245  1.6223  0.5534
13457TIP3    H261863   5.393   2.916  16.184  1.6217 -1.6524  1.1429
13458TIP3   OH261864   5.410   1.838  13.464  0.9020  0.8225  0.6428
13458TIP3    H161865   5.328   1.808  13.502 -0.0574  2.3685 -0.1179
13458TIP3    H261866   5.475   1.823  13.533  0.5356 -2.7691  0.3754
13459TIP3   OH261867   4.920   5.997   2.487 -0.2034  0.1630 -0.4346
13459TIP3    H161868   4.856   6.011   2.557 -0.0362  0.6881 -0.3840
13459TIP3    H261869   4.924   6.080   2.440 -0.7545 -0.3657 -1.4502
13460TIP3   OH261870   1.679   4.504   3.495 -0.6694  0.1151 -0.3222
13460TIP3    H161871   1.621   4.580   3.507 -4.0021 -2.3715  0.8006
13460TIP3    H261872   1.738   4.507   3.570 -1.4477  1.0362  0.2772
13461TIP3   OH261873   2.189   2.378   0.354  0.1192  0.0036  0.8380
13461TIP3    H161874   2.254   2.380   0.424  0.8571 -1.6773  0.2340
13461TIP3    H261875   2.126   2.312   0.382  0.8856 -1.3151 -0.4582
13462TIP3   OH261876   1.599   2.819  11.949 -0.2300 -0.2722 -0.6137
13462TIP3    H161877   1.582   2.767  12.028  1.4648 -0.7904 -0.5631
13462TIP3    H261878   1.631   2.903  11.982 -1.3160  0.2194 -0.7430
13463TIP3   OH261879   5.875   3.095   2.645  0.2493 -0.0226  0.0387
13463TIP3    H161880   5.791   3.124   2.681 -0.5570 -1.0635 -0.9335
13463TIP3    H261881   5.936   3.166   2.666 -0.4752  0.0421  2.2042
13464TIP3   OH261882   4.363   3.421  14.343  0.0137  0.5232 -0.2134
13464TIP3    H161883   4.401   3.482  14.280 -1.0755  0.9294 -0.5091
13464TIP3    H261884   4.431   3.408  14.408  0.7361  1.0219 -0.8519
13465TIP3   OH261885   2.087   0.214   3.779 -0.6272  0.1540  0.3704
13465TIP3    H161886   2.093   0.277   3.851  1.1874  0.3619  0.0891
13465TIP3    H261887   2.049   0.136   3.820 -0.2841  0.5026  1.3958
13466TIP3   OH261888   4.939   3.469  12.792 -0.3786  0.0406 -0.0354
13466TIP3    H161889   4.917   3.393  12.846  1.4092  0.0765  0.8194
13466TIP3    H261890   4.913   3.443  12.703  0.8320 -1.9222  0.1055
13467TIP3   OH261891   0.146   5.254   5.625 -0.2515  0.2723  0.5426
13467TIP3    H161892   0.056   5.260   5.655  0.2779  1.1535  2.1044
13467TIP3    H261893   0.179   5.344   5.629  0.8696 -0.1182  0.5892
13468TIP3   OH261894   2.663   5.000  16.030  0.8619 -0.1448  0.4750
13468TIP3    H161895   2.689   5.031  15.944 -0.4563 -0.6840 -0.1382
13468TIP3    H261896   2.639   5.079  16.078 -0.5790  0.0130 -0.4294
13469TIP3   OH261897   5.438   2.035   1.376 -0.4007 -0.0093 -0.0371
13469TIP3    H161898   5.452   1.950   1.417 -1.7324 -0.4449 -0.4349
13469TIP3    H261899   5.500   2.093   1.420  0.1950 -1.0712  0.5712
13470TIP3   OH261900   5.586   6.699  13.388 -0.1613 -0.4955 -0.3602
13470TIP3    H161901   5.608   6.781  13.433  2.6520 -0.8062 -0.9974
13470TIP3    H261902   5.600   6.631  13.454  1.4907 -0.7408 -0.9183
13471TIP3   OH261903   2.400   5.624   1.354 -0.1532 -0.0304 -0.7789
13471TIP3    H161904   2.318   5.645   1.398  0.5810  1.7190 -0.1398
13471TIP3    H261905   2.428   5.541   1.393 -1.0854 -0.0925 -0.2230
13472TIP3   OH261906   4.217   2.338  14.057  0.4884  0.3195 -0.1007
13472TIP3    H161907   4.227   2.272  14.125 -0.3250 -0.4223 -0.6787
13472TIP3    H261908   4.291   2.322  13.998 -0.1421 -0.6300 -0.6691
13473TIP3   OH261909   1.674   4.743   0.662  0.1187 -0.0839  0.2657
13473TIP3    H161910   1.719   4.683   0.603  0.7785  0.6591  0.0087
13473TIP3    H261911   1.591   4.762   0.618 -0.7557 -1.9013  1.0040
13474TIP3   OH261912   2.893   1.780  16.977 -0.1629 -0.1256 -0.3535
13474TIP3    H161913   2.886   1.871  16.951 -2.3333  0.0445  0.6308
13474TIP3    H261914   2.986   1.760  16.968  0.2203  1.8806 -1.4906
13475TIP3   OH261915   3.378   2.184   1.204  0.7212 -0.2599 -0.0508
13475TIP3    H161916   3.303   2.242   1.186  1.6463  0.2522 -2.7991
13475TIP3    H261917   3.346   2.097   1.183  0.2261 -0.3598  1.0808
13476TIP3   OH261918   0.893   1.092   3.156 -0.7024 -0.1882 -0.3819
13476TIP3    H161919   0.883   1.092   3.251  1.4585 -1.0342 -0.1019
13476TIP3    H261920   0.853   1.174   3.128 -1.1303  0.2094  1.2768
13477TIP3   OH261921   1.299   2.817   6.578 -0.2776 -0.6239 -0.1611
13477TIP3    H161922   1.341   2.887   6.628 -0.3706 -2.1563  2.2270
13477TIP3    H261923   1.370   2.756   6.558 -0.3395 -0.2693 -1.4986
13478TIP3   OH261924   1.162   5.271  11.798 -0.8889 -0.1801 -0.0807
13478TIP3    H161925   1.100   5.278  11.726 -0.7014 -1.2933 -0.3773
13478TIP3    H261926   1.215   5.194  11.777 -0.4254 -0.1630  0.9369
13479TIP3   OH261927   1.298   3.458   3.812 -0.2128  0.2021  0.0088
13479TIP3    H161928   1.357   3.527   3.842  0.8339 -1.2808  1.4548
13479TIP3    H261929   1.324   3.380   3.860 -1.0504 -1.3706 -1.9352
13480TIP3   OH261930   5.573   3.700  15.497 -0.3475  0.8094  0.7219
13480TIP3    H161931   5.487   3.727  15.463  0.9615  0.3107 -3.5507
13480TIP3    H261932   5.582   3.609  15.472  2.2431  1.4336 -0.9980
13481TIP3   OH261933   1.724   1.105   5.873  0.5642  0.5552  0.1992
13481TIP3    H161934   1.714   1.090   5.967 -0.1808 -0.1879  0.0148
13481TIP3    H261935   1.752   1.196   5.865 -0.1963  0.8784  1.1009
13482TIP3   OH261936   4.604   6.394  15.015 -0.2238  0.1982  0.2005
13482TIP3    H161937   4.606   6.328  15.085  0.0417 -1.1242 -1.0145
13482TIP3    H261938   4.677   6.452  15.034  0.2907 -0.5725  0.6372
13483TIP3   OH261939   2.133   1.753   5.244 -0.1703 -0.5590  0.5937
13483TIP3    H161940   2.213   1.702   5.234  0.3163  0.0775  1.2270
13483TIP3    H261941   2.082   1.733   5.165  2.0113  1.5735 -1.4980
13484TIP3   OH261942   6.600   1.892  16.897 -0.1076  0.3740  0.7449
13484TIP3    H161943   6.587   1.827  16.829 -1.0147 -1.9206  2.9807
13484TIP3    H261944   6.695   1.901  16.904 -0.0010  0.2058 -0.3935
13485TIP3   OH261945   6.371   5.621  16.913  0.2096 -0.0327  0.4393
13485TIP3    H161946   6.280   5.599  16.935  0.2005 -2.1527 -1.3044
13485TIP3    H261947   6.393   5.695  16.970 -2.2229 -0.1892  1.7093
13486TIP3   OH261948   0.156   3.549   3.853  0.1154 -0.6222 -0.3468
13486TIP3    H161949   0.089   3.601   3.898  0.7770 -0.1799  0.1298
13486TIP3    H261950   0.189   3.489   3.920  0.4843 -0.5656 -0.4777
13487TIP3   OH261951   0.793   0.537  10.783 -0.5649 -0.3738  0.1132
13487TIP3    H161952   0.839   0.469  10.734 -0.6775 -1.3986  1.3708
13487TIP3    H261953   0.707   0.542  10.742 -0.1980 -0.2162 -0.6647
13488TIP3   OH261954   3.127   3.989   3.778  0.5082 -0.1429 -0.0573
13488TIP3    H161955   3.166   3.907   3.809  1.5139 -0.2293 -1.4666
13488TIP3    H261956   3.167   4.057   3.832  2.1121 -0.3047 -0.9850
13489TIP3   OH261957   4.541   1.673  15.521 -0.0511  0.1143 -0.0835
13489TIP3    H161958   4.595   1.640  15.448 -0.3206 -2.2283  0.6980
13489TIP3    H261959   4.600   1.730  15.570  0.5107  0.7267 -1.4102
13490TIP3   OH261960   4.338   0.288  14.699 -0.0368  0.3474 -0.1798
13490TIP3    H161961   4.322   0.196  14.720 -1.1519 -0.0634 -2.5451
13490TIP3    H261962   4.429   0.304  14.727  0.2593 -1.5245  0.0220
13491TIP3   OH261963   2.888   4.920  14.803 -0.0389 -0.0548  0.1348
13491TIP3    H161964   2.910   4.828  14.816 -2.1077 -0.4020  1.6939
13491TIP3    H261965   2.948   4.967  14.861 -0.8725 -0.6953  1.5798
13492TIP3   OH261966   3.949   5.715  14.108 -0.0202  0.2372 -0.1238
13492TIP3    H161967   3.965   5.648  14.042 -0.9362  0.8176 -0.9682
13492TIP3    H261968   3.854   5.712  14.123  0.0365  0.7930  0.4228
13493TIP3   OH261969   0.351   1.076   0.425 -0.5051 -0.3832  0.2303
13493TIP3    H161970   0.392   0.989   0.426  0.2512 -0.1234  3.5422
13493TIP3    H261971   0.408   1.129   0.370 -0.0810 -1.5672 -0.5282
13494TIP3   OH261972   5.608   4.447  10.915  0.1445  0.3323  0.3537
13494TIP3    H161973   5.632   4.430  10.824 -0.6155  0.2733  0.1582
13494TIP3    H261974   5.523   4.405  10.926 -1.2356  2.8875  0.1993
13495TIP3   OH261975   4.713   4.526  16.304 -0.4841 -0.1147 -0.0749
13495TIP3    H161976   4.760   4.466  16.247 -1.9206  0.4880 -1.9954
13495TIP3    H261977   4.653   4.469  16.353  0.2992 -0.5605  0.3896
13496TIP3   OH261978   0.247   4.156   1.624 -0.3064  0.0915  0.1016
13496TIP3    H161979   0.169   4.100   1.623 -1.3005  1.2087  3.2075
13496TIP3    H261980   0.213   4.245   1.628  1.1242  0.6253  1.2101
13497TIP3   OH261981   2.918   4.907   3.375  0.0218 -0.5472  0.4221
13497TIP3    H161982   2.825   4.932   3.374  0.2486  0.4786  1.5934
13497TIP3    H261983   2.947   4.916   3.285  0.1644  4.0458  0.7078
13498TIP3   OH261984   6.318   6.167  17.073  0.0302  0.3448 -0.0027
13498TIP3    H161985   6.264   6.094  17.105 -0.5867  0.8456  0.1087
13498TIP3    H261986   6.383   6.125  17.017 -0.0781 -0.3358  0.3665
13499TIP3   OH261987   4.891   0.400   0.078  0.4817 -0.7962 -0.0310
13499TIP3    H161988   4.981   0.409   0.108  0.5601  0.7896 -0.6487
13499TIP3    H261989   4.847   0.479   0.108 -0.2447 -0.6869 -1.2948
13500TIP3   OH261990   3.145   0.724   4.547  0.7109 -0.1654 -0.7155
13500TIP3    H161991   3.123   0.631   4.544 -0.9868  0.2027 -0.4923
13500TIP3    H261992   3.061   0.769   4.545  1.4258  1.3495  0.7783
13501TIP3   OH261993   3.761   5.061  11.993  0.3616  0.2314  0.5354
13501TIP3    H161994   3.806   5.144  11.973 -1.0782  0.6632 -1.2283
13501TIP3    H261995   3.818   4.994  11.956  0.4937  0.6139  0.0303
13502TIP3   OH261996   6.190   6.681  16.188  0.1064  0.2562 -0.0637
13502TIP3    H161997   6.237   6.692  16.105 -0.8336 -0.1789 -0.6703
13502TIP3    H261998   6.214   6.594  16.218 -0.1291  0.1225 -0.2589
13503TIP3   OH261999   1.290   4.135  16.513 -1.3450 -0.2410  0.0557
13503TIP3    H162000   1.307   4.212  16.459 -0.6424  0.8202  1.7172
13503TIP3    H262001   1.199   4.146  16.542 -1.2220  0.0061  0.3511
13504TIP3   OH262002   2.952   4.945   3.883 -0.5413  0.4418  0.4960
13504TIP3    H162003   2.923   4.974   3.969 -0.0621 -0.5391  0.9982
13504TIP3    H262004   2.888   4.984   3.823 -2.5440 -1.0615  1.5068
13505TIP3   OH262005   2.162   6.759   4.387 -0.4300  0.0204  0.6499
13505TIP3    H162006   2.133   6.816   4.457  0.2154  1.4867 -0.2278
13505TIP3    H262007   2.203   6.818   4.323 -0.7030 -1.2886 -0.8012
13506TIP3   OH262008   5.104   0.071   4.591  0.0567 -0.4767  0.2723
13506TIP3    H162009   5.171   0.008   4.619  0.8731  0.1798 -0.1450
13506TIP3    H262010   5.022   0.023   4.595  0.7517 -1.8286 -0.8187
13507TIP3   OH262011   6.799   1.204  11.101  0.0273 -0.2782 -0.1685
13507TIP3    H162012   6.856   1.175  11.173 -0.6871 -1.5680 -0.0830
13507TIP3    H262013   6.765   1.123  11.064 -1.5116  0.4541 -0.4126
13508TIP3   OH262014   6.700   5.023   1.241 -0.2900  0.1325 -0.3733
13508TIP3    H162015   6.662   4.997   1.157 -1.1135  1.6065 -0.4919
13508TIP3    H262016   6.789   5.054   1.219  0.5367 -2.0232 -0.2856
13509TIP3   OH262017   5.903   6.398   3.486 -0.3820 -0.7900  0.0842
13509TIP3    H162018   5.915   6.425   3.396  0.0590  0.8139  0.5955
13509TIP3    H262019   5.991   6.374   3.516 -0.5468 -1.4439  0.0550
13510TIP3   OH262020   3.667   5.237   1.624 -0.2212 -0.9815 -0.2213
13510TIP3    H162021   3.583   5.191   1.616 -1.2498  0.8981 -0.6551
13510TIP3    H262022   3.657   5.294   1.700 -0.1910  0.9078 -1.5762
13511TIP3   OH262023   0.436   5.253   3.326 -0.2632  0.2162  0.3074
13511TIP3    H162024   0.530   5.237   3.316 -0.3576 -0.0362 -0.2158
13511TIP3    H262025   0.403   5.176   3.373  0.0862  1.1441  2.1594
13512TIP3   OH262026   6.511   1.801   2.561 -0.3167 -0.1984  0.5167
13512TIP3    H162027   6.543   1.841   2.642 -1.0052  0.5070  0.4553
13512TIP3    H262028   6.531   1.708   2.570 -0.4666 -0.1406  1.5340
13513TIP3   OH262029   3.548   2.749   1.739  0.8800 -0.0325  0.3044
13513TIP3    H162030   3.615   2.729   1.674 -0.9336  0.4132 -1.7977
13513TIP3    H262031   3.483   2.679   1.730  0.8385 -0.2816  2.0698
13514TIP3   OH262032   4.752   1.052   0.283 -0.2374  0.4563 -0.3695
13514TIP3    H162033   4.805   1.085   0.356  0.4833 -1.6984  0.1633
13514TIP3    H262034   4.814   1.003   0.229 -1.1400  0.3729 -1.3586
13515TIP3   OH262035   4.421   4.215  15.278 -0.4676  0.0561  0.7384
13515TIP3    H162036   4.446   4.297  15.322 -0.8109  0.7919 -0.3929
13515TIP3    H262037   4.434   4.148  15.344 -1.0528  1.1376  1.9977
13516TIP3   OH262038   1.886   1.980   6.122  0.3130 -0.4514 -0.3416
13516TIP3    H162039   1.935   1.981   6.204 -0.0465 -0.3651 -0.1231
13516TIP3    H262040   1.902   1.894   6.085  0.2131 -0.6100 -0.0180
13517TIP3   OH262041   2.608   2.314  14.423 -0.1934  0.3182  0.2037
13517TIP3    H162042   2.689   2.276  14.456 -0.0208  1.0888  0.6915
13517TIP3    H262043   2.552   2.239  14.403  0.6832 -0.2254 -0.2661
13518TIP3   OH262044   0.806   2.363   0.029 -0.0064 -0.3524  0.4111
13518TIP3    H162045   0.715   2.374   0.056  0.1223 -1.9331  1.6171
13518TIP3    H262046   0.856   2.415   0.092 -0.0685  1.2491 -0.7784
13519TIP3   OH262047   0.066   1.043  15.305  0.3739 -0.1867  0.3667
13519TIP3    H162048  -0.021   1.011  15.330  0.8214 -1.0816  0.8449
13519TIP3    H262049   0.127   0.984  15.350  1.2487  1.2370  1.1332
13520TIP3   OH262050   6.671   2.931  14.854  0.1475 -0.0941 -0.1881
13520TIP3    H162051   6.631   2.939  14.940  2.4118  0.9309  0.8507
13520TIP3    H262052   6.615   2.982  14.796 -0.7445  0.2088  0.9189
13521TIP3   OH262053   0.910   0.484   0.569 -0.0507  0.1345  0.2410
13521TIP3    H162054   0.910   0.548   0.640  3.6830 -0.5498  1.0620
13521TIP3    H262055   0.916   0.399   0.613 -0.1602 -0.4733 -0.8804
13522TIP3   OH262056   1.752   1.142   5.533  0.1627 -0.1242  0.4726
13522TIP3    H162057   1.689   1.162   5.463  0.6610  1.9622  0.5573
13522TIP3    H262058   1.699   1.099   5.600 -0.8837  0.2598 -0.0731
13523TIP3   OH262059   3.107   4.996   0.547  0.1471  0.5095  0.2446
13523TIP3    H162060   3.122   4.909   0.584  1.6572  1.0477  0.9863
13523TIP3    H262061   3.073   4.980   0.459 -1.8443 -0.8037  1.1904
13524TIP3   OH262062   2.239   2.119   1.858  0.2082 -0.2294 -0.4226
13524TIP3    H162063   2.276   2.161   1.780 -0.1985 -0.8081 -0.9407
13524TIP3    H262064   2.308   2.060   1.888 -0.3696 -1.5813 -1.6027
13525TIP3   OH262065   2.458   2.867   3.500  0.1525 -0.0593  0.2130
13525TIP3    H162066   2.445   2.928   3.573  1.5843  1.1234 -0.4840
13525TIP3    H262067   2.373   2.824   3.490 -0.3932  0.5592  1.8455
13526TIP3   OH262068   1.320   5.391   2.788  0.3787 -0.1918 -0.6712
13526TIP3    H162069   1.261   5.396   2.713 -0.5158 -1.2734 -0.0589
13526TIP3    H262070   1.279   5.446   2.854  1.6495  1.5418 -1.2391
13527TIP3   OH262071   6.652   3.804  13.251 -0.2051  0.1449  0.0414
13527TIP3    H162072   6.673   3.795  13.344 -1.8545  0.4520  0.4795
13527TIP3    H262073   6.605   3.888  13.246  0.0232  0.2101 -1.1021
13528TIP3   OH262074   5.778   6.232  15.932 -0.1354 -0.3841 -0.3811
13528TIP3    H162075   5.700   6.198  15.976  0.4851 -1.3434 -0.0028
13528TIP3    H262076   5.793   6.171  15.859 -0.1494  0.2130 -0.8935
13529TIP3   OH262077   2.930   3.299   0.529 -0.2259 -0.2759 -0.4821
13529TIP3    H162078   3.019   3.264   0.530  0.0875  0.5091  0.3415
13529TIP3    H262079   2.927   3.354   0.451  0.6787  1.3023  0.5442
13530TIP3   OH262080   1.952   2.191   1.155  0.1194  0.0252  0.3708
13530TIP3    H162081   1.933   2.274   1.198  0.4310  0.2867  0.0116
13530TIP3    H262082   1.868   2.166   1.115  0.1284  0.3784  0.1271
13531TIP3   OH262083   0.455   4.914  14.700  0.0033  0.0631 -0.3548
13531TIP3    H162084   0.425   5.001  14.728  0.6601  0.3425 -0.5060
13531TIP3    H262085   0.520   4.890  14.766  0.8553  0.3078 -1.0974
13532TIP3   OH262086   3.811   6.229   5.447 -0.4288  0.6705 -0.1209
13532TIP3    H162087   3.725   6.264   5.467  0.0208  1.3841  0.6042
13532TIP3    H262088   3.870   6.304   5.453  0.7713 -0.3640  2.8311
13533TIP3   OH262089   6.371   6.423  14.066  0.0973 -0.0846 -0.1561
13533TIP3    H162090   6.289   6.471  14.056 -0.2987 -1.0574 -2.0998
13533TIP3    H262091   6.422   6.475  14.128 -0.9597  1.9304 -0.8804
13534TIP3   OH262092   4.328   1.448   3.022  0.0299  0.4419 -0.2620
13534TIP3    H162093   4.368   1.534   3.027 -0.6364  0.6925  2.4846
13534TIP3    H262094   4.248   1.461   2.971 -0.9140  1.8772  1.4701
13535TIP3   OH262095   2.283   1.292   2.684 -0.1034 -0.4222  0.3269
13535TIP3    H162096   2.247   1.204   2.673  0.3079 -0.6728  0.9436
13535TIP3    H262097   2.230   1.347   2.626 -0.1379 -1.1317 -0.3328
13536TIP3   OH262098   1.915   0.256   3.552 -0.2116 -1.2710  0.4024
13536TIP3    H162099   1.976   0.226   3.620  0.9254  0.4145  0.1835
13536TIP3    H262100   1.942   0.210   3.473  0.4337 -0.9650  0.4363
13537TIP3   OH262101   4.724   4.885  14.576  0.1448 -0.1451  0.3529
13537TIP3    H162102   4.746   4.830  14.652  0.3074  1.4862  1.5442
13537TIP3    H262103   4.796   4.949  14.572  0.1365 -0.2070 -1.2031
13538TIP3   OH262104   6.609   1.270  13.157  0.4617  0.2852 -0.1493
13538TIP3    H162105   6.618   1.203  13.089  1.1178 -0.0691  0.2796
13538TIP3    H262106   6.539   1.326  13.125 -0.7511 -1.1288 -0.0715
13539TIP3   OH262107   3.231   3.049   4.647 -0.4043 -0.2255 -0.1745
13539TIP3    H162108   3.245   3.006   4.732 -0.6343 -1.8510 -0.9144
13539TIP3    H262109   3.144   3.019   4.620 -0.6114  0.8061 -0.7026
13540TIP3   OH262110   6.655   1.805   2.832  0.1134 -0.1772 -0.0123
13540TIP3    H162111   6.749   1.819   2.842 -0.0898  0.9983  0.3550
13540TIP3    H262112   6.645   1.710   2.836  1.5174 -0.4982 -2.2347
13541TIP3   OH262113   4.972   6.712  15.293 -0.3681  0.2775  0.2464
13541TIP3    H162114   5.020   6.648  15.345  1.4455  0.9077 -0.5693
13541TIP3    H262115   4.880   6.685  15.300  0.2148 -1.6700  0.9151
13542TIP3   OH262116   5.365   3.523   1.086 -0.3114 -0.0851  0.8963
13542TIP3    H162117   5.384   3.494   0.996 -1.1805 -0.4579  0.8193
13542TIP3    H262118   5.354   3.441   1.135 -2.4443  0.0597  0.7587
13543TIP3   OH262119   6.107   4.220  10.940 -0.0705 -0.2473 -0.0791
13543TIP3    H162120   6.025   4.253  10.978 -0.1901 -0.8630  0.2075
13543TIP3    H262121   6.104   4.248  10.848 -0.9278 -0.8394 -0.2464
13544TIP3   OH262122   5.222   5.311   2.988  0.3417  0.1669  0.7114
13544TIP3    H162123   5.259   5.351   2.909 -1.3427  0.6023  0.0933
13544TIP3    H262124   5.248   5.369   3.059  0.1535  0.9077  0.1837
13545TIP3   OH262125   0.270   4.684   1.393 -0.1110  0.6399  0.4081
13545TIP3    H162126   0.186   4.682   1.347  0.4328  0.3972 -0.6099
13545TIP3    H262127   0.331   4.723   1.330  0.5732  0.6677  1.0754
13546TIP3   OH262128   3.874   5.970  11.324  0.3026  0.3180  0.3606
13546TIP3    H162129   3.791   5.923  11.334  0.7355 -0.2900  1.1141
13546TIP3    H262130   3.912   5.934  11.244 -0.1706  0.6271 -0.0109
13547TIP3   OH262131   3.396   0.685   3.902  0.7507 -0.1930  0.3564
13547TIP3    H162132   3.404   0.731   3.986  1.2588  0.2996  0.0399
13547TIP3    H262133   3.429   0.746   3.837  0.5669 -0.6581 -0.1857
13548TIP3   OH262134   6.741   3.718   3.223 -0.2535  0.0064 -0.2651
13548TIP3    H162135   6.717   3.627   3.203 -2.2935 -0.1574  2.4407
13548TIP3    H262136   6.741   3.762   3.138  0.9625 -2.4845 -1.6958
13549TIP3   OH262137   1.875   5.798   3.744 -1.0925  0.0492  0.1160
13549TIP3    H162138   1.796   5.826   3.791 -0.5284 -0.2512  1.2587
13549TIP3    H262139   1.844   5.784   3.654 -1.9729  1.6206  0.1306
13550TIP3   OH262140   6.701   6.608   3.261 -0.6562 -0.7088  0.2559
13550TIP3    H162141   6.694   6.550   3.337  0.0035 -1.3134 -0.1352
13550TIP3    H262142   6.699   6.696   3.298 -1.4904 -0.9801  0.8712
13551TIP3   OH262143   3.106   6.195   5.705 -0.4831 -0.2739 -0.5962
13551TIP3    H162144   3.089   6.109   5.667  0.7605 -0.7461 -0.1398
13551TIP3    H262145   3.024   6.219   5.746 -1.4809 -0.3067 -2.4650
13552TIP3   OH262146   0.095   1.759   0.677 -0.0841 -0.5874 -0.2974
13552TIP3    H162147   0.047   1.676   0.676 -0.4651 -0.4356  1.5788
13552TIP3    H262148   0.051   1.811   0.743  3.3994 -0.9022  2.5661
13553TIP3   OH262149   0.320   6.100   1.305 -0.4024  0.2289  0.2345
13553TIP3    H162150   0.363   6.014   1.302 -2.2544 -0.7462  0.1944
13553TIP3    H262151   0.285   6.106   1.394 -2.5078 -0.2383 -0.5155
13554TIP3   OH262152   5.834   5.687  16.994  0.5833 -0.8705  0.0947
13554TIP3    H162153   5.745   5.652  16.984  0.1382 -0.0062  0.8642
13554TIP3    H262154   5.848   5.688  17.089  0.9438  0.1433  0.0360
13555TIP3   OH262155   1.157   2.659   4.035  0.4838  0.3332 -0.2182
13555TIP3    H162156   1.225   2.671   4.101 -0.4294  2.7096  0.4011
13555TIP3    H262157   1.202   2.618   3.961  2.4362  1.2168  0.4127
13556TIP3   OH262158   4.836   0.610   2.743 -0.8135  0.2969 -0.0921
13556TIP3    H162159   4.835   0.582   2.834  1.9726 -0.9230 -0.3571
13556TIP3    H262160   4.926   0.636   2.726 -1.0890 -0.1089 -2.6664
13557TIP3   OH262161   6.514   5.289   4.644  0.9666 -0.1951 -0.0130
13557TIP3    H162162   6.511   5.309   4.738 -0.5035 -1.2336  0.1940
13557TIP3    H262163   6.436   5.237   4.628 -0.0896  1.8758 -2.2953
13558TIP3   OH262164   3.559   1.018   1.347 -0.1433 -0.2839  0.0742
13558TIP3    H162165   3.572   1.068   1.266  0.3399  1.1493  1.0113
13558TIP3    H262166   3.477   0.970   1.332  0.2533 -0.5171 -1.4929
13559TIP3   OH262167   1.208   1.855  12.345  0.0878 -0.6521  0.1939
13559TIP3    H162168   1.131   1.814  12.307  0.4276  0.0214 -1.2908
13559TIP3    H262169   1.204   1.946  12.315  1.3189 -0.5463  0.2970
13560TIP3   OH262170   0.821   0.311  13.962 -0.3286 -0.6576  0.6207
13560TIP3    H162171   0.874   0.244  14.004 -1.7860 -0.6347  2.6479
13560TIP3    H262172   0.764   0.262  13.902  0.6570 -0.8696 -0.1704
13561TIP3   OH262173   3.853   5.498   4.697  0.1699  0.3010  0.0968
13561TIP3    H162174   3.777   5.494   4.638 -1.0689 -0.1834  1.6424
13561TIP3    H262175   3.887   5.587   4.686 -0.7396  0.5981 -0.4770
13562TIP3   OH262176   0.501   4.271   4.132  0.3199 -0.2400  0.3164
13562TIP3    H162177   0.515   4.243   4.223 -2.3317 -0.0370  0.8757
13562TIP3    H262178   0.493   4.366   4.137 -1.3598 -0.3414  0.1694
13563TIP3   OH262179   0.863   1.371  16.744 -0.6448  0.2249 -0.5508
13563TIP3    H162180   0.791   1.417  16.701 -1.7045 -0.9679 -0.1145
13563TIP3    H262181   0.921   1.441  16.775 -2.3876  1.2910  0.4517
13564TIP3   OH262182   3.267   2.778   1.506  0.1622  0.4683 -0.8375
13564TIP3    H162183   3.281   2.714   1.436  1.8815 -0.6305  0.4423
13564TIP3    H262184   3.296   2.861   1.468  1.4521 -0.1784 -1.3164
13565TIP3   OH262185   0.724   6.064  16.969 -0.1658 -0.5300  0.5245
13565TIP3    H162186   0.728   6.016  17.052  2.5480 -1.0097  0.2159
13565TIP3    H262187   0.727   6.156  16.995 -0.0851 -0.6611  0.9959
13566TIP3   OH262188   1.078   4.997  12.130 -0.1052  0.0652 -0.0375
13566TIP3    H162189   1.138   5.061  12.169 -0.5807  0.2898  0.3368
13566TIP3    H262190   1.131   4.951  12.065  0.2820  0.7354 -0.2010
13567TIP3   OH262191   4.401   1.455   1.051 -0.0327 -0.4686 -0.2639
13567TIP3    H162192   4.356   1.488   0.974  0.6644 -0.7784 -0.8170
13567TIP3    H262193   4.391   1.360   1.046 -0.4042 -0.4611  0.2924
13568TIP3   OH262194   3.163   0.445   4.984  0.1634  0.7249 -0.4416
13568TIP3    H162195   3.187   0.424   5.074 -1.0619 -0.2506 -0.3135
13568TIP3    H262196   3.076   0.407   4.973  1.2757 -1.3672 -2.8048
13569TIP3   OH262197   5.103   4.892   3.033  1.0276  0.0795 -0.1162
13569TIP3    H162198   5.126   4.940   3.112  1.1341  1.1914 -0.8125
13569TIP3    H262199   5.116   4.954   2.961 -2.1575  0.1954 -0.7561
13570TIP3   OH262200   4.023   0.252   1.761 -0.4193  0.0096 -0.7572
13570TIP3    H162201   3.977   0.195   1.822 -0.3063 -1.0278 -1.6109
13570TIP3    H262202   3.954   0.295   1.711 -0.5257  1.1751  0.3359
13571TIP3   OH262203   2.564   1.782  16.103 -0.2455 -0.1273 -0.6176
13571TIP3    H162204   2.552   1.741  16.189  0.7806  1.5221  0.3847
13571TIP3    H262205   2.530   1.718  16.041 -1.6624 -1.1168  1.0552
13572TIP3   OH262206   3.041   0.766  15.935  0.8083  0.0899 -0.3858
13572TIP3    H162207   3.124   0.730  15.968  0.3077  1.3537  2.5707
13572TIP3    H262208   2.979   0.693  15.943  0.7111  0.3458  1.6202
13573TIP3   OH262209   2.673   3.094   6.180  0.4488 -0.2138  0.3672
13573TIP3    H162210   2.693   3.082   6.273  0.0635 -4.0789  0.1029
13573TIP3    H262211   2.577   3.092   6.176  0.4886 -1.7620 -0.2289
13574TIP3   OH262212   3.131   4.433  16.655 -0.2858  0.0871  0.0801
13574TIP3    H162213   3.107   4.471  16.739 -0.8707 -2.2032  1.0110
13574TIP3    H262214   3.187   4.359  16.677 -0.4938 -0.5884 -1.5359
13575TIP3   OH262215   2.611   0.054   0.688  0.4168  0.5294  0.4370
13575TIP3    H162216   2.656   0.119   0.634  1.5941 -0.7797 -0.2150
13575TIP3    H262217   2.519   0.081   0.685  0.3188  0.2063 -2.7690
13576TIP3   OH262218   4.545   2.238  12.112  0.1014  0.1245 -0.2264
13576TIP3    H162219   4.578   2.284  12.035  0.7072 -0.8091 -0.5446
13576TIP3    H262220   4.575   2.148  12.101 -1.3237 -0.4315  0.2239
13577TIP3   OH262221   2.337   6.645  14.851  0.9089  0.5397  0.4475
13577TIP3    H162222   2.291   6.729  14.844  1.0237  0.7000  1.4651
13577TIP3    H262223   2.296   6.590  14.785 -0.7206  0.7032  1.2544
13578TIP3   OH262224   5.097   6.295   2.407  0.0225  0.9057 -0.1941
13578TIP3    H162225   5.013   6.284   2.363 -1.4140  1.5617  2.2020
13578TIP3    H262226   5.100   6.388   2.431  0.5251  0.5172  1.3941
13579TIP3   OH262227   3.668   0.385   1.050 -0.2647  0.1208  0.2094
13579TIP3    H162228   3.573   0.395   1.043 -0.1446  1.2343 -0.0085
13579TIP3    H262229   3.699   0.472   1.074  0.7428 -0.1459 -0.1017
13580TIP3   OH262230   3.572   2.141   5.485 -0.1453 -0.0963  0.0966
13580TIP3    H162231   3.567   2.168   5.393 -1.2927 -1.1780 -0.1857
13580TIP3    H262232   3.481   2.137   5.514  0.1735 -0.3783  1.0991
13581TIP3   OH262233   5.845   4.687  15.309 -0.8192  0.1550 -0.0586
13581TIP3    H162234   5.840   4.707  15.402 -1.7347  0.9158 -0.2540
13581TIP3    H262235   5.936   4.664  15.294 -0.7438 -0.3777  1.1018
13582TIP3   OH262236   0.917   3.824   1.271 -0.9192  0.3445  0.2833
13582TIP3    H162237   0.983   3.884   1.305 -0.6920 -0.8996  2.2306
13582TIP3    H262238   0.841   3.837   1.327 -1.2938 -0.2776 -0.0631
13583TIP3   OH262239   4.192   5.013   2.107  0.2051  0.2447 -0.2852
13583TIP3    H162240   4.134   5.028   2.181  0.1853  0.0804 -0.2670
13583TIP3    H262241   4.142   5.045   2.031  0.2109  0.3788 -0.2319
13584TIP3   OH262242   2.801   3.636   0.760  0.0845  0.2256  0.6409
13584TIP3    H162243   2.859   3.589   0.819 -0.0127 -3.5170 -1.8726
13584TIP3    H262244   2.859   3.686   0.703  0.4578  0.5614  1.3146
13585TIP3   OH262245   3.107   5.520   0.015 -0.1835  0.0134  0.2255
13585TIP3    H162246   3.020   5.487   0.036 -0.2939  0.0688 -0.1304
13585TIP3    H262247   3.101   5.547  -0.077  0.5281 -1.0529 -0.1563
13586TIP3   OH262248   1.912   4.155   1.769 -0.1399  0.4505 -0.0166
13586TIP3    H162249   1.848   4.200   1.825  0.3022  1.7579 -0.5227
13586TIP3    H262250   1.866   4.077   1.738  0.1366 -1.2109  3.3985
13587TIP3   OH262251   2.953   2.589   0.744  0.3846  0.1312  0.5602
13587TIP3    H162252   2.894   2.547   0.807 -0.3727 -1.7667 -1.3086
13587TIP3    H262253   3.020   2.523   0.725 -0.2024  0.0950 -1.6308
13588TIP3   OH262254   4.998   1.170  14.294 -0.0651  0.1371  0.4993
13588TIP3    H162255   4.974   1.087  14.252  0.2212 -0.0213  0.6405
13588TIP3    H262256   5.083   1.152  14.335 -0.6054  0.1184  1.6497
13589TIP3   OH262257   2.024   3.757  13.545  0.1380 -0.5326  0.3028
13589TIP3    H162258   1.933   3.771  13.571  0.1679  0.1112  0.0883
13589TIP3    H262259   2.063   3.709  13.618  0.6114  2.4961  2.2384
13590TIP3   OH262260   4.152   5.807  16.106  0.4345  0.0437 -0.3500
13590TIP3    H162261   4.160   5.806  16.011 -0.0216  0.2737 -0.3930
13590TIP3    H262262   4.126   5.717  16.129 -0.2972  0.2074 -0.5221
13591TIP3   OH262263   3.742   5.062   3.610 -0.2012 -0.0804 -0.1165
13591TIP3    H162264   3.706   5.115   3.539 -0.9131 -0.4339 -0.0316
13591TIP3    H262265   3.694   5.090   3.688  0.2289 -0.0414  0.1397
13592TIP3   OH262266   2.847   1.205  16.799  0.3023 -0.0271 -0.0628
13592TIP3    H162267   2.826   1.273  16.863 -1.1836  0.9904 -1.5477
13592TIP3    H262268   2.872   1.129  16.851 -1.9047  0.4102  1.7909
13593TIP3   OH262269   4.802   1.805   4.829  0.1575 -0.3897  0.3133
13593TIP3    H162270   4.767   1.885   4.791 -0.1141 -1.0393 -0.8467
13593TIP3    H262271   4.771   1.806   4.920  0.8772  1.2204  0.5669
13594TIP3   OH262272   6.445   5.368   0.600  0.1531  0.4477  0.3871
13594TIP3    H162273   6.420   5.458   0.579 -2.4679 -0.6806 -1.8771
13594TIP3    H262274   6.388   5.344   0.673 -1.3879 -0.2749 -0.9971
13595TIP3   OH262275   1.132   5.379   5.440  0.1964  0.4385 -0.0205
13595TIP3    H162276   1.068   5.407   5.374  1.3297  0.8395 -0.9860
13595TIP3    H262277   1.130   5.449   5.505  1.2585  1.6394 -1.2070
13596TIP3   OH262278   5.068   5.650   4.295  0.5692 -0.0161  0.7866
13596TIP3    H162279   5.072   5.597   4.374  2.2572  1.4230  1.7505
13596TIP3    H262280   5.106   5.734   4.321 -1.6972  1.6004 -0.7301
13597TIP3   OH262281   1.307   3.598   1.428 -0.4481 -0.5894  0.3820
13597TIP3    H162282   1.357   3.638   1.356 -1.7854  1.2234  0.4117
13597TIP3    H262283   1.216   3.618   1.408 -0.9190 -0.9247  2.0809
13598TIP3   OH262284   5.261   5.677  14.967 -0.6033 -0.6914  0.4375
13598TIP3    H162285   5.355   5.694  14.954 -0.7684 -0.5362 -0.6383
13598TIP3    H262286   5.248   5.590  14.929 -1.2507  0.0993 -1.2851
13599TIP3   OH262287   4.723   5.341   2.335 -0.7584 -0.0732  0.2719
13599TIP3    H162288   4.812   5.374   2.344 -0.8445  0.3207 -0.3125
13599TIP3    H262289   4.712   5.282   2.410  0.3085 -0.8402 -0.1443
13600TIP3   OH262290   5.139   6.349  13.464  0.0136  0.6655 -0.0180
13600TIP3    H162291   5.047   6.336  13.440 -0.2217  1.2365  0.5385
13600TIP3    H262292   5.158   6.439  13.437  0.2556  0.7248  0.3454
13601TIP3   OH262293   0.765   6.146   4.367 -0.1005  0.1991  0.0167
13601TIP3    H162294   0.731   6.210   4.305 -0.3923 -1.0346 -1.1436
13601TIP3    H262295   0.688   6.116   4.415 -0.0169  0.4627  0.3155
13602TIP3   OH262296   4.845   5.970   0.174  0.1088  0.5762  0.6122
13602TIP3    H162297   4.870   5.899   0.115 -0.0574  1.4067 -0.4809
13602TIP3    H262298   4.830   5.926   0.258  2.2605 -0.3809  0.5745
13603TIP3   OH262299   6.378   3.180   3.212  0.5253 -0.1640 -0.5701
13603TIP3    H162300   6.470   3.190   3.188  0.4284  0.1729 -0.8004
13603TIP3    H262301   6.330   3.222   3.141  0.2212  0.3932 -0.0355
13604TIP3   OH262302   3.955   5.280   5.572  0.4512  0.0483 -0.2019
13604TIP3    H162303   3.949   5.227   5.492 -0.4673  2.1826 -1.6306
13604TIP3    H262304   3.949   5.370   5.541 -0.2060  0.9420  2.3285
13605TIP3   OH262305   5.576   6.395  14.851 -0.0589 -0.2213  0.5301
13605TIP3    H162306   5.588   6.324  14.788  1.5965  0.0054  0.5639
13605TIP3    H262307   5.510   6.362  14.912  0.7555 -1.7624  0.6077
13606TIP3   OH262308   2.508   4.790  16.099  0.5032  0.2433 -0.4847
13606TIP3    H162309   2.421   4.811  16.064 -0.8763 -2.1776  1.1329
13606TIP3    H262310   2.556   4.872  16.094 -1.8724  1.7075 -1.4412
13607TIP3   OH262311   0.926   1.764   5.117  0.2949  0.5898 -0.1766
13607TIP3    H162312   0.970   1.738   5.036 -0.9921 -0.3971 -0.5857
13607TIP3    H262313   0.845   1.805   5.089 -0.8157 -0.9745  0.6031
13608TIP3   OH262314   5.122   0.862   4.460 -0.3930  0.1031  0.2742
13608TIP3    H162315   5.186   0.869   4.531  0.7384 -0.3098 -0.6843
13608TIP3    H262316   5.162   0.910   4.387 -1.9389  1.3055  0.1681
13609TIP3   OH262317   1.285   3.239  15.682 -0.1862  0.1624 -0.0835
13609TIP3    H162318   1.303   3.301  15.611 -0.0662 -0.8491 -0.9593
13609TIP3    H262319   1.349   3.169  15.669 -0.3671 -0.1894  0.8452
13610TIP3   OH262320   6.328   3.057  15.482 -0.3856 -0.1469  0.2463
13610TIP3    H162321   6.282   3.124  15.430 -0.5476 -0.5181 -0.0950
13610TIP3    H262322   6.420   3.084  15.480 -0.3678 -0.2472 -0.3702
13611TIP3   OH262323   0.403   6.116  16.356  0.1222  0.5396  0.4013
13611TIP3    H162324   0.475   6.147  16.411 -0.8565  1.9706  0.9683
13611TIP3    H262325   0.325   6.132  16.409 -0.7374  0.4960 -0.8074
13612TIP3   OH262326   5.626   5.090   1.865  0.3714 -0.5663 -0.6092
13612TIP3    H162327   5.599   4.999   1.870 -0.2025 -0.6694 -3.5392
13612TIP3    H262328   5.697   5.090   1.800  0.6901  0.9964 -0.3084
13613TIP3   OH262329   5.827   6.543   3.107  0.2320 -0.3747  0.7102
13613TIP3    H162330   5.875   6.591   3.175  0.9620  1.5428 -1.0634
13613TIP3    H262331   5.737   6.540   3.139  0.3280  1.5099  1.2473
13614TIP3   OH262332   0.206   0.805   3.784  0.2695 -0.0136  0.4689
13614TIP3    H162333   0.116   0.833   3.798 -0.2701 -1.3458 -0.1266
13614TIP3    H262334   0.257   0.886   3.785 -1.2609  1.0714 -1.6888
13615TIP3   OH262335   0.215   0.883   4.441  0.1924 -0.1863  0.8987
13615TIP3    H162336   0.172   0.817   4.496 -0.9248 -0.8539 -0.6999
13615TIP3    H262337   0.239   0.835   4.361  0.2367  1.1344  0.0983
13616TIP3   OH262338   1.398   2.459  15.343 -0.3754 -0.2035 -0.3231
13616TIP3    H162339   1.476   2.404  15.347 -0.4230 -0.2187  0.5439
13616TIP3    H262340   1.403   2.515  15.421 -0.9420  0.1856 -0.5516
13617TIP3   OH262341   4.072   5.141  15.961  0.2574  0.7147 -0.0617
13617TIP3    H162342   4.065   5.065  16.020 -1.8635  0.7440 -0.2029
13617TIP3    H262343   4.003   5.200  15.990 -0.6984  0.8436 -2.4008
13618TIP3   OH262344   4.667   6.754   4.427 -0.0466  0.3507  0.6568
13618TIP3    H162345   4.609   6.718   4.494  1.2483 -0.2860  1.4763
13618TIP3    H262346   4.675   6.686   4.361 -0.5582  0.6018  0.3337
13619TIP3   OH262347   6.155   1.210   0.101 -0.4155 -0.8285 -0.3007
13619TIP3    H162348   6.175   1.139   0.162 -0.0970 -0.5896 -0.1252
13619TIP3    H262349   6.235   1.262   0.097 -0.4104 -0.8785 -0.9817
13620TIP3   OH262350   1.398   3.758  11.190 -0.2908 -0.0385  0.1188
13620TIP3    H162351   1.396   3.806  11.272  0.1459  1.6154 -0.7902
13620TIP3    H262352   1.341   3.683  11.204 -0.8471  0.6437  1.6604
13621TIP3   OH262353   3.390   0.917  16.007 -0.0731 -0.1052  0.5723
13621TIP3    H162354   3.320   0.973  16.040 -1.2232 -1.3710  0.3223
13621TIP3    H262355   3.412   0.955  15.922  0.7945  1.3332  1.3809
13622TIP3   OH262356   3.264   0.885   5.590  0.5672 -0.6579  0.2326
13622TIP3    H162357   3.317   0.831   5.648 -1.1094 -1.0736  1.4716
13622TIP3    H262358   3.186   0.905   5.642 -0.2666  0.3220 -1.3353
13623TIP3   OH262359   3.765   2.762   6.483 -0.5570 -0.4651  0.0396
13623TIP3    H162360   3.836   2.821   6.459 -0.8969 -0.4591 -0.9967
13623TIP3    H262361   3.700   2.818   6.526 -1.7996  0.3640 -2.7327
13624TIP3   OH262362   0.702   1.680  13.181 -0.6885  0.0934  0.2349
13624TIP3    H162363   0.660   1.622  13.118 -0.4478 -1.0895  1.1220
13624TIP3    H262364   0.791   1.690  13.148 -0.0856 -1.7857  1.1345
13625TIP3   OH262365   3.774   4.609   3.115  0.2414  0.3839 -0.9516
13625TIP3    H162366   3.771   4.582   3.023 -2.1088 -0.0370 -0.8072
13625TIP3    H262367   3.702   4.671   3.125  0.6138  0.6270  0.5674
13626TIP3   OH262368   1.980   4.686  15.512  0.0434  0.1711  0.4988
13626TIP3    H162369   2.043   4.694  15.441  1.6447 -0.5024  1.7856
13626TIP3    H262370   1.896   4.674  15.468  0.7633  1.1632 -1.2664
13627TIP3   OH262371   3.467   6.188  12.878 -0.0235 -0.0411 -0.2194
13627TIP3    H162372   3.431   6.222  12.796  1.6138 -0.1886 -1.0598
13627TIP3    H262373   3.416   6.230  12.947 -0.6295  1.0478 -1.3010
13628TIP3   OH262374   2.988   6.812   1.220  0.1295 -0.0842 -0.1818
13628TIP3    H162375   3.021   6.793   1.307  1.7139 -2.2965 -1.1687
13628TIP3    H262376   2.938   6.734   1.196 -0.7233  0.7046 -1.0606
13629TIP3   OH262377   4.403   2.825  15.844  0.1362 -0.5446 -0.0122
13629TIP3    H162378   4.362   2.912  15.847  0.3100 -0.4220 -1.1110
13629TIP3    H262379   4.462   2.824  15.919  1.4449  0.9509 -0.9756
13630TIP3   OH262380   1.001   1.866   2.377 -0.3000  0.2990 -0.3286
13630TIP3    H162381   0.957   1.948   2.400 -0.2885  0.3417 -0.4593
13630TIP3    H262382   1.087   1.893   2.345  0.7549  0.1069  2.0890
13631TIP3   OH262383   2.907   5.259   4.777 -0.7229  0.1013 -0.4166
13631TIP3    H162384   2.926   5.172   4.741 -1.9187 -0.3696  0.0161
13631TIP3    H262385   2.848   5.241   4.851  1.3198  1.0646  1.5571
13632TIP3   OH262386   5.080   4.000  14.273 -0.6087 -0.1340 -0.1563
13632TIP3    H162387   5.107   3.998  14.365 -2.3292 -0.5872  0.3606
13632TIP3    H262388   4.989   4.028  14.275 -1.5082 -2.7114 -1.5044
13633TIP3   OH262389   4.300   0.600  11.854 -0.2154  0.0887 -0.6159
13633TIP3    H162390   4.340   0.675  11.899 -0.2696 -0.5900  0.5998
13633TIP3    H262391   4.206   0.608  11.874 -0.1430 -0.6522  0.0849
13634TIP3   OH262392   6.354   6.564  11.168  0.1166 -0.5438 -0.1423
13634TIP3    H162393   6.409   6.505  11.117  0.9414 -0.9326  1.1428
13634TIP3    H262394   6.386   6.555  11.258 -1.2124  0.1927  0.4376
13635TIP3   OH262395   5.970   3.644   4.887  0.2466 -0.0854 -0.3588
13635TIP3    H162396   5.985   3.590   4.965  1.5235 -0.3219 -0.7381
13635TIP3    H262397   5.875   3.655   4.884  0.1239 -0.5524  0.9025
13636TIP3   OH262398   0.544   5.472   1.547 -0.0282 -0.3939 -0.9244
13636TIP3    H162399   0.587   5.502   1.467 -0.1258 -0.7450 -1.1124
13636TIP3    H262400   0.563   5.378   1.549 -1.2178 -0.6586 -1.2838
13637TIP3   OH262401   2.179   5.340   1.415 -0.5567  0.5994 -0.4401
13637TIP3    H162402   2.244   5.374   1.354 -1.2781 -0.2551 -1.7446
13637TIP3    H262403   2.128   5.277   1.363 -1.6248  0.3273  0.8733
13638TIP3   OH262404   5.929   5.065  12.614  0.5432 -0.3642 -0.0890
13638TIP3    H162405   5.844   5.044  12.655 -0.1087  0.9362 -0.7341
13638TIP3    H262406   5.929   5.015  12.533 -0.2939  0.7970 -0.8281
13639TIP3   OH262407   6.501   1.766  11.619  0.2894 -0.3080  0.1001
13639TIP3    H162408   6.447   1.803  11.690  1.7285  0.6982  0.7146
13639TIP3    H262409   6.440   1.754  11.547 -0.5254  2.1476  0.2896
13640TIP3   OH262410   6.190   5.356  14.443  0.5252  0.2727  0.2157
13640TIP3    H162411   6.238   5.340  14.362  0.0956  1.9776 -0.4260
13640TIP3    H262412   6.098   5.365  14.415  0.5728  2.5283  0.5935
13641TIP3   OH262413   1.613   2.496   1.170 -0.3457 -0.2528 -0.0065
13641TIP3    H162414   1.587   2.487   1.262  1.3074 -3.7741  0.2940
13641TIP3    H262415   1.531   2.516   1.124 -1.1856  1.8565  2.1686
13642TIP3   OH262416   1.024   1.641   2.030  0.1890  0.0864 -0.0251
13642TIP3    H162417   0.933   1.671   2.028  0.0846 -0.2746 -2.3017
13642TIP3    H262418   1.028   1.571   1.965  1.3786 -2.1748  2.2932
13643TIP3   OH262419   3.575   2.396   2.881 -0.2529  0.5231 -0.4071
13643TIP3    H162420   3.488   2.369   2.910 -0.5678  0.2028 -1.6104
13643TIP3    H262421   3.634   2.332   2.920 -0.5944  0.5024  0.0842
13644TIP3   OH262422   2.222   3.644  11.115  1.1111  0.1854 -0.9008
13644TIP3    H162423   2.303   3.641  11.166  0.8710 -2.6305 -0.5089
13644TIP3    H262424   2.153   3.645  11.181  0.8279  0.5290 -1.2041
13645TIP3   OH262425   1.984   5.190   5.387 -0.3612  0.3427 -0.3415
13645TIP3    H162426   2.052   5.166   5.324  0.6758 -1.4675  1.3329
13645TIP3    H262427   1.932   5.110   5.398 -0.9638  0.8333  0.5318
13646TIP3   OH262428   6.477   0.396  11.393  0.6749  0.0422  0.0313
13646TIP3    H162429   6.546   0.462  11.407  0.3317  0.1443  1.4839
13646TIP3    H262430   6.502   0.352  11.312  1.6779  1.0268 -0.2271
13647TIP3   OH262431   4.737   2.978  10.769 -0.3029 -0.1393  0.3477
13647TIP3    H162432   4.798   3.051  10.760 -0.8533  1.0953  4.3417
13647TIP3    H262433   4.651   3.019  10.772 -0.8946 -1.2922 -0.2175
13648TIP3   OH262434   5.581   4.149   3.844  0.2340  0.0396 -0.0525
13648TIP3    H162435   5.629   4.148   3.927  0.8556  1.2924 -0.3642
13648TIP3    H262436   5.519   4.221   3.854 -1.3698 -1.3180  0.2026
13649TIP3   OH262437   5.633   6.776  12.256 -0.4368  0.3121 -0.0571
13649TIP3    H162438   5.625   6.681  12.265 -0.2121  0.3535  0.5989
13649TIP3    H262439   5.726   6.791  12.236 -0.3813  0.4227  0.2747
13650TIP3   OH262440   4.751   1.729  11.966 -0.1138  0.0129  1.0106
13650TIP3    H162441   4.762   1.651  12.021  0.9657 -0.6416 -0.0760
13650TIP3    H262442   4.840   1.751  11.937 -0.6769 -0.0421 -0.9330
13651TIP3   OH262443   5.360   0.604  11.515  0.0749  0.5764  0.3225
13651TIP3    H162444   5.385   0.517  11.483 -1.1981 -0.1582  1.2193
13651TIP3    H262445   5.417   0.618  11.591 -0.3665  0.0929  0.7505
13652TIP3   OH262446   4.225   2.430  15.694 -0.6102 -0.1686  0.4879
13652TIP3    H162447   4.246   2.415  15.787 -1.0572  1.5497  0.9050
13652TIP3    H262448   4.130   2.442  15.694 -0.7568 -1.1814 -0.3768
13653TIP3   OH262449   3.847   5.684  16.980 -0.0538  0.0600  0.0118
13653TIP3    H162450   3.901   5.713  16.907  0.2407 -0.0302  0.1940
13653TIP3    H262451   3.818   5.766  17.022  0.3793  0.1049  0.2321
13654TIP3   OH262452   1.796   3.359  12.778 -0.3785  0.0217  0.1373
13654TIP3    H162453   1.769   3.350  12.687 -0.5114  0.3946  0.1388
13654TIP3    H262454   1.846   3.279  12.796  0.4834  0.3827 -0.5548
13655TIP3   OH262455   1.645   3.518   3.290 -0.4764  0.3592  0.0069
13655TIP3    H162456   1.597   3.460   3.349 -0.4075  0.8142  0.5235
13655TIP3    H262457   1.589   3.596   3.283  0.5316  1.2437  1.2676
13656TIP3   OH262458   2.211   5.662  12.366 -0.1941  0.6598  0.1676
13656TIP3    H162459   2.223   5.568  12.356  0.9051  0.8829 -0.8858
13656TIP3    H262460   2.127   5.681  12.324  0.3833  0.3675 -1.1606
13657TIP3   OH262461   5.846   4.147   3.774 -0.2412 -0.3650 -0.1480
13657TIP3    H162462   5.854   4.134   3.679  2.7114  0.5053 -0.1280
13657TIP3    H262463   5.755   4.173   3.787 -0.8925 -1.0840 -2.6498
13658TIP3   OH262464   1.249   5.745  10.889  0.5808  0.2343  0.2090
13658TIP3    H162465   1.336   5.780  10.868  0.2341  1.5394  0.8035
13658TIP3    H262466   1.225   5.788  10.971  0.0324 -1.3313  0.9050
13659TIP3   OH262467   6.225   0.699  14.374 -0.3086  0.0682 -0.0870
13659TIP3    H162468   6.281   0.755  14.321 -1.4807  0.8430 -0.5458
13659TIP3    H262469   6.272   0.616  14.381  0.9032  0.7179 -0.4057
13660TIP3   OH262470   5.092   5.320   3.934  0.2827 -0.1925 -0.1174
13660TIP3    H162471   5.025   5.379   3.899 -0.6537 -1.6344 -0.8387
13660TIP3    H262472   5.147   5.376   3.990 -1.4713  1.0430  0.4367
13661TIP3   OH262473   4.279   4.985   2.523 -0.4280 -0.2445  0.4872
13661TIP3    H162474   4.336   4.943   2.587  1.1466 -0.4656 -0.9792
13661TIP3    H262475   4.339   5.033   2.465 -1.9093  1.3676  0.1714
13662TIP3   OH262476   2.717   3.793   1.631  0.5970  0.4024  0.2359
13662TIP3    H162477   2.752   3.766   1.546  0.6560 -1.4626  0.8097
13662TIP3    H262478   2.772   3.748   1.695 -0.4548  0.4691  1.2198
13663TIP3   OH262479   1.037   6.290  13.907 -0.4756 -0.1986  0.1906
13663TIP3    H162480   0.986   6.319  13.831 -1.1311  0.9118  1.0072
13663TIP3    H262481   0.971   6.263  13.970 -0.0122  0.1828  0.8531
13664TIP3   OH262482   5.751   4.335  12.068  0.7513  0.3390 -0.1860
13664TIP3    H162483   5.749   4.426  12.039  2.3090  0.2354 -0.6927
13664TIP3    H262484   5.727   4.284  11.991 -0.3994  0.3156  0.1719
13665TIP3   OH262485   6.817   5.025   0.090  0.0506  0.3579  0.3721
13665TIP3    H162486   6.775   4.955   0.041 -0.3483  0.7713  0.1134
13665TIP3    H262487   6.746   5.064   0.142  0.1936  0.7964  0.2481
13666TIP3   OH262488   5.819   4.350  16.707  0.1499  0.8025  0.0970
13666TIP3    H162489   5.859   4.287  16.767 -0.5948 -1.6778 -1.8361
13666TIP3    H262490   5.874   4.428  16.713  1.6710 -0.3405  1.9436
13667TIP3   OH262491   3.470   6.308   3.264 -0.1040 -0.5633 -0.8940
13667TIP3    H162492   3.496   6.268   3.347 -0.1534 -0.0689 -0.6416
13667TIP3    H262493   3.430   6.391   3.288  2.9810  1.2807 -1.5407
13668TIP3   OH262494   3.077   3.742   0.556 -0.9174  0.4642  0.1840
13668TIP3    H162495   3.069   3.733   0.461 -0.0118  0.1250  0.1345
13668TIP3    H262496   3.103   3.655   0.587  2.0919  1.2941  0.3399
13669TIP3   OH262497   1.135   2.806  16.562  0.5144 -0.2951  0.5872
13669TIP3    H162498   1.139   2.900  16.579  2.0829 -0.8223  4.0718
13669TIP3    H262499   1.041   2.785  16.564 -0.0662  1.4351 -2.7920
13670TIP3   OH262500   3.367   5.639   1.300  0.0886 -0.0557  0.2081
13670TIP3    H162501   3.317   5.615   1.222 -0.6991 -0.4897  0.8322
13670TIP3    H262502   3.302   5.641   1.370  0.9606 -0.7387  1.0533
13671TIP3   OH262503   3.983   5.204   0.255  0.2066 -0.4911  0.6691
13671TIP3    H162504   3.901   5.169   0.291 -0.1246  0.2981  0.7121
13671TIP3    H262505   4.030   5.239   0.331  0.7097 -1.1827  0.6797
13672TIP3   OH262506   1.852   6.198   3.453 -0.2511 -0.1013 -0.1980
13672TIP3    H162507   1.778   6.174   3.508  0.4364  0.6560  1.0964
13672TIP3    H262508   1.813   6.237   3.375 -1.2105  1.0567  0.8354
13673TIP3   OH262509   2.850   1.025   2.850  0.1027  0.0765 -0.1068
13673TIP3    H162510   2.891   0.969   2.916 -1.4936  1.1964  1.9417
13673TIP3    H262511   2.911   1.099   2.840  0.0106  0.2688  0.6965
13674TIP3   OH262512   1.981   4.368  13.272 -0.4442 -0.8604  0.0240
13674TIP3    H162513   1.979   4.320  13.354  2.5937 -0.4211  0.4856
13674TIP3    H262514   2.001   4.302  13.205 -2.0456 -1.0809 -0.2634
13675TIP3   OH262515   3.057   0.271   3.576  0.4103  0.3701 -0.1770
13675TIP3    H162516   3.098   0.293   3.659  0.1165 -0.6611  0.2503
13675TIP3    H262517   3.065   0.176   3.569 -1.1315  0.2379 -0.4938
13676TIP3   OH262518   1.135   3.004  15.156 -0.1394 -0.1117 -0.2191
13676TIP3    H162519   1.201   3.029  15.221 -0.1338  2.4856 -1.1265
13676TIP3    H262520   1.185   2.992  15.075 -0.4308 -1.1677 -0.2571
13677TIP3   OH262521   6.089   3.013  16.309  0.6707  0.0357  0.4287
13677TIP3    H162522   6.099   2.919  16.320  2.4802 -0.1245 -1.9066
13677TIP3    H262523   6.131   3.051  16.387  1.6864 -1.0777  0.4518
13678TIP3   OH262524   5.328   6.578  13.435 -0.3733 -0.4383 -0.0810
13678TIP3    H162525   5.339   6.573  13.341  3.2380 -0.0398  0.1983
13678TIP3    H262526   5.337   6.671  13.456  1.0021 -0.7558  0.8214
13679TIP3   OH262527   5.561   5.558   1.552 -0.2017 -0.2437 -0.1682
13679TIP3    H162528   5.484   5.574   1.497 -3.0074  0.3174  3.5190
13679TIP3    H262529   5.549   5.469   1.584  0.6215 -0.1163  0.5305
13680TIP3   OH262530   5.985   4.575  10.849 -0.2667 -0.1195 -0.1674
13680TIP3    H162531   6.011   4.647  10.790  1.4992 -1.2034 -0.8115
13680TIP3    H262532   6.067   4.548  10.890 -0.9794 -1.4723  0.4110
13681TIP3   OH262533   3.972   2.021   6.404 -0.1533  0.2943  0.0702
13681TIP3    H162534   3.923   2.063   6.475  0.0327 -0.4422  0.6421
13681TIP3    H262535   4.022   1.952   6.447  0.1438 -0.0104 -0.7481
13682TIP3   OH262536   3.183   1.431  16.149  0.0253 -0.0581  0.1961
13682TIP3    H162537   3.108   1.396  16.198 -0.9237  3.8441  1.8839
13682TIP3    H262538   3.242   1.466  16.217  1.0180  1.2366 -1.2738
13683TIP3   OH262539   3.579   5.065  13.526 -0.3233  0.0419  0.1110
13683TIP3    H162540   3.508   5.030  13.579 -0.1095  0.6658  0.8260
13683TIP3    H262541   3.611   5.141  13.575  0.2430  0.3070 -0.6400
13684TIP3   OH262542   1.831   4.929  13.477  0.7203  0.1173  0.3408
13684TIP3    H162543   1.793   4.890  13.398  0.8031 -1.8094  1.1804
13684TIP3    H262544   1.896   4.865  13.506  1.2049  1.1293  1.5630
13685TIP3   OH262545   6.615   5.174   3.507 -0.0229 -0.3600  0.6574
13685TIP3    H162546   6.542   5.124   3.545  1.4857 -1.2379  2.5843
13685TIP3    H262547   6.692   5.140   3.552  1.7045 -0.0340 -1.8836
13686TIP3   OH262548   5.433   4.994  16.319  0.4135 -0.0716  0.1091
13686TIP3    H162549   5.374   4.937  16.269  1.2960 -0.4775 -0.4784
13686TIP3    H262550   5.443   4.950  16.403 -3.0660  1.8183  1.7449
13687TIP3   OH262551   3.404   2.754   6.367 -0.2105 -0.0563 -0.3081
13687TIP3    H162552   3.372   2.807   6.294 -0.1675  1.7122  0.8697
13687TIP3    H262553   3.326   2.732   6.417  0.0527  2.3520  1.3430
13688TIP3   OH262554   5.249   1.177  16.785  0.0022 -0.6474 -0.1463
13688TIP3    H162555   5.273   1.086  16.802  0.2628 -0.5851 -0.1655
13688TIP3    H262556   5.333   1.221  16.768 -0.2205 -0.6395 -1.2939
13689TIP3   OH262557   5.437   5.865  16.157 -0.1360  0.1250  0.1978
13689TIP3    H162558   5.393   5.867  16.072 -0.8674 -0.4610  0.5501
13689TIP3    H262559   5.486   5.783  16.157 -0.6926 -0.2120  0.6062
13690TIP3   OH262560   4.276   3.376  13.767 -0.3218 -0.4091 -0.1590
13690TIP3    H162561   4.354   3.431  13.772 -1.1030  0.7599 -0.2920
13690TIP3    H262562   4.269   3.353  13.675 -1.1106  1.0001 -0.4775
13691TIP3   OH262563   4.152   1.767   4.721 -0.0502  0.2689  0.0579
13691TIP3    H162564   4.126   1.679   4.695  1.2107  0.0027 -0.3838
13691TIP3    H262565   4.154   1.763   4.817  1.4719 -0.6725  0.0310
13692TIP3   OH262566   4.190   2.115  16.052 -0.1790 -0.1743 -0.6821
13692TIP3    H162567   4.251   2.097  16.124 -1.6907 -0.5395  0.5899
13692TIP3    H262568   4.245   2.123  15.975  1.5194  0.1308  0.4951
13693TIP3   OH262569   1.199   0.352  13.990  0.2225 -0.3064  0.1970
13693TIP3    H162570   1.274   0.409  14.008 -0.3330  0.0525  1.5509
13693TIP3    H262571   1.170   0.377  13.902  1.6844 -0.4759 -0.3581
13694TIP3   OH262572   2.693   5.617  17.047  0.0961  0.5064 -0.4967
13694TIP3    H162573   2.651   5.685  16.994 -0.9112 -0.0829 -0.4655
13694TIP3    H262574   2.636   5.541  17.039  0.7115 -0.0463  0.2415
13695TIP3   OH262575   6.351   1.800   2.007 -0.1299  0.2239  0.4083
13695TIP3    H162576   6.405   1.790   1.929 -0.9216 -1.1902  0.0029
13695TIP3    H262577   6.322   1.891   2.004 -0.6292  0.0449 -1.2972
13696TIP3   OH262578   0.654   5.288   4.890 -0.0851  0.0363 -0.3065
13696TIP3    H162579   0.733   5.282   4.943 -1.5709  0.4559  2.0967
13696TIP3    H262580   0.667   5.365   4.835  1.0731  0.2309  0.2233
13697TIP3   OH262581   0.565   6.675   1.474 -0.3049  0.1295  0.1780
13697TIP3    H162582   0.538   6.751   1.423 -0.3944  1.4120  2.0063
13697TIP3    H262583   0.601   6.614   1.410  2.4609  2.8516 -1.1493
13698TIP3   OH262584   2.955   2.517  10.503  0.1987 -0.1691  0.0601
13698TIP3    H162585   2.875   2.548  10.547 -0.3614 -0.0927 -0.9894
13698TIP3    H262586   2.927   2.499  10.413  0.9830 -1.7532  0.1149
13699TIP3   OH262587   1.851   0.893   3.028 -0.0604  0.1080  0.9865
13699TIP3    H162588   1.931   0.861   3.070  0.3689  0.5924  0.5538
13699TIP3    H262589   1.871   0.893   2.935 -0.2292  1.1188  0.9371
13700TIP3   OH262590   0.836   0.558  15.788  0.0584 -0.0333  0.4892
13700TIP3    H162591   0.896   0.576  15.716 -2.1373  2.3163 -0.9068
13700TIP3    H262592   0.814   0.644  15.824 -2.8149 -0.7091  0.6053
13701TIP3   OH262593   5.736   5.305   4.447 -0.4708  0.0819  0.6170
13701TIP3    H162594   5.784   5.247   4.389 -1.6261 -2.9867  2.4810
13701TIP3    H262595   5.682   5.358   4.389  0.8687 -0.4463 -1.2099
13702TIP3   OH262596   3.492   1.028  12.667  0.1284  0.2588  0.0788
13702TIP3    H162597   3.485   1.044  12.573  1.1873 -0.0212 -0.0567
13702TIP3    H262598   3.550   1.097  12.699  0.8435 -0.4251  0.2915
13703TIP3   OH262599   0.501   0.591   3.730 -0.0819  0.4729  0.2698
13703TIP3    H162600   0.414   0.629   3.722  0.3703  1.7015  0.9561
13703TIP3    H262601   0.510   0.534   3.653 -1.1270  1.0592 -0.2989
13704TIP3   OH262602   6.096   4.272   2.801  0.0413 -0.3377 -0.1497
13704TIP3    H162603   6.010   4.270   2.842  0.7694 -1.1680  1.4056
13704TIP3    H262604   6.130   4.183   2.812  1.2706  0.0847 -0.3648
13705TIP3   OH262605   1.587   6.270   5.137  0.1725  0.5216 -0.3773
13705TIP3    H162606   1.660   6.234   5.086 -0.0411 -1.5282  0.6692
13705TIP3    H262607   1.531   6.311   5.071  0.5960 -0.8298 -1.6594
13706TIP3   OH262608   2.873   3.436   1.079 -0.7227 -0.6554  0.5628
13706TIP3    H162609   2.839   3.430   0.990  0.0325  1.5373  0.0888
13706TIP3    H262610   2.819   3.503   1.121  1.5722  1.3834  0.4303
13707TIP3   OH262611   1.469   5.779   3.618 -0.5577  0.5244  0.0922
13707TIP3    H162612   1.393   5.761   3.674  0.3231  0.5459  1.3352
13707TIP3    H262613   1.531   5.823   3.676 -0.3382  2.2851 -1.3938
13708TIP3   OH262614   3.479   4.014  15.933 -0.1186 -0.8300  0.2832
13708TIP3    H162615   3.548   4.008  15.998  0.1992  2.0023  0.3444
13708TIP3    H262616   3.518   4.064  15.861 -1.3416 -1.3685 -0.7915
13709TIP3   OH262617   4.751   4.392   0.700 -0.0511  0.0566  0.3200
13709TIP3    H162618   4.712   4.412   0.615  0.9548  2.7555  0.3883
13709TIP3    H262619   4.679   4.355   0.751 -1.1820  0.2035 -1.1211
13710TIP3   OH262620   4.678   2.139   1.203 -0.1554 -0.2112  0.0764
13710TIP3    H162621   4.599   2.094   1.233 -0.2923  0.4832  0.7878
13710TIP3    H262622   4.709   2.187   1.280  1.9944 -1.8946  0.3754
13711TIP3   OH262623   2.789   5.135   5.870 -0.8627  0.2773 -0.2284
13711TIP3    H162624   2.861   5.181   5.912  0.2347  0.1725 -1.9033
13711TIP3    H262625   2.766   5.189   5.795 -1.4873 -0.4682 -0.5924
13712TIP3   OH262626   3.861   4.201  14.919  0.1884  0.0767  0.2436
13712TIP3    H162627   3.848   4.160  14.833  3.3125 -0.9016  0.1230
13712TIP3    H262628   3.828   4.136  14.981  2.2806 -1.4068 -0.0922
13713TIP3   OH262629   2.941   0.761  14.849 -0.1094 -0.6463 -0.1170
13713TIP3    H162630   2.902   0.674  14.850 -2.2189  0.1064 -2.9947
13713TIP3    H262631   2.880   0.814  14.796  3.2311  1.4537 -2.2393
13714TIP3   OH262632   6.147   3.347   4.748 -0.4851 -0.5151 -0.1443
13714TIP3    H162633   6.072   3.398   4.716  0.4892  0.3686 -1.1487
13714TIP3    H262634   6.124   3.323   4.837 -1.1065  1.5415  0.3106
13715TIP3   OH262635   5.266   6.479   2.610 -0.7394  0.0126 -0.0435
13715TIP3    H162636   5.182   6.501   2.568 -0.5075 -1.2363 -1.2469
13715TIP3    H262637   5.242   6.419   2.680 -0.9268  0.3247  0.1615
13716TIP3   OH262638   3.191   4.251  13.429 -0.3123  0.0587  0.0507
13716TIP3    H162639   3.286   4.238  13.435 -0.4938 -1.1910  0.8270
13716TIP3    H262640   3.178   4.305  13.352  0.8813 -1.9980 -1.7071
13717TIP3   OH262641   4.653   0.621  11.992 -0.3691 -0.4811 -0.3621
13717TIP3    H162642   4.738   0.635  11.951 -0.3457  2.8580  0.5836
13717TIP3    H262643   4.673   0.612  12.086 -1.0098 -0.2408 -0.1958
13718TIP3   OH262644   1.152   4.393  11.604  0.4941  0.0694 -0.4327
13718TIP3    H162645   1.062   4.377  11.575  1.2721  1.3547 -4.1073
13718TIP3    H262646   1.163   4.488  11.597  2.5234 -0.1844 -1.6696
13719TIP3   OH262647   0.024   0.399  12.343 -0.1042  0.1689 -0.0331
13719TIP3    H162648   0.073   0.336  12.395  0.0666  1.0631  0.9261
13719TIP3    H262649  -0.050   0.424  12.399  1.7038  3.4542  1.1911
13720TIP3   OH262650   4.612   4.853  12.504 -0.0494 -0.4392  0.4085
13720TIP3    H162651   4.531   4.811  12.475 -0.8318  2.1494 -1.5387
13720TIP3    H262652   4.680   4.814  12.448 -0.8186  0.9569 -1.6360
13721TIP3   OH262653   4.164   0.322   3.973 -0.1541  0.4101 -0.2953
13721TIP3    H162654   4.249   0.290   3.945  0.3347  0.4777  1.0301
13721TIP3    H262655   4.100   0.263   3.933  0.5352  0.0801 -0.9111
13722TIP3   OH262656   0.053   1.121  11.361 -0.5000 -0.2824 -0.1105
13722TIP3    H162657  -0.031   1.077  11.374 -0.0520 -1.1467 -0.0113
13722TIP3    H262658   0.046   1.202  11.412 -1.0289 -0.6678  0.4536
13723TIP3   OH262659   0.140   3.071  15.642 -0.9420  0.5759 -0.0658
13723TIP3    H162660   0.045   3.083  15.641 -1.0154  0.3332  1.4705
13723TIP3    H262661   0.152   2.980  15.613 -1.2038  0.5178 -0.0019
13724TIP3   OH262662   1.349   1.019  10.549 -0.1341 -0.2374 -0.9414
13724TIP3    H162663   1.290   1.078  10.502 -1.0623  0.2581  0.7483
13724TIP3    H262664   1.376   1.068  10.626  1.4315 -0.9808 -0.9772
13725TIP3   OH262665   0.992   5.530  15.017 -0.3925  0.1519 -0.0583
13725TIP3    H162666   1.069   5.477  15.033 -0.7673 -0.4556 -0.2506
13725TIP3    H262667   0.919   5.476  15.046 -0.6692  1.2571  1.4808
13726TIP3   OH262668   0.417   2.604  14.557  0.0658 -0.2022 -0.1999
13726TIP3    H162669   0.464   2.688  14.562 -0.2264  0.2024 -2.7040
13726TIP3    H262670   0.398   2.594  14.463 -2.8038 -1.4806  0.4377
13727TIP3   OH262671   5.885   3.003   5.109 -0.3479 -0.0640  0.7245
13727TIP3    H162672   5.850   2.970   5.192 -1.2288  0.0991  0.4268
13727TIP3    H262673   5.838   2.953   5.042 -2.7296  2.6405  0.1951
13728TIP3   OH262674   5.307   1.837   5.629 -0.3620  0.1501  0.3999
13728TIP3    H162675   5.365   1.783   5.682 -0.3872  0.5156  0.8099
13728TIP3    H262676   5.283   1.910   5.686 -1.4949 -0.1668  0.3710
13729TIP3   OH262677   6.560   0.104   3.350  0.0046  0.6296 -0.1966
13729TIP3    H162678   6.519   0.044   3.287  1.2312  1.5091 -1.8977
13729TIP3    H262679   6.486   0.147   3.393 -0.8704 -0.4700 -0.5476
13730TIP3   OH262680   1.150   5.526  17.013  0.6540 -0.1646 -0.3102
13730TIP3    H162681   1.214   5.595  16.994  1.1301 -1.1639 -2.5973
13730TIP3    H262682   1.203   5.450  17.038  0.3365 -0.7089 -1.2408
13731TIP3   OH262683   2.981   2.244   4.507  0.1975  0.4692 -0.5783
13731TIP3    H162684   2.985   2.274   4.598 -0.1212 -1.2900  0.0414
13731TIP3    H262685   3.071   2.252   4.475  0.5568 -0.0374  0.2840
13732TIP3   OH262686   6.399   0.255  15.289  0.7396  0.4941  0.9215
13732TIP3    H162687   6.453   0.208  15.352  1.8877 -0.3627 -0.6178
13732TIP3    H262688   6.388   0.194  15.216 -0.6496  1.3907  0.3301
13733TIP3   OH262689   2.693   2.187   2.438  0.5048 -0.0083  0.0380
13733TIP3    H162690   2.601   2.162   2.450 -0.1717  0.8477 -2.5405
13733TIP3    H262691   2.697   2.278   2.467  0.2720  0.2443 -0.6816
13734TIP3   OH262692   6.662   3.885   4.909  0.3071  0.4107  0.5467
13734TIP3    H162693   6.720   3.942   4.858  0.1407  1.0022  0.9990
13734TIP3    H262694   6.669   3.800   4.867  0.4164  0.8053 -0.2698
13735TIP3   OH262695   0.311   2.498  16.156  0.3824 -0.3976 -0.5335
13735TIP3    H162696   0.346   2.579  16.193  0.8486 -1.6037  1.8299
13735TIP3    H262697   0.360   2.428  16.199 -2.7850 -2.0828  0.6586
13736TIP3   OH262698   5.442   0.283   1.208  0.1855 -0.1618  0.4254
13736TIP3    H162699   5.403   0.351   1.264  2.3369  1.7731 -0.2518
13736TIP3    H262700   5.435   0.318   1.119  1.0032 -1.0252  0.0085
13737TIP3   OH262701   1.948   5.534   2.761 -0.3252 -0.0099  0.0644
13737TIP3    H162702   1.960   5.454   2.709 -0.5650 -1.2568  1.8405
13737TIP3    H262703   2.018   5.592   2.732  1.4567 -1.8322  0.4794
13738TIP3   OH262704   2.938   4.733  11.100  0.4737  0.0900  0.7203
13738TIP3    H162705   2.935   4.650  11.052  0.0119  0.2739  0.4186
13738TIP3    H262706   2.940   4.800  11.031  0.1691  0.3459  0.9570
13739TIP3   OH262707   0.552   0.765  12.555 -0.3554 -0.8141 -0.9257
13739TIP3    H162708   0.470   0.799  12.590  0.8383  0.5866  0.7489
13739TIP3    H262709   0.605   0.843  12.538  0.4683 -1.6553 -2.4437
13740TIP3   OH262710   0.341   4.642  12.639 -0.1020 -0.1341 -0.4932
13740TIP3    H162711   0.416   4.618  12.584  0.1151 -1.2229  0.2357
13740TIP3    H262712   0.300   4.559  12.660 -0.6966  0.3430  0.2682
13741TIP3   OH262713   6.446   5.853   2.768  0.0077 -0.7194 -0.1876
13741TIP3    H162714   6.388   5.777   2.766 -0.0345 -0.7508  1.2586
13741TIP3    H262715   6.414   5.909   2.697  0.3547 -2.2516 -1.5996
13742TIP3   OH262716   2.035   5.154  13.809  0.0586  0.1459 -0.2793
13742TIP3    H162717   2.010   5.141  13.717 -1.2587  2.6657 -0.3520
13742TIP3    H262718   1.952   5.145  13.857  0.5104  0.2071  0.5189
13743TIP3   OH262719   2.039   5.605  13.084  0.1819 -0.3601 -0.0846
13743TIP3    H162720   2.040   5.626  12.990  1.3694  0.6853  0.1310
13743TIP3    H262721   2.052   5.511  13.087 -1.6671 -0.7002 -1.0033
13744TIP3   OH262722   1.062   4.780   0.002 -0.7131 -0.2983 -0.1363
13744TIP3    H162723   1.013   4.768  -0.079  1.7100 -2.2719 -1.4469
13744TIP3    H262724   1.002   4.826   0.060 -3.0577 -0.1167 -2.5387
13745TIP3   OH262725   1.029   2.074   1.630  0.8230 -0.4150 -0.4617
13745TIP3    H162726   1.019   2.123   1.548 -0.5272 -2.2331 -1.4592
13745TIP3    H262727   1.070   1.992   1.604  0.4087 -1.0122  0.7140
13746TIP3   OH262728   2.604   5.201  11.123 -0.4020  0.0596  0.5893
13746TIP3    H162729   2.585   5.252  11.045 -0.4602 -1.1394 -0.2074
13746TIP3    H262730   2.525   5.149  11.138 -0.2527  0.0050  1.2364
13747TIP3   OH262731   1.003   2.314  15.753  0.2466 -0.3147 -0.0895
13747TIP3    H162732   1.096   2.316  15.777  0.2804  1.7210 -0.2126
13747TIP3    H262733   0.983   2.221  15.745  2.4165 -0.8062 -0.6218
13748TIP3   OH262734   1.555   3.360  16.073 -0.4784  0.2548 -0.2731
13748TIP3    H162735   1.486   3.351  16.139  0.5600  0.5535  0.9011
13748TIP3    H262736   1.621   3.295  16.100  0.1698  0.7081 -0.7537
13749TIP3   OH262737   4.330   1.236   4.274  0.4373  0.1910  0.1327
13749TIP3    H162738   4.279   1.304   4.230 -1.7111 -2.5656 -1.9968
13749TIP3    H262739   4.411   1.230   4.224 -0.5086 -0.5591 -1.3740
13750TIP3   OH262740   1.152   3.706   2.483  0.6136  0.1536 -0.3803
13750TIP3    H162741   1.102   3.679   2.561 -0.1909 -0.0944 -0.9688
13750TIP3    H262742   1.165   3.800   2.495  0.1395  0.1941 -0.1340
13751TIP3   OH262743   5.247   6.848  11.787  0.0740 -0.0245 -0.2946
13751TIP3    H162744   5.287   6.934  11.778  1.1690 -0.6351 -1.5664
13751TIP3    H262745   5.165   6.864  11.833  0.7004  1.5640  0.3247
13752TIP3   OH262746   1.250   4.270   3.322 -0.0237 -0.4231  0.0735
13752TIP3    H162747   1.167   4.258   3.277  0.0854 -0.5294 -0.0985
13752TIP3    H262748   1.226   4.280   3.414 -0.0731 -2.5690  0.3295
13753TIP3   OH262749   0.817   6.069   2.242 -0.1824 -0.4025  0.2742
13753TIP3    H162750   0.786   6.132   2.307 -0.4788 -0.4796  0.2114
13753TIP3    H262751   0.908   6.093   2.225 -0.3961  0.2218 -0.0020
13754TIP3   OH262752   1.810   0.649  13.850 -0.0018  0.3901  0.1959
13754TIP3    H162753   1.855   0.646  13.935 -1.2699 -1.2250  0.8573
13754TIP3    H262754   1.870   0.604  13.790  0.1498  0.0380  0.6090
13755TIP3   OH262755   1.426   3.023  15.703  0.2600  0.6021  0.3327
13755TIP3    H162756   1.515   3.008  15.735  0.9291  0.7952 -1.3417
13755TIP3    H262757   1.370   2.997  15.776  1.6271 -1.1639  0.8354
13756TIP3   OH262758   3.463   1.337  16.657  0.2356  0.0940  0.0984
13756TIP3    H162759   3.497   1.249  16.641 -0.0105  0.2179 -1.2180
13756TIP3    H262760   3.439   1.370  16.570 -0.1021  1.2883  0.6205
13757TIP3   OH262761   5.267   0.231  10.811  0.2112 -0.0162 -0.1821
13757TIP3    H162762   5.330   0.283  10.861  1.1361 -1.0530 -0.2314
13757TIP3    H262763   5.319   0.190  10.741 -0.7558  0.1106 -0.9968
13758TIP3   OH262764   1.752   4.577   6.408  0.3953  0.0750  0.0223
13758TIP3    H162765   1.667   4.541   6.382  0.7791  0.1296 -1.4008
13758TIP3    H262766   1.736   4.671   6.419  0.1338 -0.0133  0.4056
13759TIP3   OH262767   1.461   1.786  14.923 -0.1278 -0.2905 -0.7567
13759TIP3    H162768   1.481   1.866  14.971  1.3270 -1.1973  0.2611
13759TIP3    H262769   1.383   1.806  14.872  1.1517  2.3031 -1.8702
13760TIP3   OH262770   3.120   3.976  11.693  0.2044 -0.5573 -0.6671
13760TIP3    H162771   3.187   3.974  11.625  0.8766  2.6525 -0.2293
13760TIP3    H262772   3.038   3.988  11.646  0.0887 -2.4729 -1.0666
13761TIP3   OH262773   0.655   2.372   5.436 -0.0673 -0.0106  0.0577
13761TIP3    H162774   0.589   2.376   5.367 -0.8708 -1.5901  0.6828
13761TIP3    H262775   0.702   2.455   5.429  1.1965 -0.8293 -3.6622
13762TIP3   OH262776   1.060   4.175   1.906 -0.0490 -0.0692 -0.4071
13762TIP3    H162777   0.979   4.187   1.955 -0.0916  0.1429 -0.5300
13762TIP3    H262778   1.079   4.081   1.914 -1.3718 -0.5280 -2.0296
13763TIP3   OH262779   3.194   2.805   5.923 -0.3234  0.2964 -0.0657
13763TIP3    H162780   3.288   2.798   5.907 -0.0138  0.7194  1.4024
13763TIP3    H262781   3.176   2.738   5.989 -1.2078 -0.2785 -0.8576
13764TIP3   OH262782   2.624   5.324  13.516 -0.0129  0.0635 -0.2547
13764TIP3    H162783   2.693   5.333  13.581  2.0822  0.9615 -2.4447
13764TIP3    H262784   2.549   5.291  13.565  1.1306  1.5567  2.7424
13765TIP3   OH262785   5.431   4.911   3.691 -0.2669 -0.4902 -0.1679
13765TIP3    H162786   5.355   4.870   3.650 -0.0509 -0.9471 -0.1163
13765TIP3    H262787   5.399   4.937   3.778 -0.4168 -0.5075 -0.2166
13766TIP3   OH262788   5.281   2.943  11.168 -0.2540  0.5406  0.5170
13766TIP3    H162789   5.319   2.943  11.256  1.8950 -2.0131 -0.2826
13766TIP3    H262790   5.237   2.858  11.162  0.9629 -0.0160 -1.3165
13767TIP3   OH262791   3.038   1.520  12.348  0.1247 -0.2161 -0.3067
13767TIP3    H162792   3.024   1.603  12.393 -1.5605  0.1165 -1.3767
13767TIP3    H262793   2.995   1.530  12.263  1.0271 -1.7199 -0.9896
13768TIP3   OH262794   1.043   0.976  15.912  0.7275 -0.2457  0.0110
13768TIP3    H162795   1.088   0.932  15.984 -0.7301 -0.1697  1.0178
13768TIP3    H262796   1.013   1.059  15.950  0.5699  0.1297 -0.9032
13769TIP3   OH262797   3.349   6.560  14.452  0.5204  0.3265 -0.1500
13769TIP3    H162798   3.368   6.623  14.522  3.4927 -1.2305  0.6198
13769TIP3    H262799   3.337   6.477  14.497 -1.4110 -0.0748 -1.2901
13770TIP3   OH262800   5.523   3.834   4.355  0.3047 -0.1197  0.0456
13770TIP3    H162801   5.473   3.915   4.368 -0.7023 -0.8385  0.7795
13770TIP3    H262802   5.468   3.781   4.297  0.1325 -0.9767  0.9708
13771TIP3   OH262803   4.609   5.024  16.236 -0.5512  0.0106  0.4342
13771TIP3    H162804   4.622   4.987  16.324 -0.5277 -1.3855 -0.1227
13771TIP3    H262805   4.536   4.974  16.200  0.8851 -1.0393 -1.1562
13772TIP3   OH262806   6.717   3.109  13.299  0.8677 -0.4947 -0.5347
13772TIP3    H162807   6.764   3.070  13.373  1.5627 -2.5286 -1.9824
13772TIP3    H262808   6.783   3.117  13.230  0.0717  0.7409 -1.2010
13773TIP3   OH262809   2.913   3.902   3.202  0.2472  0.3976  0.3902
13773TIP3    H162810   2.846   3.967   3.180 -0.7329 -0.3767  1.0194
13773TIP3    H262811   2.986   3.953   3.238 -0.0213  1.2391 -0.2332
13774TIP3   OH262812   1.695   1.279  11.738 -0.6388  0.2049 -0.7180
13774TIP3    H162813   1.788   1.273  11.716  0.1184 -0.4153  2.2529
13774TIP3    H262814   1.659   1.194  11.715 -0.0577 -0.1695 -0.2610
13775TIP3   OH262815   3.656   5.796  14.072 -0.2724  0.0107  0.4078
13775TIP3    H162816   3.658   5.890  14.091  1.6816 -0.1985  1.4155
13775TIP3    H262817   3.660   5.792  13.976 -1.3213  0.9331  0.2898
13776TIP3   OH262818   0.359   2.461   3.106 -0.1341 -0.0431 -0.4251
13776TIP3    H162819   0.365   2.367   3.122 -0.4074 -0.0530 -0.3614
13776TIP3    H262820   0.308   2.468   3.025 -1.3817  0.0787  0.3419
13777TIP3   OH262821   2.701   3.466   3.306  0.3943 -0.6409 -0.1211
13777TIP3    H162822   2.757   3.481   3.229  0.1243  2.3291  0.1302
13777TIP3    H262823   2.620   3.514   3.287  0.5623  0.7522  2.2155
13778TIP3   OH262824   0.183   4.039   0.051 -0.2207 -0.1627  0.7000
13778TIP3    H162825   0.099   4.055   0.095  0.0667 -0.4859  1.3608
13778TIP3    H262826   0.246   4.030   0.121  0.3343 -0.1789  0.2056
13779TIP3   OH262827   6.709   0.336   1.489 -0.0557 -0.0541 -0.2298
13779TIP3    H162828   6.725   0.242   1.477 -0.6039 -0.3577  1.1894
13779TIP3    H262829   6.647   0.341   1.562 -0.5676  1.3938 -0.7234
13780TIP3   OH262830   5.432   0.352  14.453 -0.3694  0.3735 -0.0747
13780TIP3    H162831   5.502   0.405  14.413 -2.0303  1.9310 -1.0756
13780TIP3    H262832   5.471   0.318  14.533  1.7283  0.6840 -0.8921
13781TIP3   OH262833   2.607   3.273   3.490 -0.0767  0.4270 -0.3755
13781TIP3    H162834   2.617   3.356   3.444  1.4112 -0.1667 -1.1977
13781TIP3    H262835   2.531   3.232   3.449 -0.0139  0.8085 -0.8775
13782TIP3   OH262836   1.831   6.750  12.436 -0.3289 -0.1975 -0.2393
13782TIP3    H162837   1.818   6.818  12.502  1.8950 -0.1766  0.2614
13782TIP3    H262838   1.881   6.792  12.367 -0.3743 -0.9002 -0.7128
13783TIP3   OH262839   0.278   2.753  14.084 -0.0961 -0.3453  0.7580
13783TIP3    H162840   0.318   2.773  14.169 -0.3808  0.0969  0.7924
13783TIP3    H262841   0.222   2.828  14.065 -2.3603 -1.6949  1.5816
13784TIP3   OH262842   5.834   4.827  13.435  0.7326  0.6737  0.0080
13784TIP3    H162843   5.924   4.850  13.415  1.2091 -0.9738  0.1383
13784TIP3    H262844   5.783   4.866  13.364  1.8317 -0.4337 -1.4615
13785TIP3   OH262845   1.909   4.214  16.377  0.4236 -0.4522  0.1472
13785TIP3    H162846   1.880   4.300  16.406  0.7828 -0.1012 -0.5131
13785TIP3    H262847   1.964   4.231  16.300  0.2480 -1.2857 -0.1813
13786TIP3   OH262848   4.830   3.984  15.512 -0.1592 -0.0200 -0.0173
13786TIP3    H162849   4.873   3.899  15.508 -0.0579  0.0817 -1.6828
13786TIP3    H262850   4.760   3.979  15.447  1.7154  2.1272 -2.4139
13787TIP3   OH262851   6.237   3.362  16.602 -0.2638  0.0337 -0.2625
13787TIP3    H162852   6.276   3.330  16.520  0.3425  1.9088 -0.7685
13787TIP3    H262853   6.301   3.424  16.636 -0.1673 -1.2579  2.0845
13788TIP3   OH262854   0.274   0.539  14.021 -0.3816 -0.1545 -0.1051
13788TIP3    H162855   0.188   0.559  14.058 -0.3058  0.0973 -0.0637
13788TIP3    H262856   0.322   0.621  14.025  0.6882 -0.8008  2.0497
13789TIP3   OH262857   3.777   0.014   5.762 -0.1753 -0.4086  0.1717
13789TIP3    H162858   3.715  -0.007   5.832 -1.3258 -1.4672 -1.1011
13789TIP3    H262859   3.762   0.106   5.742 -1.8041 -0.7821 -0.4940
13790TIP3   OH262860   5.034   3.195   4.337  0.5007 -0.4135 -0.3514
13790TIP3    H162861   5.025   3.102   4.315 -1.8439 -0.2430 -0.3157
13790TIP3    H262862   4.959   3.237   4.297 -0.6633  0.8516  2.7906
13791TIP3   OH262863   4.059   1.921   0.856 -0.1840 -0.7012  0.1789
13791TIP3    H162864   3.989   1.977   0.822  1.5592  1.5749  0.0539
13791TIP3    H262865   4.062   1.847   0.797 -2.0088 -0.4944 -0.2168
13792TIP3   OH262866   5.414   5.111   0.937  0.4360 -0.1374  0.0852
13792TIP3    H162867   5.474   5.111   1.011  1.1887 -2.7098 -0.4196
13792TIP3    H262868   5.345   5.049   0.962 -0.4561  0.5788 -0.5286
13793TIP3   OH262869   5.582   6.686   3.593  0.4423  0.6465  0.5340
13793TIP3    H162870   5.640   6.761   3.603 -0.8892  1.8035 -0.1260
13793TIP3    H262871   5.552   6.691   3.502 -1.2685  0.5248  1.0635
13794TIP3   OH262872   4.259   4.335   1.697 -0.6623 -0.5915 -1.1616
13794TIP3    H162873   4.250   4.341   1.793  1.5796  0.7162 -0.9645
13794TIP3    H262874   4.169   4.331   1.665 -1.5366  0.6421  0.9168
13795TIP3   OH262875   3.379   2.021   4.456 -0.8624  0.3424 -0.9301
13795TIP3    H162876   3.447   2.088   4.453  0.1852 -0.7232 -2.7968
13795TIP3    H262877   3.426   1.941   4.480 -1.8696 -0.0029 -0.0228
13796TIP3   OH262878   4.341   6.168  13.118  0.2534  0.3159  0.6811
13796TIP3    H162879   4.256   6.210  13.131  0.9381  2.7538 -1.6391
13796TIP3    H262880   4.360   6.124  13.201 -3.5570 -1.0456  1.0272
13797TIP3   OH262881   0.958   2.339   1.489 -0.2305  0.2860 -0.2683
13797TIP3    H162882   0.910   2.415   1.524  0.7945  0.2288  1.4126
13797TIP3    H262883   0.894   2.292   1.436 -0.7176  2.6694 -1.9351
13798TIP3   OH262884   5.540   4.033   2.593 -0.1218  0.0297  0.2509
13798TIP3    H162885   5.499   4.108   2.550 -0.1074  0.5661  1.1481
13798TIP3    H262886   5.602   4.000   2.529 -0.2742  0.6632 -0.2351
13799TIP3   OH262887   2.537   3.746  15.408  0.5157  0.1507 -0.0855
13799TIP3    H162888   2.559   3.687  15.336 -3.2125 -0.3064 -1.0656
13799TIP3    H262889   2.566   3.832  15.377 -1.6834  0.1003 -2.6303
13800TIP3   OH262890   6.148   6.156  14.125 -0.3555 -0.2657  0.1061
13800TIP3    H162891   6.105   6.195  14.202 -1.2096  0.2609 -0.6170
13800TIP3    H262892   6.120   6.211  14.052  1.8479  0.3179 -0.3777
13801TIP3   OH262893   3.341   0.330  14.894 -0.4295 -0.2762 -0.3611
13801TIP3    H162894   3.260   0.381  14.906 -0.8869 -1.4103  1.8035
13801TIP3    H262895   3.319   0.268  14.824 -1.6279 -0.9079  0.5498
13802TIP3   OH262896   0.270   0.902   0.679  0.2728  0.5352  0.5269
13802TIP3    H162897   0.338   0.869   0.620 -0.3133  1.4348 -0.6816
13802TIP3    H262898   0.309   0.980   0.719  0.5735  0.0738  1.1460
13803TIP3   OH262899   0.662   5.083  15.274  0.0102 -0.8289  0.6192
13803TIP3    H162900   0.610   5.132  15.210  0.7129 -0.8336  0.0322
13803TIP3    H262901   0.598   5.052  15.338 -1.2634 -3.5381 -1.7506
13804TIP3   OH262902   4.434   0.243   0.083  0.1879 -0.3617  0.1033
13804TIP3    H162903   4.389   0.172   0.130  1.4467 -0.7863  0.7086
13804TIP3    H262904   4.505   0.269   0.141  2.0332 -1.1473 -1.6640
13805TIP3   OH262905   1.501   5.967  12.349 -0.4658 -0.3825 -0.3840
13805TIP3    H162906   1.543   5.948  12.433 -1.4483 -0.1441  0.1717
13805TIP3    H262907   1.476   6.059  12.354 -3.5318 -1.1288  0.4651
13806TIP3   OH262908   0.504   2.306   0.769  0.3753  0.1680  0.0236
13806TIP3    H162909   0.472   2.300   0.859 -0.1068  0.5255 -0.1157
13806TIP3    H262910   0.435   2.263   0.716  0.3969  0.4339 -0.2244
13807TIP3   OH262911   4.187   3.732  13.232  0.4350  0.1866  0.0613
13807TIP3    H162912   4.170   3.641  13.208  0.8111  0.8479 -3.1812
13807TIP3    H262913   4.128   3.783  13.176  1.0909  1.9875  0.9352
13808TIP3   OH262914   6.462   2.493   5.293 -0.5634 -0.0341 -0.2298
13808TIP3    H162915   6.530   2.537   5.344 -1.0990 -0.4759  0.8980
13808TIP3    H262916   6.490   2.503   5.202 -1.1681  3.5622 -0.1656
13809TIP3   OH262917   1.626   4.372  11.936  0.7719 -0.1226 -0.4215
13809TIP3    H162918   1.642   4.425  12.015  3.6902 -1.3313 -0.0662
13809TIP3    H262919   1.707   4.382  11.885  0.3956 -2.2403 -1.5077
13810TIP3   OH262920   2.343   3.260   5.077  0.2347  0.3674 -0.1923
13810TIP3    H162921   2.290   3.186   5.107  3.0463 -2.3226 -1.3554
13810TIP3    H262922   2.329   3.262   4.983  0.1681  1.3762 -0.1673
13811TIP3   OH262923   4.904   0.382  13.436 -0.3259 -0.3005 -0.4586
13811TIP3    H162924   4.923   0.474  13.454  0.1337 -0.0214 -2.1971
13811TIP3    H262925   4.895   0.343  13.522 -1.0264  1.4679  0.3253
13812TIP3   OH262926   2.021   2.323   2.558 -0.1406 -0.2499  0.5802
13812TIP3    H162927   1.998   2.267   2.484 -1.2704 -0.2659  0.9234
13812TIP3    H262928   2.106   2.360   2.535 -1.1868  1.0479 -1.5132
13813TIP3   OH262929   3.196   5.024   3.732  0.3597  0.1271 -0.0219
13813TIP3    H162930   3.169   4.932   3.740  0.4698  0.1274  0.3951
13813TIP3    H262931   3.190   5.058   3.822  0.9228  0.3575 -0.0687
13814TIP3   OH262932   2.969   0.348  16.524  0.2787  0.0217 -0.2937
13814TIP3    H162933   2.915   0.296  16.583 -0.9363  1.0216 -0.4789
13814TIP3    H262934   3.014   0.283  16.470  0.2797 -0.8645  0.7486
13815TIP3   OH262935   4.018   5.030   2.986 -0.2499  0.2542 -0.0843
13815TIP3    H162936   4.107   5.060   3.008 -0.2882  0.8746 -0.7108
13815TIP3    H262937   4.019   4.936   3.003 -0.3979  0.6996  2.8571
13816TIP3   OH262938   3.185   1.262  14.981  0.1971  0.2568  0.6252
13816TIP3    H162939   3.158   1.183  14.935  1.1591  1.4633 -2.2025
13816TIP3    H262940   3.105   1.314  14.988 -0.2312 -0.4964  1.6192
13817TIP3   OH262941   5.868   2.444  12.708  0.8402  0.2763  0.3988
13817TIP3    H162942   5.780   2.429  12.673  1.3848 -1.5060 -0.3338
13817TIP3    H262943   5.855   2.454  12.802 -0.1143 -0.2948  0.3436
13818TIP3   OH262944   0.661   0.360  16.754  0.2387 -0.1512  0.1620
13818TIP3    H162945   0.730   0.395  16.811  0.9190  0.9989 -1.3200
13818TIP3    H262946   0.580   0.400  16.788  0.5643  0.1229  0.6315
13819TIP3   OH262947   1.718   4.676   0.391  0.0901 -0.6995  0.6436
13819TIP3    H162948   1.806   4.693   0.357  0.5751 -2.1970  1.0513
13819TIP3    H262949   1.661   4.681   0.315  0.6949 -0.8659  0.1708
13820TIP3   OH262950   5.221   2.766  16.464  0.0068  0.6185 -0.7974
13820TIP3    H162951   5.143   2.712  16.471 -0.4535  1.4663  3.1132
13820TIP3    H262952   5.205   2.839  16.523  3.3299  1.3975 -0.6521
13821TIP3   OH262953   5.761   0.264  15.029 -0.2715 -0.2921 -0.2476
13821TIP3    H162954   5.680   0.282  14.981  0.7838  2.4202 -1.2412
13821TIP3    H262955   5.810   0.346  15.023  2.3178 -1.6679  0.7877
13822TIP3   OH262956   1.428   2.397   0.860 -0.5541 -0.8322  0.2140
13822TIP3    H162957   1.402   2.461   0.927 -0.4967  0.5576 -1.0404
13822TIP3    H262958   1.520   2.417   0.843 -0.8536 -0.4398 -1.0333
13823TIP3   OH262959   4.517   0.192   1.459 -0.1395 -0.5882 -0.2885
13823TIP3    H162960   4.459   0.219   1.387  0.3673 -0.0941 -0.5187
13823TIP3    H262961   4.580   0.264   1.467 -2.3244  1.2080  3.0643
13824TIP3   OH262962   5.165   3.037  15.103  0.3825  0.4286 -0.1035
13824TIP3    H162963   5.095   3.100  15.120 -0.4507  0.2074 -2.3547
13824TIP3    H262964   5.227   3.084  15.047  1.4834  0.2513  0.9231
13825TIP3   OH262965   4.579   5.269  16.825 -0.1071  0.2810  0.1624
13825TIP3    H162966   4.487   5.273  16.801  0.0855 -1.4221 -1.0255
13825TIP3    H262967   4.591   5.180  16.860  0.4665  1.4239  3.2201
13826TIP3   OH262968   1.881   6.786   2.494  0.0166  0.1888  0.0693
13826TIP3    H162969   1.812   6.817   2.436  0.9708  1.1292 -0.5948
13826TIP3    H262970   1.943   6.859   2.499  0.9717 -0.6363  0.6420
13827TIP3   OH262971   1.157   3.190   1.108  0.8074  0.6758  0.0330
13827TIP3    H162972   1.247   3.158   1.114  1.1461  1.6103  0.1312
13827TIP3    H262973   1.166   3.283   1.087 -0.1235  0.8717  0.4380
13828TIP3   OH262974   4.524   6.580   4.593 -0.3800 -0.2290 -0.2008
13828TIP3    H162975   4.430   6.576   4.573 -0.2519 -0.2892 -0.8067
13828TIP3    H262976   4.543   6.494   4.632 -0.7397  0.0823  0.6791
13829TIP3   OH262977   5.615   0.348  16.726 -0.3262  0.6922  0.4006
13829TIP3    H162978   5.588   0.344  16.635  0.4617 -2.4446  0.1964
13829TIP3    H262979   5.538   0.378  16.773 -1.8615 -0.9341 -0.9622
13830TIP3   OH262980   5.149   2.402  13.460  0.6458  0.1262 -0.3298
13830TIP3    H162981   5.124   2.338  13.526 -0.1733 -1.2399 -1.9115
13830TIP3    H262982   5.245   2.401  13.461  0.6670 -1.7758 -0.8911
13831TIP3   OH262983   6.384   5.855  17.097  0.0863  0.1239  0.3372
13831TIP3    H162984   6.383   5.810  17.182  1.0966 -2.8653 -1.1179
13831TIP3    H262985   6.291   5.869  17.077 -0.3919 -2.5076  0.3484
13832TIP3   OH262986   3.123   2.233   4.747 -0.1378 -0.1597 -0.2557
13832TIP3    H162987   3.109   2.260   4.838  1.7976  0.7425 -0.1692
13832TIP3    H262988   3.207   2.186   4.749 -0.0381 -0.0605 -1.5866
13833TIP3   OH262989   3.918   3.385  10.259  0.4241  0.2623 -0.5782
13833TIP3    H162990   3.934   3.291  10.267  0.2175  0.3248  0.6682
13833TIP3    H262991   3.823   3.394  10.264  0.4710  0.5818 -0.2566
13834TIP3   OH262992   1.570   1.416  16.417 -0.1765 -0.2560  0.1110
13834TIP3    H162993   1.659   1.422  16.449 -0.2015  0.3982  0.0785
13834TIP3    H262994   1.559   1.324  16.392  1.0171 -0.0396 -1.3830
13835TIP3   OH262995   1.517   6.216  11.960 -0.2081 -0.5419  0.3517
13835TIP3    H162996   1.458   6.140  11.968 -2.4065  1.1358  1.1459
13835TIP3    H262997   1.590   6.196  12.019 -0.3739 -2.3099  0.0158
13836TIP3   OH262998   3.952   5.126   5.352 -0.0409 -0.6031  0.1437
13836TIP3    H162999   4.045   5.122   5.329  0.1748 -2.7912  1.1562
13836TIP3    H263000   3.914   5.183   5.285  2.0342  0.5458 -0.1614
13837TIP3   OH263001   5.829   3.787   1.901 -0.0573  0.3623  0.0871
13837TIP3    H163002   5.871   3.870   1.880 -1.4406  0.6365 -1.9036
13837TIP3    H263003   5.856   3.728   1.830 -2.0411  0.2144 -0.5811
13838TIP3   OH263004   6.380   5.605   0.454 -0.3277  0.3366  0.0617
13838TIP3    H163005   6.471   5.633   0.463  0.1625 -1.1664  0.0624
13838TIP3    H263006   6.371   5.584   0.361  0.4864 -3.0774  0.6226
13839TIP3   OH263007   2.316   5.227   0.609 -0.0807 -0.2828 -0.2357
13839TIP3    H163008   2.288   5.317   0.628  0.0547 -0.6546  1.9874
13839TIP3    H263009   2.255   5.197   0.541 -1.5297  0.7705  0.5320
13840TIP3   OH263010   0.276   2.454   0.449  0.0819  0.1061  0.0952
13840TIP3    H163011   0.212   2.421   0.513 -0.4329  1.3532  0.2693
13840TIP3    H263012   0.358   2.411   0.472 -0.0910  0.5152  1.6282
13841TIP3   OH263013   4.751   0.604  16.066  0.3582  0.2200 -0.1028
13841TIP3    H163014   4.830   0.657  16.057 -0.7732  2.2130  0.9704
13841TIP3    H263015   4.741   0.591  16.161 -1.0367  0.7947 -0.1336
13842TIP3   OH263016   3.440   5.774  15.632  0.0400 -0.3231 -0.7614
13842TIP3    H163017   3.398   5.689  15.645 -0.4586 -0.3172 -2.1020
13842TIP3    H263018   3.378   5.822  15.576  0.7674  0.5587 -0.8236
13843TIP3   OH263019   1.425   3.733   5.347  0.0839 -0.5080 -0.7085
13843TIP3    H163020   1.337   3.699   5.361 -0.7952  1.0356 -2.1000
13843TIP3    H263021   1.458   3.749   5.435 -1.7784  0.6438 -0.1558
13844TIP3   OH263022   1.509   4.281  15.062 -0.3990  0.3910  0.1639
13844TIP3    H163023   1.494   4.253  14.972 -0.7099  0.2314  0.2659
13844TIP3    H263024   1.446   4.351  15.076  1.0278  1.8623 -0.4185
13845TIP3   OH263025   0.626   4.091   4.703 -0.0400  0.2443 -0.1437
13845TIP3    H163026   0.567   4.043   4.762 -1.8531  0.7752 -1.4465
13845TIP3    H263027   0.637   4.033   4.628  0.4624  0.4879 -0.2587
13846TIP3   OH263028   2.033   0.042  11.665 -0.4322  0.1265  0.2386
13846TIP3    H163029   1.950   0.012  11.701 -0.3359  0.6803  0.9365
13846TIP3    H263030   2.008   0.092  11.587 -0.5461 -2.4438 -1.5001
13847TIP3   OH263031   0.932   6.338   5.228 -0.3652  1.1381 -0.0694
13847TIP3    H163032   0.863   6.339   5.294  0.2805 -0.1339  0.6643
13847TIP3    H263033   0.906   6.405   5.165 -1.3984  1.8397  1.0628
13848TIP3   OH263034   2.844   5.280   2.540 -0.2419  0.1091  0.0108
13848TIP3    H163035   2.843   5.328   2.624 -0.3348  1.1789 -0.5846
13848TIP3    H263036   2.927   5.304   2.500  0.8508 -2.1760  0.7623
13849TIP3   OH263037   5.698   3.025  13.776  0.2735 -0.0627 -0.5570
13849TIP3    H163038   5.739   3.072  13.703 -0.6599  1.3698 -0.2001
13849TIP3    H263039   5.741   3.060  13.854  0.9441 -1.2538 -0.3735
13850TIP3   OH263040   6.065   2.359  15.089  0.0766  0.1848  0.2257
13850TIP3    H163041   5.997   2.387  15.027  1.1516  1.0134 -0.6186
13850TIP3    H263042   6.119   2.299  15.039 -1.0316 -1.9349  1.4343
13851TIP3   OH263043   5.385   5.162  16.576 -0.5293  0.1622  0.3188
13851TIP3    H163044   5.422   5.242  16.615 -0.0033  0.5929 -0.9916
13851TIP3    H263045   5.403   5.171  16.483 -0.3209 -1.5746  0.1618
13852TIP3   OH263046   3.275   4.639   1.069 -0.2869  0.0347  0.2562
13852TIP3    H163047   3.252   4.732   1.077 -0.2421 -0.0165  0.9867
13852TIP3    H263048   3.277   4.624   0.974 -1.9060  0.3766  0.1262
13853TIP3   OH263049   5.332   0.529   1.522  0.4004  0.0655 -0.1594
13853TIP3    H163050   5.374   0.595   1.577  0.2338 -1.3055  1.6724
13853TIP3    H263051   5.379   0.448   1.541  0.4688 -0.4308 -2.2189
13854TIP3   OH263052   6.263   6.746  10.892  0.0724 -0.2428 -0.4911
13854TIP3    H163053   6.287   6.791  10.811 -0.2390 -0.7567 -0.8712
13854TIP3    H263054   6.346   6.713  10.927  0.0663 -1.0675 -1.2322
13855TIP3   OH263055   5.519   6.058   5.714  0.0940  0.0467 -0.4599
13855TIP3    H163056   5.553   5.999   5.782  0.7465  0.1783 -0.6695
13855TIP3    H263057   5.469   6.000   5.656 -1.1626  0.0485  0.5500
13856TIP3   OH263058   0.920   4.919  12.706 -0.3924 -0.1467  0.7021
13856TIP3    H163059   0.985   4.968  12.655 -1.6725  0.9941  0.0993
13856TIP3    H263060   0.852   4.896  12.643 -0.3219 -1.8726  1.1914
13857TIP3   OH263061   5.759   4.478   2.846  0.1926 -0.1010 -0.6405
13857TIP3    H163062   5.828   4.535   2.876 -0.6437  1.0460 -0.8325
13857TIP3    H263063   5.750   4.497   2.752 -1.0372  0.5226 -0.4268
13858TIP3   OH263064   2.503   5.882  11.947  0.3552 -0.3543 -0.4803
13858TIP3    H163065   2.445   5.818  11.988 -0.4098  1.3131  1.2073
13858TIP3    H263066   2.444   5.940  11.899  0.5545  1.2236  1.0612
13859TIP3   OH263067   1.281   2.800  11.455 -0.2976  0.5021  0.4485
13859TIP3    H163068   1.252   2.891  11.455 -1.2319  0.2166  0.0518
13859TIP3    H263069   1.295   2.779  11.547 -1.4548  0.6396  0.6764
13860TIP3   OH263070   1.878   1.595   3.955 -0.0642 -0.2224 -0.0487
13860TIP3    H163071   1.881   1.574   4.048  1.2997  0.3127  0.0519
13860TIP3    H263072   1.807   1.658   3.947  0.9989  1.1802  0.9820
13861TIP3   OH263073   1.105   5.846  12.192 -0.6099 -0.2275 -0.1834
13861TIP3    H163074   1.024   5.864  12.144 -0.8340 -0.2954  0.1674
13861TIP3    H263075   1.139   5.766  12.153 -0.2849  0.2460 -0.8800
13862TIP3   OH263076   1.103   2.987   4.159 -0.8595 -0.1652 -0.2649
13862TIP3    H163077   1.095   2.916   4.095 -0.1751 -0.0057 -0.5299
13862TIP3    H263078   1.090   2.944   4.244 -3.1945 -0.1613 -0.5418
13863TIP3   OH263079   3.069   4.265  11.661  0.0834  1.0883  0.3260
13863TIP3    H163080   3.106   4.306  11.740 -1.0306  0.4317  1.2308
13863TIP3    H263081   2.989   4.316  11.644 -0.6409  0.1236  0.7208
13864TIP3   OH263082   3.301   0.024  16.309  0.4891 -0.4826 -0.5866
13864TIP3    H163083   3.369   0.061  16.253  0.9161 -1.6303 -0.8531
13864TIP3    H263084   3.323   0.055  16.397  0.9204 -0.2423 -0.7734
13865TIP3   OH263085   0.541   1.829   5.278 -0.5666  0.0936  0.4908
13865TIP3    H163086   0.451   1.811   5.248 -0.7289  2.9039 -1.1124
13865TIP3    H263087   0.596   1.783   5.215 -0.9393  0.8122 -0.3987
13866TIP3   OH263088   6.058   2.677   3.415  0.1171 -0.4549 -0.0911
13866TIP3    H163089   6.006   2.757   3.407  1.4009  0.5170  0.8933
13866TIP3    H263090   5.998   2.613   3.455 -0.8912  0.0317 -0.8025
13867TIP3   OH263091   1.136   0.943  12.986 -0.0052 -0.4988  0.4302
13867TIP3    H163092   1.145   0.958  12.892  0.5206 -0.4168  0.4910
13867TIP3    H263093   1.138   0.848  12.995 -1.0024 -0.5437  0.2719
13868TIP3   OH263094   0.280   5.022  11.935 -0.1780 -0.1779  0.6676
13868TIP3    H163095   0.211   5.031  11.870  0.8525  1.8032 -0.2564
13868TIP3    H263096   0.299   4.928  11.937 -0.9784 -0.4254 -1.1342
13869TIP3   OH263097   1.819   2.366  11.417 -0.6946 -0.3252 -0.1763
13869TIP3    H163098   1.803   2.433  11.351 -0.0224 -0.9419 -0.9852
13869TIP3    H263099   1.894   2.317  11.384 -0.0758 -0.3938  1.2444
13870TIP3   OH263100   3.029   3.002  11.317 -0.6048  0.2392  0.3737
13870TIP3    H163101   3.116   3.036  11.295 -0.6052  1.2271  1.7217
13870TIP3    H263102   3.038   2.907  11.314  0.4979  0.3352  0.3527
13871TIP3   OH263103   0.832   2.441   5.971 -0.4098 -0.2698 -0.2221
13871TIP3    H163104   0.765   2.378   5.943  1.1904 -1.4625 -1.5674
13871TIP3    H263105   0.859   2.409   6.058 -1.2658 -0.0261  0.1431
13872TIP3   OH263106   5.952   5.803  13.731  0.1013 -0.5542 -0.5081
13872TIP3    H163107   5.995   5.883  13.762 -1.4817 -0.0904  0.6050
13872TIP3    H263108   5.973   5.738  13.798  0.2706 -0.7082 -0.7113
13873TIP3   OH263109   4.142   5.708   1.160 -0.3059 -0.3206  0.2644
13873TIP3    H163110   4.104   5.796   1.160  0.7988  0.1992 -1.1057
13873TIP3    H263111   4.071   5.651   1.189 -0.6794  1.1444  2.5058
13874TIP3   OH263112   2.336   0.027   5.590 -0.7263  0.3616  0.1441
13874TIP3    H163113   2.424   0.027   5.628 -0.8815 -1.6777  0.6409
13874TIP3    H263114   2.328   0.113   5.548  2.4490 -0.2750 -2.1360
13875TIP3   OH263115   6.504   2.325  12.456  0.2324 -0.0977  0.0659
13875TIP3    H163116   6.417   2.358  12.435  0.3418 -0.0052 -0.2460
13875TIP3    H263117   6.554   2.402  12.483 -0.2416 -0.3597  1.8834
13876TIP3   OH263118   4.483   6.661   5.964 -0.4536 -0.4594 -0.1186
13876TIP3    H163119   4.543   6.720   5.919  0.0568  0.0682  1.2145
13876TIP3    H263120   4.396   6.688   5.935 -0.1911  0.5429 -0.0147
13877TIP3   OH263121   3.258   5.945  14.640  0.9407  0.3017 -0.0740
13877TIP3    H163122   3.195   5.999  14.688  0.1127 -1.8642  1.4607
13877TIP3    H263123   3.328   5.929  14.703  0.6247 -1.2520 -0.0608
13878TIP3   OH263124   3.270   6.706   5.742 -0.3415 -0.2270  0.1883
13878TIP3    H163125   3.275   6.619   5.781 -1.5638 -0.3762  0.0488
13878TIP3    H263126   3.299   6.694   5.651 -0.9796 -0.5897  0.0295
13879TIP3   OH263127   4.874   6.160   6.315  0.2210  0.2929  0.6803
13879TIP3    H163128   4.805   6.140   6.378 -1.3921 -1.5990 -1.5089
13879TIP3    H263129   4.883   6.255   6.317 -2.0449  0.5362  1.4616
13880TIP3   OH263130   6.069   4.731  16.951  0.1153  0.1870 -0.2187
13880TIP3    H163131   6.069   4.679  17.031  0.2660 -0.5814 -0.7098
13880TIP3    H263132   5.978   4.730  16.922 -0.1168  1.2297  0.4157
13881TIP3   OH263133   4.066   2.546   4.203  0.4073 -0.6344  0.2916
13881TIP3    H163134   3.972   2.529   4.196  0.1359 -0.5132  2.8045
13881TIP3    H263135   4.076   2.639   4.184  0.8290 -1.4589 -5.1704
13882TIP3   OH263136   2.491   3.298  13.254  0.1638 -0.6543  0.7427
13882TIP3    H163137   2.532   3.249  13.183  0.8590 -1.0209  1.3839
13882TIP3    H263138   2.431   3.236  13.295 -0.3976 -0.3789  0.3516
13883TIP3   OH263139   4.102   4.465   5.243 -0.0712 -0.3790  0.7153
13883TIP3    H163140   4.092   4.559   5.259 -0.6011 -0.2361 -0.3669
13883TIP3    H263141   4.186   4.442   5.283  0.1951  0.6141  0.7385
13884TIP3   OH263142   0.681   3.735  12.753 -0.4051  0.1750 -0.3055
13884TIP3    H163143   0.742   3.664  12.775  0.5244  0.6923 -1.1130
13884TIP3    H263144   0.729   3.789  12.690 -0.0645  2.9600  2.1289
13885TIP3   OH263145   6.577   6.571  13.646  0.4815 -0.4056  0.3303
13885TIP3    H163146   6.525   6.606  13.574  0.8354 -0.5325  0.0083
13885TIP3    H263147   6.513   6.533  13.706  0.1000  0.6307  0.6033
13886TIP3   OH263148   1.456   4.783  12.947 -0.2115 -0.4005 -0.0018
13886TIP3    H163149   1.499   4.698  12.943 -0.7736 -0.6335 -1.9533
13886TIP3    H263150   1.528   4.845  12.957  0.2811 -1.0236  0.4125
13887TIP3   OH263151   1.597   1.930  13.548  0.1994  0.6201 -0.6922
13887TIP3    H163152   1.522   1.988  13.559  0.0286  0.3483 -0.4212
13887TIP3    H263153   1.608   1.888  13.633  0.2977  0.2213 -0.9003
13888TIP3   OH263154   3.842   0.142  15.501  0.5198  0.3009  0.6785
13888TIP3    H163155   3.920   0.095  15.472  0.7176  1.0057  0.0477
13888TIP3    H263156   3.845   0.225  15.454 -0.4140  0.4905  0.9373
13889TIP3   OH263157   2.329   1.757   5.706  0.3547  0.3905 -0.0770
13889TIP3    H163158   2.343   1.683   5.765  1.5059  0.5657 -0.1004
13889TIP3    H263159   2.378   1.734   5.627  1.3042  1.4699  0.1757
13890TIP3   OH263160   1.085   0.668  16.359 -0.1879 -0.2763 -0.8370
13890TIP3    H163161   1.062   0.583  16.398 -2.2518  0.9860  0.9876
13890TIP3    H263162   1.010   0.690  16.304  0.7027  0.0246 -1.9599
13891TIP3   OH263163   0.758   2.288   6.193 -0.0034 -0.1140  0.1707
13891TIP3    H163164   0.775   2.272   6.285 -0.1222 -0.8305  0.0808
13891TIP3    H263165   0.662   2.291   6.187 -0.1511 -2.7555 -0.2956
13892TIP3   OH263166   0.083   2.509  12.184 -0.3095  0.1932  0.2059
13892TIP3    H163167   0.113   2.576  12.122  0.4283  0.4252  0.8004
13892TIP3    H263168   0.160   2.490  12.238 -0.7363 -0.5503  0.5698
13893TIP3   OH263169   0.975   0.941   5.494  0.3232  0.4132  0.2860
13893TIP3    H163170   0.968   0.995   5.415 -2.6769  0.3411  0.3662
13893TIP3    H263171   0.984   0.852   5.460 -1.5272  0.3193 -0.0587
13894TIP3   OH263172   5.848   3.953  11.754 -0.0367 -0.2078  0.0667
13894TIP3    H163173   5.882   3.889  11.817  1.3401  0.8431  0.4541
13894TIP3    H263174   5.900   3.937  11.675 -0.3041 -0.1482 -0.1193
13895TIP3   OH263175   4.979   4.156  13.922  0.3138  0.1873  0.1913
13895TIP3    H163176   4.928   4.079  13.947 -1.7170  0.2634 -3.1696
13895TIP3    H263177   5.059   4.149  13.974 -1.2534 -2.2503  2.5961
13896TIP3   OH263178   6.448   4.471   4.094  0.9115 -1.0093 -0.1395
13896TIP3    H163179   6.441   4.481   4.189  1.2061 -1.1891 -0.0987
13896TIP3    H263180   6.500   4.546   4.065  0.1277 -0.5015 -0.2612
13897TIP3   OH263181   6.220   5.623  12.418  0.4916 -0.3654  0.5714
13897TIP3    H163182   6.129   5.631  12.448  0.6345 -1.7550  1.4599
13897TIP3    H263183   6.260   5.560  12.479  1.4765 -1.4017 -1.0888
13898TIP3   OH263184   0.385   3.425  12.286 -0.1164 -0.4339 -0.5221
13898TIP3    H163185   0.446   3.479  12.236 -0.9456  0.6539 -0.3911
13898TIP3    H263186   0.326   3.388  12.220 -0.6429  0.2597 -0.4444
13899TIP3   OH263187   5.843   4.597   4.569 -0.3513  0.7784 -0.7585
13899TIP3    H163188   5.795   4.679   4.556 -2.5438 -0.3937 -0.4377
13899TIP3    H263189   5.819   4.543   4.494 -2.0349 -0.9537  0.9449
13900TIP3   OH263190   6.544   6.293   0.873  0.5130 -0.1045 -0.1607
13900TIP3    H163191   6.472   6.238   0.905 -0.4130  0.5558 -1.0756
13900TIP3    H263192   6.588   6.323   0.953  0.1776 -1.0225  0.3906
13901TIP3   OH263193   6.378   5.330   4.870  0.8313  0.5100 -0.1801
13901TIP3    H163194   6.410   5.347   4.959  1.7372 -1.1889 -0.1534
13901TIP3    H263195   6.302   5.273   4.883 -0.7576  2.4657 -0.3918
13902TIP3   OH263196   1.168   2.016   3.711 -0.2962 -0.7094  0.2017
13902TIP3    H163197   1.130   2.049   3.792  0.0607 -2.1455  0.9952
13902TIP3    H263198   1.263   2.021   3.726 -0.1366  1.2347 -1.0903
13903TIP3   OH263199   0.295   2.363  12.634  0.3251 -0.0806 -0.1849
13903TIP3    H163200   0.323   2.307  12.707  0.9361  3.1479  2.3251
13903TIP3    H263201   0.376   2.390  12.592  0.2833  0.9355  0.3424
13904TIP3   OH263202   5.280   6.115   2.568  0.1173  0.0926 -0.0426
13904TIP3    H163203   5.233   6.036   2.593  1.6435 -0.7057  0.4371
13904TIP3    H263204   5.214   6.171   2.528 -2.0051  0.3984  3.4134
13905TIP3   OH263205   1.598   5.112   0.276  0.3789 -0.4833 -0.4081
13905TIP3    H163206   1.564   5.092   0.189  0.4346  3.6998 -1.5944
13905TIP3    H263207   1.528   5.159   0.319  1.4065  0.0861  0.6997
13906TIP3   OH263208   2.889   0.976  15.140  0.6712 -0.0046  0.3361
13906TIP3    H163209   2.887   1.025  15.223  0.1664 -0.5038  0.6219
13906TIP3    H263210   2.802   0.987  15.103  0.8876  0.1919 -0.1186
13907TIP3   OH263211   3.858   2.843  13.053  0.2507  0.6174 -0.4295
13907TIP3    H163212   3.764   2.832  13.067  0.4189 -1.4870 -0.6553
13907TIP3    H263213   3.872   2.938  13.055 -1.9536  0.9971 -0.9653
13908TIP3   OH263214   2.444   1.335  11.775 -0.1953 -0.3653  0.9372
13908TIP3    H163215   2.510   1.402  11.791  0.1008 -0.4494  0.1305
13908TIP3    H263216   2.413   1.352  11.686  0.6261 -1.9134  0.3193
13909TIP3   OH263217   6.662   1.847   5.108  0.1381 -0.5388  0.2940
13909TIP3    H163218   6.639   1.762   5.070  0.2988 -0.0091 -1.0513
13909TIP3    H263219   6.710   1.892   5.038 -0.1317  0.7423  0.9035
13910TIP3   OH263220   6.542   5.305  12.975 -0.0291  0.2156  0.1430
13910TIP3    H163221   6.630   5.307  12.939  0.0284  0.4746  0.2931
13910TIP3    H263222   6.487   5.275  12.902  0.2986 -0.8403  0.3171
13911TIP3   OH263223   1.776   0.014   2.007 -0.0414 -0.4260  0.6698
13911TIP3    H163224   1.765  -0.059   1.946  0.7081 -0.8962  1.0826
13911TIP3    H263225   1.720   0.083   1.972  0.8867 -0.4492 -0.9180
13912TIP3   OH263226   2.722   5.370   5.699  0.2768 -0.5641 -0.4664
13912TIP3    H163227   2.709   5.438   5.765 -0.0094 -1.4809  0.4557
13912TIP3    H263228   2.801   5.397   5.652  1.2519 -0.5350  1.1179
13913TIP3   OH263229   4.241   1.019   0.823  0.3033 -0.2061  0.3983
13913TIP3    H163230   4.303   1.053   0.757  0.5157  0.5726  0.9846
13913TIP3    H263231   4.262   0.926   0.829  0.6603 -0.1749 -0.2263
13914TIP3   OH263232   1.024   6.278  12.271  0.0472 -0.2434  0.5131
13914TIP3    H163233   0.990   6.366  12.285  2.7053  1.0152 -0.2241
13914TIP3    H263234   0.999   6.256  12.181  1.6456  0.9736 -0.2832
13915TIP3   OH263235   6.107   1.206   2.425 -0.3895 -0.3502  0.0330
13915TIP3    H163236   6.120   1.180   2.334 -0.4153  1.3990 -0.4983
13915TIP3    H263237   6.099   1.123   2.472 -2.1259 -1.3162 -1.7862
13916TIP3   OH263238   5.331   3.536   4.710 -0.5473  0.0325  0.1492
13916TIP3    H163239   5.320   3.580   4.625  0.8626  0.7867  0.3306
13916TIP3    H263240   5.323   3.606   4.774 -2.6996 -0.6970  0.7545
13917TIP3   OH263241   4.135   1.649  15.334  0.6905  0.1881  0.1246
13917TIP3    H163242   4.159   1.620  15.246 -3.0369  0.5385 -1.2025
13917TIP3    H263243   4.059   1.595  15.356 -0.4122  2.2864  1.7376
13918TIP3   OH263244   3.399   1.790  13.442 -0.0125  0.1013  0.2743
13918TIP3    H163245   3.471   1.851  13.459 -1.1256  2.1376 -1.5972
13918TIP3    H263246   3.335   1.809  13.511  0.0966  0.3329  0.3145
13919TIP3   OH263247   0.702   0.545  17.054 -0.1487  0.0980  0.2652
13919TIP3    H163248   0.624   0.555  16.999  0.2466  0.6396 -0.2102
13919TIP3    H263249   0.681   0.473  17.113 -0.1390 -1.3059 -1.3761
13920TIP3   OH263250   2.345   4.802   6.820 -0.4916  0.0577 -0.1084
13920TIP3    H163251   2.276   4.843   6.872 -1.0684  0.5768 -1.2442
13920TIP3    H263252   2.355   4.715   6.857 -1.4554  0.1323  0.3590
13921TIP3   OH263253   2.819   5.460  14.890 -0.5165  0.4064 -0.4199
13921TIP3    H163254   2.770   5.414  14.958  2.4495 -0.4184  1.3246
13921TIP3    H263255   2.850   5.390  14.832 -2.1156  1.0123 -2.1086
13922TIP3   OH263256   3.082   2.924  14.573  0.1704 -0.1024  0.8604
13922TIP3    H163257   3.084   2.841  14.526  0.9796 -0.3120  1.2647
13922TIP3    H263258   3.122   2.906  14.658  0.4287  0.7069  0.9227
13923TIP3   OH263259   2.453   5.800  16.108 -0.2287 -0.4953 -0.1505
13923TIP3    H163260   2.377   5.770  16.157  0.2291  0.1774  1.0303
13923TIP3    H263261   2.517   5.730  16.118  0.0746 -0.1079  0.7602
13924TIP3   OH263262   1.270   3.355   5.991  0.2282  0.1127  0.1652
13924TIP3    H163263   1.350   3.390   5.954  0.5081 -1.2425 -0.5539
13924TIP3    H263264   1.294   3.332   6.081  0.2452  1.0032  0.4016
13925TIP3   OH263265   0.287   1.892  16.881 -0.9180 -0.4566 -0.2946
13925TIP3    H163266   0.250   1.968  16.838 -0.1056 -0.9153 -1.8768
13925TIP3    H263267   0.381   1.897  16.864 -0.6554 -1.0460  0.8318
13926TIP3   OH263268   4.003   2.373  13.525 -0.8595  0.2290 -0.1636
13926TIP3    H163269   4.027   2.340  13.611  1.1889 -1.4864 -1.2868
13926TIP3    H263270   3.994   2.468  13.537  0.3321  0.1487  1.7475
13927TIP3   OH263271   1.402   6.113   2.821  0.4662 -0.1229 -0.2274
13927TIP3    H163272   1.412   6.163   2.903 -0.1858  0.0330 -0.2415
13927TIP3    H263273   1.427   6.024   2.845  0.3358 -0.0668  0.1335
13928TIP3   OH263274   4.744   6.253  10.956  0.1824  0.0484  0.0540
13928TIP3    H163275   4.692   6.175  10.976 -0.6170  0.8255  1.1506
13928TIP3    H263276   4.819   6.221  10.906 -0.6284 -1.2859 -0.3279
13929TIP3   OH263277   5.813   2.819  13.596  0.0304 -0.6744 -0.8909
13929TIP3    H163278   5.864   2.862  13.527  1.7186  1.0102  1.2457
13929TIP3    H263279   5.736   2.874  13.608  0.7177  0.1494 -0.1511
13930TIP3   OH263280   2.163   1.472  16.565 -0.1547 -0.3564  0.0813
13930TIP3    H163281   2.251   1.459  16.601  0.1499 -0.4010 -0.6747
13930TIP3    H263282   2.158   1.414  16.489 -0.6295  0.0728 -0.2272
13931TIP3   OH263283   1.463   3.247  12.644 -0.0891  0.7126 -0.1609
13931TIP3    H163284   1.383   3.295  12.622  0.0056  0.7063 -0.5185
13931TIP3    H263285   1.483   3.273  12.734 -0.4103  0.8288 -0.1242
13932TIP3   OH263286   6.543   4.423   0.408 -0.8616  0.1043 -0.1652
13932TIP3    H163287   6.502   4.338   0.425  0.5724 -0.8416 -1.1760
13932TIP3    H263288   6.571   4.454   0.494 -0.4570 -0.9669  0.1101
13933TIP3   OH263289   1.968   5.339   2.296  0.1264  0.1767  0.0851
13933TIP3    H163290   2.034   5.272   2.311 -0.8601 -1.2873 -1.6911
13933TIP3    H263291   2.015   5.410   2.251  0.6920 -0.4196 -0.2812
13934TIP3   OH263292   4.326   5.794   3.375 -0.0928  0.4378  0.2180
13934TIP3    H163293   4.412   5.836   3.385  0.6266 -0.7895 -0.6265
13934TIP3    H263294   4.277   5.854   3.319  0.8217  0.3439 -0.7275
13935TIP3   OH263295   1.014   5.572  16.207  0.0895 -0.0939  0.6447
13935TIP3    H163296   1.042   5.526  16.127 -0.1336  0.8195  0.0286
13935TIP3    H263297   1.064   5.530  16.277 -0.5001 -1.6457  0.1843
13936TIP3   OH263298   3.477   1.146  14.326 -0.2264  0.3569  0.0603
13936TIP3    H163299   3.431   1.175  14.247 -3.2681  1.1835  1.9680
13936TIP3    H263300   3.554   1.101  14.293 -0.7918  1.5620 -3.3425
13937TIP3   OH263301   6.164   3.094  12.773  0.1179 -0.2340  0.1093
13937TIP3    H163302   6.081   3.049  12.758  0.5262 -1.3795  1.1389
13937TIP3    H263303   6.149   3.148  12.850 -0.0740  0.6896 -0.5491
13938TIP3   OH263304   3.411   1.500   5.506 -0.5035  0.0722  0.5912
13938TIP3    H163305   3.343   1.496   5.574 -0.3498  1.0459  0.8105
13938TIP3    H263306   3.442   1.590   5.508  2.6428 -0.9056  2.3106
13939TIP3   OH263307   1.142   4.124   4.714  0.5693  0.2697 -0.0467
13939TIP3    H163308   1.182   4.084   4.790 -0.1138  0.1569  0.2627
13939TIP3    H263309   1.051   4.093   4.715  0.4344  0.6182 -0.6519
13940TIP3   OH263310   0.099   6.318   2.958 -0.0500  0.3042  0.1826
13940TIP3    H163311   0.127   6.354   2.874 -0.7986 -0.2521 -0.3141
13940TIP3    H263312   0.012   6.354   2.972 -0.0097  0.2375  0.6362
13941TIP3   OH263313   0.230   5.160   0.345  0.4273  0.2630 -0.2281
13941TIP3    H163314   0.160   5.203   0.295 -0.3125 -0.0957  0.4830
13941TIP3    H263315   0.185   5.116   0.417  1.2562 -1.0232 -0.4625
13942TIP3   OH263316   3.222   2.668   5.384 -0.1415  0.1410  0.9015
13942TIP3    H163317   3.146   2.611   5.392 -0.0091 -0.0941  0.4952
13942TIP3    H263318   3.203   2.742   5.441  0.0570 -0.7082  2.0958
13943TIP3   OH263319   3.796   2.746  14.020 -0.0337 -0.0687 -0.3915
13943TIP3    H163320   3.740   2.684  14.066 -0.3894  0.4836 -0.0575
13943TIP3    H263321   3.838   2.798  14.089  0.7152 -0.3202 -0.6455
13944TIP3   OH263322   1.792   2.513   2.570  0.0772 -0.2973 -0.1914
13944TIP3    H163323   1.728   2.467   2.626 -0.6111  0.2805 -0.4918
13944TIP3    H263324   1.867   2.454   2.568  0.1895 -0.2786  1.4696
13945TIP3   OH263325   0.444   4.935   1.293 -0.1164 -0.7387  0.1427
13945TIP3    H163326   0.364   4.924   1.343 -0.0683  0.2587  0.4541
13945TIP3    H263327   0.437   5.023   1.255  0.2020 -1.1717 -0.9652
13946TIP3   OH263328   3.564   3.812  14.988  0.1148 -0.1997 -0.1227
13946TIP3    H163329   3.543   3.721  14.966 -0.2951 -0.4282  1.1390
13946TIP3    H263330   3.512   3.831  15.066  0.7735  0.8730  0.0807
13947TIP3   OH263331   2.429   5.495   2.540 -0.2878  0.1926  0.2518
13947TIP3    H163332   2.362   5.530   2.481 -0.2728 -1.4553 -0.8190
13947TIP3    H263333   2.483   5.439   2.484  1.7521  1.1436  1.1763
13948TIP3   OH263334   2.670   4.010   1.954  0.0760 -0.7046 -0.2595
13948TIP3    H163335   2.581   3.991   1.984  0.5508 -0.8608  1.0745
13948TIP3    H263336   2.657   4.065   1.876 -1.2050 -1.7854 -0.8659
13949TIP3   OH263337   0.479   0.229  12.425  0.0343 -0.0842  0.1825
13949TIP3    H163338   0.491   0.294  12.356 -1.8229 -0.0486 -0.1477
13949TIP3    H263339   0.401   0.257  12.472  0.0110 -1.3171  0.9390
13950TIP3   OH263340   3.211   6.011   1.838 -0.3473 -0.7312 -0.2131
13950TIP3    H163341   3.204   6.034   1.931 -2.2571  1.3864 -0.7730
13950TIP3    H263342   3.168   5.925   1.831  0.4219 -1.2320  0.9327
13951TIP3   OH263343   5.448   3.592  11.824  0.6953  0.4286  0.1857
13951TIP3    H163344   5.529   3.628  11.858  0.4941  0.5269  0.5616
13951TIP3    H263345   5.410   3.544  11.898 -1.3760  3.3060  1.1747
13952TIP3   OH263346   1.164   6.286   4.092 -0.2616  0.3073  0.8145
13952TIP3    H163347   1.099   6.256   4.155 -0.3972  0.4068  0.7237
13952TIP3    H263348   1.121   6.274   4.007  0.2156 -0.5658  0.6892
13953TIP3   OH263349   5.121   4.866  13.342 -0.5987  0.1776  0.4360
13953TIP3    H163350   5.063   4.885  13.415  1.3175 -1.4273  2.5431
13953TIP3    H263351   5.175   4.944  13.333 -0.4849  0.1898  1.1450
13954TIP3   OH263352   0.424   0.752  14.140  0.6129  0.3947  0.9108
13954TIP3    H163353   0.381   0.837  14.143 -0.6080 -0.0659 -1.3678
13954TIP3    H263354   0.504   0.767  14.091  0.0711  0.1363 -0.0765
13955TIP3   OH263355   6.560   4.239   4.887  0.0717  0.0398 -0.7496
13955TIP3    H163356   6.646   4.281   4.887  0.6579 -1.0846  0.4669
13955TIP3    H263357   6.549   4.207   4.798  0.6064  0.8013 -1.0941
13956TIP3   OH263358   1.953   6.589   0.640 -0.2841 -0.2137  0.0339
13956TIP3    H163359   1.940   6.515   0.699 -0.7332 -0.5536 -0.4873
13956TIP3    H263360   1.874   6.642   0.651 -0.4548 -0.3774 -0.4068
13957TIP3   OH263361   1.506   0.579   4.598  0.1622 -0.0389 -0.6546
13957TIP3    H163362   1.431   0.567   4.540 -0.6164  0.7459  0.1714
13957TIP3    H263363   1.539   0.667   4.576 -0.7714  0.7063  0.7642
13958TIP3   OH263364   2.009   1.712  15.079  0.1131 -0.6165 -0.2683
13958TIP3    H163365   2.067   1.719  15.003 -0.5866  3.4623 -0.6660
13958TIP3    H263366   2.034   1.631  15.121  1.3967 -2.4815 -4.1400
13959TIP3   OH263367   4.405   4.746   2.008 -0.3120  0.1396 -0.2980
13959TIP3    H163368   4.348   4.744   2.085  0.5944 -1.1020  0.3698
13959TIP3    H263369   4.345   4.743   1.934 -1.2391  2.0052  0.2965
13960TIP3   OH263370   3.825   6.328  16.907  0.3632 -0.1617  0.0686
13960TIP3    H163371   3.795   6.306  16.819  0.7942  0.2267 -0.1794
13960TIP3    H263372   3.829   6.424  16.908  1.2817 -0.1917  0.1915
13961TIP3   OH263373   5.233   1.716  12.440 -0.6235  0.0136 -0.1978
13961TIP3    H163374   5.294   1.765  12.385 -0.1523 -0.5743 -0.2146
13961TIP3    H263375   5.227   1.767  12.521 -0.2133  0.1465 -0.2487
13962TIP3   OH263376   5.240   4.576  11.682 -0.7183 -1.0257 -0.5687
13962TIP3    H163377   5.302   4.583  11.609 -0.4883 -0.2824 -0.3081
13962TIP3    H263378   5.175   4.645  11.665  0.1200  0.1061  0.6602
13963TIP3   OH263379   1.548   1.633  15.265 -0.1651  0.2928 -0.5588
13963TIP3    H163380   1.587   1.665  15.184 -0.1351 -0.9361 -1.0534
13963TIP3    H263381   1.608   1.663  15.334  0.4270  0.3627 -1.0968
13964TIP3   OH263382   3.850   5.833  15.461 -0.7377  0.0068 -0.3725
13964TIP3    H163383   3.934   5.791  15.476  0.0679  1.2821 -1.1263
13964TIP3    H263384   3.850   5.909  15.519 -1.8830 -0.6039  0.4799
13965TIP3   OH263385   1.896   2.677   4.977  0.1535 -0.0548 -0.5032
13965TIP3    H163386   1.839   2.659   5.051  0.1288  0.0938 -0.4853
13965TIP3    H263387   1.932   2.592   4.952  1.6820  0.1293  0.9119
13966TIP3   OH263388   5.724   3.720  11.474  0.0766 -0.3920  0.1990
13966TIP3    H163389   5.634   3.693  11.493  0.2004 -2.4581 -1.6734
13966TIP3    H263390   5.767   3.723  11.559 -1.5424 -0.1167  1.0610
13967TIP3   OH263391   5.778   4.331  12.594  0.0881  0.0140  0.5967
13967TIP3    H163392   5.820   4.246  12.585  2.5799  1.3234 -1.3503
13967TIP3    H263393   5.734   4.346  12.510  1.1549  1.3145  0.2252
13968TIP3   OH263394   3.931   4.303   5.062 -0.2372 -0.5865 -0.2747
13968TIP3    H163395   3.836   4.306   5.077 -0.2190  0.9111 -0.3549
13968TIP3    H263396   3.969   4.353   5.134  0.6494 -2.5239  0.6733
13969TIP3   OH263397   2.166   5.931  13.727  0.2802  0.7535  0.0842
13969TIP3    H163398   2.246   5.974  13.756  0.8475 -0.4365  0.3243
13969TIP3    H263399   2.144   5.974  13.645  0.4904  1.9027  0.6132
13970TIP3   OH263400   4.643   0.747   4.282  0.5040 -0.6143  0.1913
13970TIP3    H163401   4.571   0.685   4.289 -0.4135  0.3296 -0.5279
13970TIP3    H263402   4.646   0.790   4.368 -0.9379  0.5324 -0.2961
13971TIP3   OH263403   5.510   5.251   2.575  0.2190  0.0440 -0.5163
13971TIP3    H163404   5.457   5.308   2.631 -0.4252 -0.8336 -0.2150
13971TIP3    H263405   5.590   5.301   2.558 -0.3409  1.0319 -0.2667
13972TIP3   OH263406   1.534   5.420  15.057  0.2132 -0.6206 -0.3079
13972TIP3    H163407   1.466   5.443  14.993 -0.2608 -0.8130  0.1249
13972TIP3    H263408   1.602   5.376  15.005  0.3263  0.1854 -0.8552
13973TIP3   OH263409   5.386   4.261  11.026  0.4913  0.3068  0.5130
13973TIP3    H163410   5.307   4.209  11.035 -0.5605  1.6052 -0.6964
13973TIP3    H263411   5.445   4.228  11.094 -0.5467 -1.6233  0.5450
13974TIP3   OH263412   5.162   2.767  15.173 -0.3437  0.8026 -0.1095
13974TIP3    H163413   5.236   2.741  15.118  0.9867  1.4455  1.2890
13974TIP3    H263414   5.151   2.860  15.155  1.2372  1.4404  1.8844
13975TIP3   OH263415   1.647   2.811   4.358  0.2326  0.0312  0.0719
13975TIP3    H163416   1.716   2.768   4.308 -0.5552 -2.0615  0.6565
13975TIP3    H263417   1.645   2.900   4.324  1.0697 -0.7324 -2.2253
13976TIP3   OH263418   0.700   3.473  11.234 -0.0097 -0.3957  0.3820
13976TIP3    H163419   0.755   3.410  11.189  1.6253  1.0681  0.2287
13976TIP3    H263420   0.756   3.549  11.247 -2.4981  1.9680 -1.5311
13977TIP3   OH263421   6.053   3.883  14.802 -0.2353  0.2880 -0.5104
13977TIP3    H163422   5.960   3.867  14.819 -0.0397  0.1393  0.4528
13977TIP3    H263423   6.054   3.935  14.721 -1.0225 -2.5575 -2.5207
13978TIP3   OH263424   4.143   0.002   0.550  0.3510  0.1314 -0.7000
13978TIP3    H163425   4.091   0.033   0.625  1.3958  0.2561 -0.0093
13978TIP3    H263426   4.220  -0.038   0.589 -0.1546 -1.9069 -1.6461
13979TIP3   OH263427   1.075   2.831  10.496  0.1452 -0.5234 -0.1521
13979TIP3    H163428   1.098   2.852  10.405 -0.3497 -0.4046 -0.2582
13979TIP3    H263429   1.155   2.796  10.534  0.2635 -0.9208 -0.7435
13980TIP3   OH263430   6.509   1.318  13.409  0.5446  0.2567  0.3700
13980TIP3    H163431   6.553   1.296  13.327 -0.0770  0.8659 -0.1479
13980TIP3    H263432   6.451   1.391  13.385  1.6739  1.6561  1.7479
13981TIP3   OH263433   3.116   2.342  14.935 -0.2368 -0.4992 -0.3494
13981TIP3    H163434   3.101   2.255  14.897  1.1812 -1.1998  0.5778
13981TIP3    H263435   3.145   2.324  15.025 -0.6940  0.9750  0.1196
13982TIP3   OH263436   5.617   1.885  16.795 -0.0961 -0.2943  0.4096
13982TIP3    H163437   5.567   1.841  16.726 -0.0345  0.0437  0.1450
13982TIP3    H263438   5.552   1.909  16.860 -0.5834  1.7027 -0.7226
13983TIP3   OH263439   2.094   0.748  12.678  0.1123  0.0460 -0.1449
13983TIP3    H163440   2.118   0.840  12.692  1.3763  0.0334 -1.9247
13983TIP3    H263441   2.169   0.711  12.632  0.5401 -2.4499  2.2703
13984TIP3   OH263442   0.093   0.782  13.221  0.1814  0.2290 -0.3069
13984TIP3    H163443   0.102   0.732  13.302  1.3462 -0.9507 -1.1178
13984TIP3    H263444   0.076   0.872  13.250 -2.7486 -0.6951  1.1987
13985TIP3   OH263445   6.632   6.248   2.058 -0.1926  0.1997  0.0218
13985TIP3    H163446   6.564   6.213   2.116 -0.7134 -0.3312 -0.9008
13985TIP3    H263447   6.584   6.286   1.985  0.4450  1.3031  0.1649
13986TIP3   OH263448   4.805   3.004   2.372 -0.4227 -0.6026  0.1415
13986TIP3    H163449   4.875   3.054   2.416  0.8638  0.5970 -2.9435
13986TIP3    H263450   4.725   3.030   2.417  0.7427  0.7992  1.5256
13987TIP3   OH263451   2.125   1.321   0.543  0.1969 -0.0078 -0.1483
13987TIP3    H163452   2.057   1.271   0.499 -0.3786 -0.4265  1.1723
13987TIP3    H263453   2.123   1.291   0.634  1.7052  0.4414  0.0726
13988TIP3   OH263454   3.657   5.370  14.981 -0.4533  0.1751 -0.5169
13988TIP3    H163455   3.630   5.440  15.041 -0.6835 -1.0001  0.8156
13988TIP3    H263456   3.730   5.327  15.026  0.1215 -0.0329 -1.6231
13989TIP3   OH263457   0.777   5.957  15.682  0.1566  0.1541 -0.3031
13989TIP3    H163458   0.686   5.935  15.699 -0.1657 -0.4774 -2.5233
13989TIP3    H263459   0.827   5.908  15.747 -0.9873 -1.2228 -0.4266
13990TIP3   OH263460   5.417   1.912  15.077  0.3346 -0.4054  0.8162
13990TIP3    H163461   5.456   1.953  15.000 -1.5910 -0.5046 -0.2557
13990TIP3    H263462   5.420   1.980  15.145  4.7394 -1.1918  1.7378
13991TIP3   OH263463   4.915   2.523  12.411  0.2782  0.0112 -0.7801
13991TIP3    H163464   4.901   2.615  12.433  1.3411  0.5623 -2.1986
13991TIP3    H263465   4.974   2.491  12.479 -0.3688  0.2680 -0.0831
13992TIP3   OH263466   5.163   5.950  14.758  0.0140  0.0403  0.3699
13992TIP3    H163467   5.214   5.874  14.731  0.7761  1.1533 -1.5495
13992TIP3    H263468   5.093   5.956  14.693  0.1292  1.1301  0.3323
13993TIP3   OH263469   6.667   5.778   0.044  0.6494 -0.3315 -0.8792
13993TIP3    H163470   6.708   5.702   0.085  0.5929 -0.6246 -1.3482
13993TIP3    H263471   6.687   5.768  -0.049  0.3718  0.0615 -0.9844
13994TIP3   OH263472   6.531   5.896   4.359  0.6978  0.2673  0.8899
13994TIP3    H163473   6.563   5.815   4.397 -0.0071 -0.5050 -0.1143
13994TIP3    H263474   6.554   5.890   4.266 -2.2280 -0.3268  0.1088
13995TIP3   OH263475   4.125   6.613  12.731  0.0541  0.0250  0.5359
13995TIP3    H163476   4.175   6.692  12.709  0.9867 -0.8483 -0.5862
13995TIP3    H263477   4.155   6.589  12.818 -0.3691  0.9973  0.9682
13996TIP3   OH263478   3.970   2.772  16.206 -0.3545  0.3776  0.0095
13996TIP3    H163479   3.945   2.782  16.114 -2.1684 -0.8295  0.3280
13996TIP3    H263480   4.041   2.707  16.204 -0.2328  0.5209 -0.5631
13997TIP3   OH263481   6.566   2.193  12.101 -0.1671  0.1044 -0.1246
13997TIP3    H163482   6.528   2.131  12.039 -0.0956  0.1992 -0.2630
13997TIP3    H263483   6.661   2.182  12.091 -0.1354  0.8629 -0.7895
13998TIP3   OH263484   0.146   3.388  14.094 -0.3583 -0.0931  0.1403
13998TIP3    H163485   0.055   3.403  14.120 -0.5724 -0.5017 -0.3509
13998TIP3    H263486   0.165   3.456  14.030 -0.9510 -1.1592 -1.2076
13999TIP3   OH263487   0.711   6.848   1.815 -0.1965 -0.4842  0.3764
13999TIP3    H163488   0.705   6.933   1.770  1.3815  0.1746  1.3350
13999TIP3    H263489   0.624   6.810   1.806 -1.2325  1.6552  0.7142
14000TIP3   OH263490   6.809   4.521   3.965  0.6816 -0.4808 -0.0601
14000TIP3    H163491   6.729   4.574   3.961  1.5168  0.7840 -1.2011
14000TIP3    H263492   6.845   4.538   4.052 -0.6921 -1.7266  0.7872
14001TIP3   OH263493   2.616   4.277   4.791  0.5184  0.1285 -0.2590
14001TIP3    H163494   2.612   4.373   4.793 -1.7161  0.1100 -1.3732
14001TIP3    H263495   2.668   4.254   4.868 -1.4471  2.1437  1.8283
14002TIP3   OH263496   4.750   2.543   3.275  0.1486 -0.5933 -0.2565
14002TIP3    H163497   4.745   2.481   3.348 -0.7683  0.8254  0.9374
14002TIP3    H263498   4.664   2.539   3.234  0.2920 -0.5543 -0.5601
14003TIP3   OH263499   0.204   2.870   1.181 -0.1293 -0.5672 -0.5213
14003TIP3    H163500   0.180   2.956   1.216  2.5472 -0.5408  1.6225
14003TIP3    H263501   0.149   2.859   1.104 -2.8148  1.6650  0.8891
14004TIP3   OH263502   4.488   1.978  13.390  0.3943  0.8088  0.1682
14004TIP3    H163503   4.470   2.072  13.395  1.2620  0.9619  0.6685
14004TIP3    H263504   4.541   1.968  13.311 -0.9637  0.5083 -0.7288
14005TIP3   OH263505   0.782   4.585   1.797  0.0804 -0.4154  0.0683
14005TIP3    H163506   0.752   4.599   1.886 -1.5223 -0.1070 -0.4951
14005TIP3    H263507   0.877   4.596   1.802 -0.1515  1.5371  1.3730
14006TIP3   OH263508   5.471   1.766   1.090 -0.0522 -0.1968 -0.1770
14006TIP3    H163509   5.434   1.845   1.051  1.1684  1.1218  1.2124
14006TIP3    H263510   5.396   1.720   1.127 -0.6067  1.1373  0.4020
14007TIP3   OH263511   4.428   3.431   0.420 -0.5309 -0.6119  0.3173
14007TIP3    H163512   4.346   3.417   0.466 -0.9640  0.1411 -0.2015
14007TIP3    H263513   4.407   3.496   0.354  0.1813 -1.3331 -0.6521
14008TIP3   OH263514   5.751   5.593  10.787  0.2013  0.1985 -0.1488
14008TIP3    H163515   5.675   5.535  10.783  0.9779 -0.8468  0.1000
14008TIP3    H263516   5.716   5.679  10.761 -1.1565 -0.1556  0.4116
14009TIP3   OH263517   5.231   3.121  11.775 -0.5679 -0.9087  0.4186
14009TIP3    H163518   5.198   3.182  11.709  0.0231 -2.2423 -1.1600
14009TIP3    H263519   5.217   3.167  11.858 -3.0492  0.0788 -0.4321
14010TIP3   OH263520   4.556   4.016   5.225  0.3216 -0.2862 -0.5647
14010TIP3    H163521   4.634   3.967   5.249 -0.5201 -0.8752  1.1249
14010TIP3    H263522   4.551   4.087   5.289 -1.5052 -1.3706  0.6096
14011TIP3   OH263523   5.711   6.203   1.892  0.1956  0.3540  0.0534
14011TIP3    H163524   5.677   6.292   1.893  0.8568  0.6027  0.7751
14011TIP3    H263525   5.690   6.167   1.978 -1.9336 -0.9422 -0.8942
14012TIP3   OH263526   2.271   6.122   4.917  0.5288  0.0928 -0.1463
14012TIP3    H163527   2.197   6.182   4.926  0.9866  0.7909 -0.8485
14012TIP3    H263528   2.324   6.160   4.847  2.2733  0.3541  1.2421
14013TIP3   OH263529   3.813   6.139  11.983  0.3538  0.0805  0.2948
14013TIP3    H163530   3.805   6.209  11.918 -0.7599  0.6297  0.9984
14013TIP3    H263531   3.728   6.095  11.983  0.7217 -0.6644  0.5620
14014TIP3   OH263532   0.236   3.123  10.642 -0.0505  0.3655  0.4403
14014TIP3    H163533   0.251   3.031  10.664 -0.0750  0.1353 -0.4699
14014TIP3    H263534   0.188   3.121  10.560  2.4724  1.1855 -1.1831
14015TIP3   OH263535   4.984   4.623   0.153  0.1084  0.2520 -0.7893
14015TIP3    H163536   4.976   4.600   0.245 -0.2022  2.1192 -0.3066
14015TIP3    H263537   5.050   4.692   0.151 -1.5247  1.8762 -1.6262
14016TIP3   OH263538   4.016   0.597  12.485  0.1397  0.5652  0.3424
14016TIP3    H163539   3.953   0.536  12.447  0.7160 -0.3248  0.7899
14016TIP3    H263540   4.071   0.624  12.411  0.5422 -0.2776  0.3264
14017TIP3   OH263541   4.886   0.280  13.724 -0.0623  0.2941 -0.2412
14017TIP3    H163542   4.811   0.229  13.756 -1.0434  2.1067  0.4972
14017TIP3    H263543   4.905   0.341  13.795  1.9344  0.1037 -0.5660
14018TIP3   OH263544   6.338   5.811  13.039 -0.2605 -0.0761  0.4497
14018TIP3    H163545   6.289   5.791  13.119  1.0719  1.4158  1.7087
14018TIP3    H263546   6.310   5.900  13.015  1.3654  0.5923  0.8802
14019TIP3   OH263547   0.888   3.334  15.602  0.6265 -0.0144 -0.5667
14019TIP3    H163548   0.913   3.424  15.583  0.0111  0.7297  1.7203
14019TIP3    H263549   0.810   3.318  15.549  0.2809  1.0959 -0.4076
14020TIP3   OH263550   0.383   5.628   0.596 -0.6624  0.6624 -0.0734
14020TIP3    H163551   0.387   5.593   0.507 -0.5995  3.4166 -1.2503
14020TIP3    H263552   0.296   5.602   0.627 -1.6719  1.6910 -1.8899
14021TIP3   OH263553   6.396   5.307  13.209 -0.1562  0.0560 -0.4868
14021TIP3    H163554   6.447   5.301  13.128  0.3933 -2.8187 -0.0185
14021TIP3    H263555   6.365   5.218  13.225 -0.6087  0.6137  2.2723
14022TIP3   OH263556   2.911   1.309  16.214  0.6199 -0.2221  0.8770
14022TIP3    H163557   2.943   1.237  16.269  4.8168 -0.3063 -1.2259
14022TIP3    H263558   2.894   1.269  16.129  1.9410  0.9881 -0.0162
14023TIP3   OH263559   0.017   5.673  11.841 -0.3971 -0.0671  0.4045
14023TIP3    H163560  -0.040   5.741  11.877 -0.6449 -0.2668  0.3969
14023TIP3    H263561   0.106   5.709  11.848 -0.5638  0.4405 -0.0192
14024TIP3   OH263562   4.591   2.107  15.392 -0.5663 -0.8666  0.8164
14024TIP3    H163563   4.498   2.105  15.418 -0.7328  0.9310  0.4624
14024TIP3    H263564   4.590   2.090  15.298 -0.6672  0.3481  0.5831
14025TIP3   OH263565   1.597   5.822  17.032 -0.0551 -0.0533 -0.0605
14025TIP3    H163566   1.587   5.727  17.033  1.9051 -0.3207 -1.0057
14025TIP3    H263567   1.614   5.843  16.940  0.4838  1.1051  0.2885
14026TIP3   OH263568   3.515   3.404   4.319  0.2617 -0.7187 -0.4439
14026TIP3    H163569   3.575   3.329   4.321  0.6951 -0.3714 -0.1641
14026TIP3    H263570   3.460   3.388   4.242  0.8086 -0.9700 -0.7913
14027TIP3   OH263571   3.728   0.671   1.673  0.4226  0.1416  0.1931
14027TIP3    H163572   3.642   0.671   1.714  0.2758 -1.4916 -0.0604
14027TIP3    H263573   3.724   0.744   1.610 -0.9382 -0.1992 -0.1537
14028TIP3   OH263574   4.439   6.357  11.421  0.4710 -0.5311 -0.4282
14028TIP3    H163575   4.534   6.356  11.412  0.7546  1.1666  1.6870
14028TIP3    H263576   4.417   6.269  11.453  1.4302 -0.6671 -0.1179
14029TIP3   OH263577   0.893   3.478  15.271 -0.0012  0.0020  0.2335
14029TIP3    H163578   0.824   3.457  15.208 -0.0430  0.0671  0.2578
14029TIP3    H263579   0.948   3.400  15.272  0.4059  0.2657 -0.4207
14030TIP3   OH263580   3.130   3.014   4.901  0.2755 -0.3508  0.1764
14030TIP3    H163581   3.123   3.107   4.921 -1.2527 -0.5435  0.6520
14030TIP3    H263582   3.087   2.970   4.974  0.1541 -1.3897 -0.4942
14031TIP3   OH263583   1.144   4.995   2.230 -0.1141 -0.1930  0.4924
14031TIP3    H163584   1.215   5.042   2.188 -2.3675  1.2411 -2.0396
14031TIP3    H263585   1.141   4.911   2.185 -0.6950  0.1895 -0.1956
14032TIP3   OH263586   0.389   6.598   4.170  0.2940 -0.4623  0.5851
14032TIP3    H163587   0.434   6.624   4.090 -0.4959 -1.4671 -0.1956
14032TIP3    H263588   0.458   6.600   4.237  1.0175  0.1321 -0.1530
14033TIP3   OH263589   6.377   6.496  15.257  0.5061 -0.0545  0.6566
14033TIP3    H163590   6.347   6.406  15.272 -0.1801 -0.0599 -0.5561
14033TIP3    H263591   6.334   6.547  15.326 -0.8028 -0.3653  0.1072
14034TIP3   OH263592   3.051   5.876  15.359  0.1938 -0.4129  0.4403
14034TIP3    H163593   3.068   5.903  15.268  0.1592  0.2414  0.6183
14034TIP3    H263594   2.956   5.884  15.368 -0.0736 -2.5661 -0.0952
14035TIP3   OH263595   4.829   0.308  12.063 -0.5099  0.5611  0.5840
14035TIP3    H163596   4.879   0.376  12.107  1.0148 -0.8522  1.1618
14035TIP3    H263597   4.776   0.269  12.132  1.4030 -1.2280  1.1668
14036TIP3   OH263598   2.295   0.666  12.494  0.5823  0.0381  0.3432
14036TIP3    H163599   2.238   0.592  12.516 -1.1157  0.9081 -0.8775
14036TIP3    H263600   2.382   0.627  12.483  0.1564 -1.4187  1.7626
14037TIP3   OH263601   0.334   5.625   1.475 -0.1343  0.5455 -0.0180
14037TIP3    H163602   0.286   5.566   1.417 -0.0514  0.8597 -0.4137
14037TIP3    H263603   0.398   5.569   1.519 -0.1211  0.3237 -0.3152
14038TIP3   OH263604   1.054   6.667  11.395 -0.0677 -0.4763  0.7003
14038TIP3    H163605   1.029   6.582  11.358  2.6341 -1.8981  1.8213
14038TIP3    H263606   1.121   6.645  11.460  0.1859  2.4887  1.5647
14039TIP3   OH263607   6.116   1.789  15.536 -0.1999  0.4942 -0.4666
14039TIP3    H163608   6.202   1.815  15.504 -0.5015 -0.2839 -2.0100
14039TIP3    H263609   6.095   1.710  15.487 -1.5021  0.2765  0.3872
14040TIP3   OH263610   0.430   4.000   0.771 -0.3913  0.7479 -0.1323
14040TIP3    H163611   0.484   4.070   0.734  0.2234  2.3563  3.4184
14040TIP3    H263612   0.348   4.043   0.794 -0.6850 -0.1144  0.4592
14041TIP3   OH263613   4.912   1.751  12.657  0.1211  0.2914  0.2020
14041TIP3    H163614   4.857   1.684  12.698  1.2209 -0.5411  0.3731
14041TIP3    H263615   4.921   1.819  12.723 -1.0083  0.6294  0.0298
14042TIP3   OH263616   4.815   5.477   0.901  0.4082 -0.0329  0.4678
14042TIP3    H163617   4.766   5.450   0.979  0.8104 -0.9930  0.3913
14042TIP3    H263618   4.813   5.402   0.843 -1.3533  1.2196 -1.2323
14043TIP3   OH263619   3.836   3.478   2.271  0.0229 -0.1432 -0.1559
14043TIP3    H163620   3.897   3.549   2.258 -0.0697 -0.2136 -1.0148
14043TIP3    H263621   3.753   3.509   2.234 -0.1357 -0.5217 -0.1328
14044TIP3   OH263622   5.025   6.573   2.520  0.7775  0.5175 -0.0700
14044TIP3    H163623   4.953   6.588   2.459  1.4996  0.3893 -0.9704
14044TIP3    H263624   5.027   6.653   2.573 -0.8775 -0.0204  0.8838
14045TIP3   OH263625   5.715   2.520  15.088 -0.8396  0.3680 -0.7828
14045TIP3    H163626   5.734   2.614  15.089  0.2607  0.1615  0.0150
14045TIP3    H263627   5.623   2.513  15.113 -1.2817  1.2889 -2.0660
14046TIP3   OH263628   4.429   6.098  11.544 -0.0101 -0.2811 -0.2584
14046TIP3    H163629   4.472   6.012  11.550  1.7447  0.6460  1.3005
14046TIP3    H263630   4.374   6.102  11.623  1.5532  0.8194  0.8282
14047TIP3   OH263631   0.638   2.724  10.579 -0.5583 -0.3723 -0.1751
14047TIP3    H163632   0.661   2.813  10.553 -0.8312 -0.4919 -0.8493
14047TIP3    H263633   0.543   2.720  10.570 -0.7582 -0.2155  1.5285
14048TIP3   OH263634   0.924   6.349   2.010  0.6383 -0.2778  0.1804
14048TIP3    H163635   0.889   6.432   1.977 -0.0870  0.3096  2.2729
14048TIP3    H263636   0.999   6.375   2.065  1.9654 -1.2316 -1.1114
14049TIP3   OH263637   1.706   3.976   2.499  0.2484 -0.2891  0.0984
14049TIP3    H163638   1.671   4.002   2.585  1.4055  0.4767  0.3752
14049TIP3    H263639   1.630   3.949   2.448 -0.5157 -0.2859  1.2116
14050TIP3   OH263640   0.194   6.429   0.497 -0.5950  0.8752  0.0527
14050TIP3    H163641   0.198   6.451   0.404 -0.9527  1.5206  0.1840
14050TIP3    H263642   0.210   6.335   0.501  1.7293  1.1794 -0.4807
14051TIP3   OH263643   6.262   4.141   3.753 -0.1799 -0.0549 -0.3034
14051TIP3    H163644   6.323   4.201   3.796 -0.0656  1.0426 -1.8980
14051TIP3    H263645   6.188   4.135   3.813 -0.7819  2.7391 -0.5962
14052TIP3   OH263646   4.081   3.520  16.838  0.1555 -0.0505  0.8326
14052TIP3    H163647   4.132   3.601  16.842 -1.2950  0.9217  0.4876
14052TIP3    H263648   4.121   3.463  16.904  0.3377  1.4659  2.0799
14053TIP3   OH263649   2.937   0.061  11.998  0.2652  0.0447  0.6862
14053TIP3    H163650   2.902   0.129  11.941 -0.2688 -0.8726 -0.1171
14053TIP3    H263651   2.861   0.005  12.017  1.0131 -1.2581 -0.0389
14054TIP3   OH263652   3.421   2.636   0.318 -0.0475  0.4594 -0.1552
14054TIP3    H163653   3.471   2.715   0.338  1.1034 -0.6589  1.6120
14054TIP3    H263654   3.335   2.669   0.293  0.4652  2.2832  0.2896
14055TIP3   OH263655   5.172   3.882   1.990  0.3336  0.0901 -0.3118
14055TIP3    H163656   5.230   3.847   2.057  0.2242  0.0957 -0.2131
14055TIP3    H263657   5.182   3.823   1.916  0.4754  0.0999 -0.3002
14056TIP3   OH263658   3.547   5.374  15.690 -0.1428  0.1097  0.2117
14056TIP3    H163659   3.452   5.385  15.700 -0.1618  1.9216 -1.2959
14056TIP3    H263660   3.580   5.464  15.679  1.8921 -0.3927  1.6507
14057TIP3   OH263661   2.643   4.770   0.893  0.0194  0.6783  0.3027
14057TIP3    H163662   2.563   4.799   0.850 -0.0948 -0.1859 -0.0879
14057TIP3    H263663   2.713   4.811   0.842 -0.1280  0.0012 -0.4614
14058TIP3   OH263664   0.385   0.034  15.861  0.0388 -0.0489 -0.3032
14058TIP3    H163665   0.310   0.079  15.898 -0.1353 -0.8570  0.3688
14058TIP3    H263666   0.459   0.092  15.877 -0.0980 -0.2227  1.0081
14059TIP3   OH263667   0.114   2.181  12.783  0.4329  0.8328 -0.1159
14059TIP3    H163668   0.078   2.221  12.862  0.8191  0.5402  0.2110
14059TIP3    H263669   0.208   2.171  12.801  0.5454  0.8523 -0.6489
14060TIP3   OH263670   1.581   3.420   2.338 -0.1535 -0.5233  0.3454
14060TIP3    H163671   1.498   3.434   2.291 -0.0477 -0.5770  0.1386
14060TIP3    H263672   1.576   3.330   2.370 -0.3770 -0.3709  0.7459
14061TIP3   OH263673   2.248   5.165  15.740 -0.3264 -0.0121 -0.2049
14061TIP3    H163674   2.154   5.181  15.733 -0.1924  0.8479 -0.1828
14061TIP3    H263675   2.278   5.229  15.804  0.3555  0.0657 -0.5936
14062TIP3   OH263676   2.315   3.089  16.809 -0.6013  0.0581  0.0219
14062TIP3    H163677   2.320   3.037  16.730  0.2278  0.2546 -0.0586
14062TIP3    H263678   2.350   3.033  16.878  0.4592  0.5451 -0.0963
14063TIP3   OH263679   3.615   2.625  16.311  0.1418 -0.0115  0.1271
14063TIP3    H163680   3.650   2.585  16.391  0.8277  1.0223  0.3575
14063TIP3    H263681   3.657   2.576  16.240  2.1009  1.1551  0.3945
14064TIP3   OH263682   2.346   2.166   6.570  0.0973 -0.3337  0.0822
14064TIP3    H163683   2.314   2.097   6.513  3.0793 -3.8685  2.2097
14064TIP3    H263684   2.402   2.220   6.513 -1.5089 -0.1794 -1.4234
14065TIP3   OH263685   3.705   6.371   0.956 -0.5666  0.0458 -0.2202
14065TIP3    H163686   3.706   6.290   0.905 -0.7857 -0.4168  0.4947
14065TIP3    H263687   3.700   6.341   1.047 -3.2611  0.8749 -0.0115
14066TIP3   OH263688   5.928   1.181  12.819  0.6405  0.4527 -0.3738
14066TIP3    H163689   5.942   1.272  12.797 -0.9652  1.1033  1.0232
14066TIP3    H263690   5.833   1.168  12.811  0.6272 -0.6254  0.9409
14067TIP3   OH263691   1.085   4.321   4.520  0.0951 -0.5819  0.2353
14067TIP3    H163692   1.097   4.273   4.602  1.5692 -2.9010 -1.2418
14067TIP3    H263693   1.171   4.323   4.480 -1.1345 -2.6042 -2.8559
14068TIP3   OH263694   2.133   2.266   5.537  0.7262 -0.1596 -0.7685
14068TIP3    H163695   2.145   2.192   5.598  0.2304 -0.5508 -1.1389
14068TIP3    H263696   2.111   2.340   5.593 -1.4589 -0.9008 -0.5623
14069TIP3   OH263697   4.569   5.589  10.612 -0.4341 -0.7628  0.3833
14069TIP3    H163698   4.549   5.504  10.573 -2.1997 -0.8125  1.3276
14069TIP3    H263699   4.485   5.622  10.642  0.6295 -0.0699  2.8277
14070TIP3   OH263700   5.293   1.838  12.061  0.6393 -0.5320  0.4304
14070TIP3    H163701   5.283   1.743  12.052  1.2379 -0.5465 -0.1251
14070TIP3    H263702   5.310   1.869  11.972  2.3442 -0.1525  0.8452
14071TIP3   OH263703   3.005   5.565   0.846  0.0067  0.1449 -0.1402
14071TIP3    H163704   2.944   5.543   0.776  2.0334 -0.4180 -1.8020
14071TIP3    H263705   3.011   5.485   0.898 -0.1458 -0.0217 -0.3767
14072TIP3   OH263706   1.740   5.980   5.837  0.0198 -0.0337 -0.1047
14072TIP3    H163707   1.655   6.022   5.845 -0.0781 -0.2978  0.2607
14072TIP3    H263708   1.724   5.901   5.786  0.0554 -0.0575 -0.0792
14073TIP3   OH263709   4.719   4.007  15.257  0.1624  0.8106 -0.0553
14073TIP3    H163710   4.715   4.090  15.209  1.3555  0.6467 -0.4736
14073TIP3    H263711   4.736   3.942  15.190 -1.6351  0.0654  0.1456
14074TIP3   OH263712   5.371   3.378   5.670 -0.3635 -0.0510  0.0777
14074TIP3    H163713   5.320   3.458   5.679 -0.5190 -0.1644  0.1904
14074TIP3    H263714   5.440   3.401   5.607 -1.0977 -0.1691 -0.8005
14075TIP3   OH263715   6.661   6.839   4.704 -0.2505  0.3715  0.5591
14075TIP3    H163716   6.636   6.775   4.637 -0.8456  0.3558  0.7851
14075TIP3    H263717   6.577   6.867   4.742 -0.0247  1.4842  0.2738
14076TIP3   OH263718   6.326   4.458   3.685  0.2228 -0.6008 -0.6775
14076TIP3    H163719   6.253   4.413   3.729 -0.2382 -1.3996 -2.1913
14076TIP3    H263720   6.404   4.426   3.730 -0.3365  0.7251  1.3771
14077TIP3   OH263721   3.684   3.846   3.453  0.1102 -0.2423  0.2636
14077TIP3    H163722   3.636   3.908   3.508 -0.6955  0.0784 -0.7573
14077TIP3    H263723   3.643   3.855   3.367  0.7019 -1.4253 -0.1552
14078TIP3   OH263724   0.995   1.687  16.588  0.2400 -0.1241  0.1117
14078TIP3    H163725   1.071   1.744  16.575  0.1522 -0.0709 -0.1854
14078TIP3    H263726   0.924   1.733  16.543  0.4171 -1.0248 -1.1532
14079TIP3   OH263727   3.144   1.715   0.792 -0.3413 -0.0161  0.0169
14079TIP3    H163728   3.086   1.677   0.726  0.6128 -0.9789 -0.2883
14079TIP3    H263729   3.217   1.751   0.742  0.4842 -0.9220  0.5387
14080TIP3   OH263730   3.321   5.208  13.001 -0.4778  0.4727 -0.0736
14080TIP3    H163731   3.352   5.244  12.918 -1.0518 -0.9406 -0.9318
14080TIP3    H263732   3.243   5.259  13.022 -1.1792 -0.1061 -1.1780
14081TIP3   OH263733   1.774   4.373   0.843 -0.2360 -0.5972 -0.0115
14081TIP3    H163734   1.741   4.412   0.762  0.3351  0.5217  0.2760
14081TIP3    H263735   1.868   4.362   0.828 -0.3626 -1.7951 -0.0419
14082TIP3   OH263736   2.958   3.485  12.828  0.4623 -0.5190 -0.9040
14082TIP3    H163737   2.995   3.435  12.901  2.7872  1.6314 -0.4424
14082TIP3    H263738   2.966   3.427  12.752 -1.1381 -2.4475  0.2827
14083TIP3   OH263739   4.271   0.633   4.477 -0.2927  1.1932  0.3395
14083TIP3    H163740   4.185   0.603   4.446 -0.5762  1.1759  1.1206
14083TIP3    H263741   4.328   0.626   4.400 -0.6393 -0.1875  0.1769
14084TIP3   OH263742   4.727   5.163  17.150  0.3061 -0.0023 -0.0543
14084TIP3    H163743   4.789   5.098  17.180 -0.1675 -1.4735 -2.0328
14084TIP3    H263744   4.678   5.119  17.080 -1.5187  1.7769  0.0007
14085TIP3   OH263745   4.998   0.369  13.151 -0.0846  0.2009  0.0918
14085TIP3    H163746   4.952   0.351  13.232 -2.1586  2.8244 -0.3602
14085TIP3    H263747   5.074   0.422  13.177  2.2890 -3.1992  0.7151
14086TIP3   OH263748   3.180   5.695  14.945 -0.0428 -0.4507  0.3238
14086TIP3    H163749   3.191   5.602  14.961 -1.2139 -0.8950 -1.2080
14086TIP3    H263750   3.101   5.701  14.892 -0.1088  1.4412  0.5655
14087TIP3   OH263751   3.603   2.072  15.020  0.4854 -0.5021  0.3036
14087TIP3    H163752   3.570   2.006  14.960  1.2484 -1.7591  1.2314
14087TIP3    H263753   3.692   2.090  14.990  0.7531 -0.8903  0.8564
14088TIP3   OH263754   3.870   6.273  12.991 -0.3456 -0.5115  0.1801
14088TIP3    H163755   3.918   6.258  12.910 -0.6993  1.7412 -0.5103
14088TIP3    H263756   3.937   6.296  13.055 -0.2901  0.6674 -0.2766
14089TIP3   OH263757   1.457   4.121   3.252  0.4016  0.5775  0.2375
14089TIP3    H163758   1.456   4.101   3.159  0.4889 -0.9147  0.5345
14089TIP3    H263759   1.377   4.170   3.268  0.0155  0.1821 -0.4836
14090TIP3   OH263760   3.090   3.019   1.174 -0.0014 -0.6051 -0.0352
14090TIP3    H163761   3.008   3.031   1.126  0.7310  1.3636 -0.9514
14090TIP3    H263762   3.098   2.925   1.186 -1.4189 -0.9898 -1.6877
14091TIP3   OH263763   5.540   5.497  13.172 -0.0726  0.0933 -0.0102
14091TIP3    H163764   5.459   5.490  13.222 -2.3949 -1.3215 -3.5894
14091TIP3    H263765   5.540   5.419  13.115  3.0847  0.7843 -1.1916
14092TIP3   OH263766   6.468   2.182  13.972  0.6105  0.0605  0.1265
14092TIP3    H163767   6.460   2.259  13.915  1.6837  1.1977  1.4456
14092TIP3    H263768   6.405   2.198  14.042 -0.1655 -0.9740 -0.3075
14093TIP3   OH263769   1.100   3.186   5.218  0.6102  0.3482 -0.2614
14093TIP3    H163770   1.128   3.110   5.270  1.3982  0.8288  0.0345
14093TIP3    H263771   1.182   3.223   5.184  0.0958 -0.2831 -2.3303
14094TIP3   OH263772   4.841   6.133  14.239  0.4695  0.7171  0.2881
14094TIP3    H163773   4.786   6.198  14.196  1.2388  0.4454 -1.1688
14094TIP3    H263774   4.809   6.130  14.329 -0.7393  1.8117 -0.0799
14095TIP3   OH263775   0.053   1.768   3.634  0.7039  0.4536  0.4375
14095TIP3    H163776   0.036   1.705   3.704  1.1093  0.1734  0.2903
14095TIP3    H263777   0.031   1.853   3.672  0.7072  0.2811  0.8308
14096TIP3   OH263778   2.919   6.699   5.245  0.3155 -0.0603  0.0639
14096TIP3    H163779   2.949   6.728   5.331  1.8765 -0.7038 -0.2150
14096TIP3    H263780   2.827   6.724   5.241  0.6445  1.4978  1.2527
14097TIP3   OH263781   2.110   5.565   4.115 -0.1948 -0.3792  0.5344
14097TIP3    H163782   2.166   5.550   4.039 -0.9948  0.5268 -0.2522
14097TIP3    H263783   2.074   5.479   4.136 -0.5115 -0.5188 -0.5474
14098TIP3   OH263784   6.380   5.392   2.346 -0.6376  0.0766 -0.3925
14098TIP3    H163785   6.408   5.314   2.394  1.5160  0.6091 -0.6821
14098TIP3    H263786   6.300   5.365   2.301 -1.3314 -1.1866  1.4621
14099TIP3   OH263787   1.871   3.982   5.119 -0.0169 -0.1405 -0.4709
14099TIP3    H163788   1.919   3.940   5.048  1.3265 -0.5389  0.6109
14099TIP3    H263789   1.882   3.923   5.193 -1.2663  0.3318  0.1041
14100TIP3   OH263790   3.455   6.088   2.421  0.6195  0.1382  0.3122
14100TIP3    H163791   3.485   6.176   2.443  0.8874  0.0304  0.3701
14100TIP3    H263792   3.362   6.088   2.446  0.5058  0.5396 -0.0862
14101TIP3   OH263793   4.125   2.159  11.637 -0.4028 -0.0540  0.0850
14101TIP3    H163794   4.196   2.114  11.683 -0.9188 -0.8001  0.1771
14101TIP3    H263795   4.124   2.120  11.550 -1.3200 -0.7670  0.3923
14102TIP3   OH263796   2.023   0.742  11.237 -0.0021 -0.1438 -0.2820
14102TIP3    H163797   2.029   0.734  11.333  1.0869 -0.0921 -0.3396
14102TIP3    H263798   1.942   0.697  11.215  0.1063 -0.7924  0.5971
14103TIP3   OH263799   6.297   3.527  10.955 -0.3753  0.0776 -0.0753
14103TIP3    H163800   6.292   3.525  10.859 -0.1286 -0.2523 -0.0854
14103TIP3    H263801   6.283   3.436  10.981  0.9331 -0.0964  0.1172
14104TIP3   OH263802   3.018   4.858  12.680  0.1192  0.0501  0.1054
14104TIP3    H163803   3.054   4.887  12.764  1.6538  0.0638 -0.5166
14104TIP3    H263804   3.003   4.938  12.631  1.4169 -0.0186 -0.4572
14105TIP3   OH263805   1.776   3.079  11.162 -0.2269  0.4168 -0.0538
14105TIP3    H163806   1.794   3.021  11.088 -2.3150  1.1015 -1.1727
14105TIP3    H263807   1.763   3.020  11.237 -0.5555 -0.4548 -0.7816
14106TIP3   OH263808   2.231   2.388   1.208 -0.2786 -0.3230 -0.2840
14106TIP3    H163809   2.177   2.357   1.136  0.1896 -1.3578 -0.2180
14106TIP3    H263810   2.297   2.444   1.167  0.7654 -1.9092 -0.8728
14107TIP3   OH263811   5.437   5.767  16.923  0.2387  0.2272 -0.3815
14107TIP3    H163812   5.383   5.818  16.863 -0.5472  0.9771  0.9246
14107TIP3    H263813   5.428   5.811  17.008 -0.5836 -2.0885  0.8548
14108TIP3   OH263814   3.145   2.280   2.670  0.7327  0.4420  1.0504
14108TIP3    H163815   3.099   2.222   2.730  0.4269  0.5170  0.8895
14108TIP3    H263816   3.150   2.363   2.717  1.0269  0.3334  1.2145
14109TIP3   OH263817   5.918   4.872  14.159  0.1361 -0.1031 -0.5846
14109TIP3    H163818   5.965   4.842  14.236 -0.6327 -0.6761 -0.3246
14109TIP3    H263819   5.951   4.817  14.088 -0.2248 -0.6030 -0.3760
14110TIP3   OH263820   0.830   2.133  16.114  0.6125 -0.2047 -0.2307
14110TIP3    H163821   0.851   2.208  16.170 -3.5203 -0.7097  2.3847
14110TIP3    H263822   0.888   2.063  16.146  1.8977  0.8407 -0.1686
14111TIP3   OH263823   2.895   6.049   5.297 -0.2299  0.5268  0.0400
14111TIP3    H163824   2.864   6.098   5.220 -0.4485  1.4180  0.6711
14111TIP3    H263825   2.829   5.981   5.311 -0.6084  0.8662 -0.0918
14112TIP3   OH263826   0.595   3.695   6.352 -0.3588  0.1199  0.2658
14112TIP3    H163827   0.608   3.695   6.447 -1.9962  2.4013  0.5764
14112TIP3    H263828   0.677   3.728   6.316  0.1260 -0.3537  0.9049
14113TIP3   OH263829   3.104   1.987  17.045  0.2735 -0.7153 -0.1040
14113TIP3    H163830   3.038   1.994  16.976 -0.4100 -0.8983  0.5258
14113TIP3    H263831   3.069   2.039  17.117 -0.0489 -2.2531  0.8901
14114TIP3   OH263832   1.451   5.314  11.120  0.0702  0.2551  0.3887
14114TIP3    H163833   1.429   5.407  11.127  0.0317  0.4666 -1.7493
14114TIP3    H263834   1.511   5.310  11.045 -1.5062 -1.6307 -0.8723
14115TIP3   OH263835   4.532   1.891  10.631 -0.5414  0.3297  0.4103
14115TIP3    H163836   4.509   1.913  10.540 -0.4226  0.9419  0.5202
14115TIP3    H263837   4.597   1.958  10.655  0.6842 -0.8210  0.3973
14116TIP3   OH263838   1.378   3.530  11.839  0.3356  0.4606  0.1864
14116TIP3    H163839   1.410   3.577  11.762 -0.1117 -1.0620 -0.9755
14116TIP3    H263840   1.457   3.494  11.880  0.5424  0.9920  0.2704
14117TIP3   OH263841   4.668   1.003  14.389 -0.5938 -0.2718  0.4022
14117TIP3    H163842   4.736   0.963  14.335 -0.4434  0.1587  0.2663
14117TIP3    H263843   4.603   1.034  14.326  0.7191  2.3979  0.2465
14118TIP3   OH263844   3.779   1.611  14.335 -0.0426 -0.2081 -0.4858
14118TIP3    H163845   3.831   1.558  14.397 -0.8284 -2.0402 -1.3188
14118TIP3    H263846   3.693   1.619  14.376  0.1956  0.8486 -0.1625
14119TIP3   OH263847   5.715   5.378   1.344  0.0021  0.3170  0.5301
14119TIP3    H163848   5.675   5.452   1.298 -0.0964  0.2487  0.5049
14119TIP3    H263849   5.683   5.385   1.434  0.6242  0.7618  0.7192
14120TIP3   OH263850   2.648   6.274  16.491 -0.1918  0.1695 -0.0101
14120TIP3    H163851   2.607   6.187  16.492 -1.2480  0.5281 -3.0176
14120TIP3    H263852   2.575   6.335  16.490  0.3489  0.9012 -2.8758
14121TIP3   OH263853   2.138   0.407  14.518  0.3686 -0.1617  0.0466
14121TIP3    H163854   2.189   0.468  14.465  0.7967 -1.4900 -1.1180
14121TIP3    H263855   2.147   0.322  14.474  1.0252 -1.4125  2.4133
14122TIP3   OH263856   5.254   0.050  13.192  0.1752 -0.1598  0.0395
14122TIP3    H163857   5.297  -0.035  13.196  0.9256  0.1799 -0.6746
14122TIP3    H263858   5.251   0.080  13.283  0.2918 -0.7564  0.2417
14123TIP3   OH263859   6.250   5.390  15.443  0.2285  0.0322  0.6463
14123TIP3    H163860   6.298   5.308  15.450 -0.2391 -0.3203 -0.1360
14123TIP3    H263861   6.162   5.369  15.474  0.4237  0.5463  1.5890
14124TIP3   OH263862   6.843   1.805  14.343  0.1445 -0.1565 -0.1125
14124TIP3    H163863   6.840   1.711  14.363  1.0324 -0.3737 -0.9205
14124TIP3    H263864   6.800   1.813  14.257  0.8997  0.0326 -0.4835
14125TIP3   OH263865   6.477   3.080   1.293  0.4120 -0.2853  0.1958
14125TIP3    H163866   6.488   3.135   1.216 -1.2186 -2.0157 -1.3924
14125TIP3    H263867   6.467   3.142   1.365 -0.4760  1.4932 -1.3536
14126TIP3   OH263868   6.359   6.344   5.260 -0.2812 -0.1834 -0.3973
14126TIP3    H163869   6.398   6.267   5.302 -0.4438 -0.7005 -1.1594
14126TIP3    H263870   6.271   6.349   5.298 -0.4486 -0.6804 -0.7143
14127TIP3   OH263871   5.849   0.330   5.262  0.6304 -0.2994 -0.4072
14127TIP3    H163872   5.897   0.363   5.186  0.5678  0.8763  0.0507
14127TIP3    H263873   5.757   0.337   5.238  0.5640  1.1006  0.1558
14128TIP3   OH263874   1.800   3.911  16.608  0.6366  0.0839  0.1007
14128TIP3    H163875   1.755   3.949  16.533  0.0695 -1.3368 -0.3160
14128TIP3    H263876   1.841   3.985  16.652  1.0462  0.9576 -1.6508
14129TIP3   OH263877   4.001   5.881   4.957  0.5288 -0.0797  0.2726
14129TIP3    H163878   3.957   5.798   4.972 -2.9386  1.3139 -0.9232
14129TIP3    H263879   4.051   5.868   4.876 -0.1980 -0.9520 -0.0539
14130TIP3   OH263880   5.081   5.210  15.201  0.0035  0.2371  0.0577
14130TIP3    H163881   5.084   5.115  15.193  0.4191  0.3074 -0.7245
14130TIP3    H263882   5.141   5.230  15.273  0.2560 -0.0616 -0.0702
14131TIP3   OH263883   2.098   6.335  15.597 -0.1623 -0.1859  0.1865
14131TIP3    H163884   2.100   6.408  15.659  0.3139  0.1580 -0.2175
14131TIP3    H263885   2.031   6.360  15.533 -0.4706 -0.4178  0.4202
14132TIP3   OH263886   5.436   6.174  12.952  0.3879 -0.0975  0.0862
14132TIP3    H163887   5.523   6.137  12.943  1.0669  1.3603  0.3228
14132TIP3    H263888   5.385   6.106  12.997  0.8354 -1.7336 -1.7305
14133TIP3   OH263889   2.011   4.854  14.512 -0.1512 -0.5420  0.0470
14133TIP3    H163890   2.075   4.916  14.478 -0.8229 -0.2312 -0.6918
14133TIP3    H263891   1.981   4.805  14.436 -2.6944  1.0947 -0.1591
14134TIP3   OH263892   1.450   4.884  13.302  0.4565  0.1388  0.3509
14134TIP3    H163893   1.456   4.978  13.318 -0.4124  0.7062 -2.1990
14134TIP3    H263894   1.534   4.862  13.261 -0.1495  0.2895 -1.0184
14135TIP3   OH263895   2.566   3.772   4.984 -0.0840 -0.2615  0.3137
14135TIP3    H163896   2.545   3.858   4.950 -1.0707 -0.3177  0.7503
14135TIP3    H263897   2.648   3.784   5.031  0.5977  0.0989 -0.9095
14136TIP3   OH263898   5.244   4.454  15.660  0.9285 -0.0566 -0.3952
14136TIP3    H163899   5.330   4.451  15.701  1.2022  0.7819 -0.8860
14136TIP3    H263900   5.189   4.501  15.723  1.2086  0.7238 -0.7157
14137TIP3   OH263901   0.870   6.054  13.328  0.7454  0.1399 -0.2605
14137TIP3    H163902   0.956   6.064  13.368 -0.1553 -0.4578  1.9980
14137TIP3    H263903   0.840   5.968  13.356 -0.8052  0.5560 -0.5407
14138TIP3   OH263904   1.536   3.742   2.505 -0.5319 -0.7359 -0.7490
14138TIP3    H163905   1.605   3.680   2.528 -1.9000 -2.3424 -0.7100
14138TIP3    H263906   1.548   3.759   2.412 -1.3294 -2.7455 -1.2690
14139TIP3   OH263907   6.125   5.866   1.638 -0.1928  0.1370 -0.1363
14139TIP3    H163908   6.045   5.831   1.677 -0.3947  1.1145  0.3483
14139TIP3    H263909   6.109   5.860   1.544  0.4301 -2.5336 -0.1579
14140TIP3   OH263910   2.963   5.111  15.666  0.1826 -0.3318  0.5132
14140TIP3    H163911   3.050   5.129  15.632  1.2213 -0.5241  2.8336
14140TIP3    H263912   2.937   5.028  15.625  2.3123 -1.7077  1.7259
14141TIP3   OH263913   1.030   3.701  13.085  0.1287  0.2844  0.0658
14141TIP3    H163914   1.060   3.784  13.047 -1.0614  0.1472 -1.2481
14141TIP3    H263915   0.978   3.727  13.161 -0.5025  0.7673 -0.5240
14142TIP3   OH263916   0.879   6.682   1.442 -0.2279  0.2232  0.4842
14142TIP3    H163917   0.889   6.600   1.489 -0.2692 -0.5262 -0.7675
14142TIP3    H263918   0.909   6.663   1.353 -2.7131  0.7793 -0.5729
14143TIP3   OH263919   1.280   2.468   2.581 -0.0674 -0.2921  0.7374
14143TIP3    H163920   1.336   2.408   2.629  1.9638 -0.0512 -1.1324
14143TIP3    H263921   1.287   2.551   2.628  0.1064 -0.6046  1.2668
14144TIP3   OH263922   0.621   1.993   4.235  0.4953  0.1086  0.6064
14144TIP3    H163923   0.631   1.967   4.144 -0.9806  2.0871 -0.1924
14144TIP3    H263924   0.597   1.913   4.281  0.7239 -0.8104 -0.8312
14145TIP3   OH263925   6.611   3.339  11.153  0.7205 -0.1005  0.0090
14145TIP3    H163926   6.530   3.338  11.100  1.1305 -0.0994 -0.6319
14145TIP3    H263927   6.587   3.292  11.233  0.5778 -1.7196 -0.9342
14146TIP3   OH263928   3.863   4.958  11.381 -0.2346 -0.6904 -0.4503
14146TIP3    H163929   3.931   5.025  11.379  0.5393 -1.4622 -2.0109
14146TIP3    H263930   3.845   4.939  11.289 -2.5819 -0.5381 -0.0823
14147TIP3   OH263931   5.531   5.059   4.153 -0.1755 -0.0080 -0.3330
14147TIP3    H163932   5.564   5.100   4.233  0.2953 -0.6517 -0.1898
14147TIP3    H263933   5.449   5.105   4.135  0.4163  1.1115 -0.2801
14148TIP3   OH263934   6.030   3.244   1.491 -0.4792 -0.1222  0.4754
14148TIP3    H163935   6.070   3.321   1.532 -1.9194  0.9713 -0.0800
14148TIP3    H263936   6.068   3.241   1.404 -0.7096  0.2083  0.3610
14149TIP3   OH263937   3.988   4.311   2.162  0.3876  0.1969  0.6824
14149TIP3    H163938   4.009   4.380   2.099 -0.6273  1.6500  1.8632
14149TIP3    H263939   4.033   4.234   2.129  1.3180  1.3420 -0.8572
14150TIP3   OH263940   2.134   6.463   1.388 -0.1680 -0.5285 -0.4504
14150TIP3    H163941   2.111   6.438   1.477 -3.2639  0.9708 -0.6907
14150TIP3    H263942   2.121   6.383   1.336 -1.1914 -0.6940  0.0415
14151TIP3   OH263943   2.652   4.395   0.484  0.2490  0.1850  0.5860
14151TIP3    H163944   2.639   4.311   0.439 -1.5949 -0.3278  1.9513
14151TIP3    H263945   2.567   4.416   0.521  1.1745  1.6442  2.0340
14152TIP3   OH263946   5.670   4.484  15.598  0.4154  0.8496 -0.7910
14152TIP3    H163947   5.728   4.408  15.593 -0.8237 -0.0650 -1.8465
14152TIP3    H263948   5.728   4.557  15.615  1.5907 -0.3974  0.8574
14153TIP3   OH263949   2.429   1.566   4.959  0.2560  1.1287  0.2391
14153TIP3    H163950   2.460   1.563   4.868 -1.5882 -0.6538 -0.4237
14153TIP3    H263951   2.420   1.659   4.978 -0.1481  1.5431 -1.7281
14154TIP3   OH263952   4.165   3.451  11.233 -0.5525 -0.5309 -0.2602
14154TIP3    H163953   4.111   3.389  11.282 -1.5372  0.5471  0.0795
14154TIP3    H263954   4.186   3.520  11.297  1.2757 -0.9313 -0.3777
14155TIP3   OH263955   2.658   6.498  16.238 -0.0948 -0.0149  0.1564
14155TIP3    H163956   2.683   6.431  16.301  0.2288 -0.1149 -0.0768
14155TIP3    H263957   2.586   6.459  16.188 -2.4997  1.1639  2.4531
14156TIP3   OH263958   6.730   6.223  13.903 -0.8677  0.4051 -0.1508
14156TIP3    H163959   6.826   6.223  13.907 -0.8106  1.3817 -1.0108
14156TIP3    H263960   6.707   6.136  13.869 -0.4628 -0.8324  2.5136
14157TIP3   OH263961   1.995   6.090   5.951  0.2730  0.5831  0.4392
14157TIP3    H163962   2.022   5.998   5.943 -0.5283  0.2844  1.0607
14157TIP3    H263963   1.918   6.098   5.894  0.2140  0.8178  0.5508
14158TIP3   OH263964   0.147   1.624   5.606 -0.0150 -1.0094 -0.3913
14158TIP3    H163965   0.224   1.579   5.642 -0.2957 -1.3758 -0.2402
14158TIP3    H263966   0.181   1.707   5.573  0.5761 -1.4753 -0.9844
14159TIP3   OH263967   4.963   2.639   1.473  0.2638  0.2298 -0.9014
14159TIP3    H163968   4.869   2.651   1.486  0.4703 -0.0360  1.0633
14159TIP3    H263969   4.975   2.650   1.378 -1.5954  1.2051 -1.0781
14160TIP3   OH263970   4.921   3.725  16.963 -0.1644 -0.2646 -0.5989
14160TIP3    H163971   4.904   3.792  16.897 -0.6877  0.7795  0.5522
14160TIP3    H263972   4.845   3.666  16.957 -0.3718  0.0103 -0.6971
14161TIP3   OH263973   4.279   3.321   4.386 -0.5090 -0.4074 -0.7632
14161TIP3    H163974   4.197   3.354   4.349 -0.8639  0.3563  0.6268
14161TIP3    H263975   4.346   3.380   4.352 -0.6360 -0.5184 -1.2233
14162TIP3   OH263976   1.866   5.009   1.774  0.5999  0.0305 -0.0933
14162TIP3    H163977   1.916   5.024   1.854  0.0370  0.3333  0.2056
14162TIP3    H263978   1.779   5.042   1.793  0.6257  0.6934 -1.0472
14163TIP3   OH263979   3.506   3.358  12.059 -0.0767 -0.4378  0.6161
14163TIP3    H163980   3.498   3.262  12.058 -0.2575 -0.4372 -0.7824
14163TIP3    H263981   3.433   3.388  12.004  1.1207  0.3774 -0.5868
14164TIP3   OH263982   2.468   6.113   1.084 -0.2640  0.1103 -0.1662
14164TIP3    H163983   2.552   6.157   1.090 -0.1771 -0.0937  0.1337
14164TIP3    H263984   2.449   6.110   0.990 -0.3228  0.8770 -0.1849
14165TIP3   OH263985   0.990   5.081  16.268 -0.2411  0.1260 -0.1386
14165TIP3    H163986   1.058   5.050  16.327  0.3782  1.7174  0.0336
14165TIP3    H263987   1.037   5.117  16.193 -0.9374  0.2267 -0.5360
14166TIP3   OH263988   4.105   0.598   3.223  0.5423  0.4772  0.6495
14166TIP3    H163989   4.144   0.526   3.174  0.8501  0.5548  0.7812
14166TIP3    H263990   4.075   0.660   3.156  0.3180  0.2482  0.5387
14167TIP3   OH263991   2.909   4.656   5.362 -0.3340 -0.1740  0.1488
14167TIP3    H163992   2.814   4.654   5.377 -0.1701 -1.2613  1.1086
14167TIP3    H263993   2.947   4.673   5.448  0.4205 -1.6592  0.1364
14168TIP3   OH263994   2.659   6.824   5.183  0.1630 -0.6086  0.1325
14168TIP3    H163995   2.587   6.760   5.183 -0.2713 -0.3682  4.1583
14168TIP3    H263996   2.616   6.908   5.203  1.3362 -0.0668  0.4351
14169TIP3   OH263997   6.173   4.312  10.702 -0.2088 -0.3155 -0.7935
14169TIP3    H163998   6.131   4.320  10.616  0.8734  0.0964 -1.3072
14169TIP3    H263999   6.235   4.240  10.692 -0.7285 -0.8824 -0.0600
14170TIP3   OH264000   6.327   0.320   5.467 -0.1855 -0.2348  0.3864
14170TIP3    H164001   6.253   0.380   5.477 -3.1589 -3.6317  0.7658
14170TIP3    H264002   6.384   0.339   5.542 -1.3360  1.5495  0.8722
14171TIP3   OH264003   4.728   5.434  12.368  0.2883  0.1187 -0.2862
14171TIP3    H164004   4.793   5.395  12.427  0.1480 -0.1627 -0.3142
14171TIP3    H264005   4.711   5.365  12.303 -0.0146  0.2042 -0.2967
14172TIP3   OH264006   5.883   3.853   3.728 -0.6886 -0.7105  0.1178
14172TIP3    H164007   5.818   3.902   3.778 -0.7647  0.9307 -1.4522
14172TIP3    H264008   5.907   3.780   3.784 -2.6777 -0.4479  1.4146
14173TIP3   OH264009   1.007   0.650   6.123  0.1139  0.1718  0.1363
14173TIP3    H164010   0.930   0.597   6.100 -0.2262  1.0621 -0.8315
14173TIP3    H264011   1.066   0.587   6.164 -0.9190 -0.6378  0.4537
14174TIP3   OH264012   4.930   4.796   1.087  0.6154 -0.2184  0.0855
14174TIP3    H164013   4.841   4.803   1.123  1.2022 -2.0581  2.0569
14174TIP3    H264014   4.946   4.882   1.049 -1.2713  0.8421  1.4833
14175TIP3   OH264015   6.112   2.927   5.473  0.5554  0.0988 -0.5042
14175TIP3    H164016   6.115   2.838   5.509 -0.0257  0.2351 -0.1148
14175TIP3    H264017   6.183   2.928   5.408  1.6781 -0.1216  0.6792
14176TIP3   OH264018   6.578   5.216  15.567  0.2274  0.2794 -0.2567
14176TIP3    H164019   6.580   5.208  15.471 -0.5126 -2.4337 -0.1431
14176TIP3    H264020   6.670   5.223  15.592  0.4377  0.8440 -1.1464
14177TIP3   OH264021   4.273   6.412  11.106  0.1479 -0.1835 -0.2700
14177TIP3    H164022   4.325   6.334  11.086  2.5573  1.6811 -1.6540
14177TIP3    H264023   4.266   6.459  11.024  0.6261  2.1377  0.9370
14178TIP3   OH264024   0.540   6.418  13.387  0.0881  0.5465  0.4711
14178TIP3    H164025   0.528   6.328  13.417 -0.8620  0.2889 -0.6571
14178TIP3    H264026   0.533   6.471  13.467  0.6400 -0.3664  1.1342
14179TIP3   OH264027   4.904   3.375  13.193  0.6638 -0.3217 -0.0319
14179TIP3    H164028   4.987   3.380  13.146 -0.1946  1.8193 -1.4523
14179TIP3    H264029   4.889   3.464  13.225 -0.5562 -0.9292  1.1897
14180TIP3   OH264030   2.783   5.966   0.548  0.2486 -0.2015  0.1775
14180TIP3    H164031   2.765   5.901   0.481 -1.0697 -1.5609  1.7691
14180TIP3    H264032   2.877   5.959   0.564  0.7353  0.6403 -1.9303
14181TIP3   OH264033   5.142   3.739   3.455 -0.4974  0.2669 -0.2224
14181TIP3    H164034   5.055   3.778   3.458 -0.4445  0.3289  1.7875
14181TIP3    H264035   5.127   3.647   3.432 -1.0673  0.3284 -0.1060
14182TIP3   OH264036   5.875   6.381   4.512  0.0382 -0.6794 -0.7399
14182TIP3    H164037   5.911   6.299   4.477 -0.9973 -0.4114 -2.5593
14182TIP3    H264038   5.949   6.441   4.511  1.9617 -2.4053  4.2912
14183TIP3   OH264039   5.734   1.496  13.198 -0.3864  0.1967 -0.1186
14183TIP3    H164040   5.760   1.556  13.268 -2.0003 -0.0982  0.7946
14183TIP3    H264041   5.703   1.418  13.244  0.9404 -1.0545 -1.2689
14184TIP3   OH264042   1.028   1.522  16.910  0.1458 -0.2644 -0.1584
14184TIP3    H164043   1.102   1.462  16.901  1.2733  0.7948  1.4140
14184TIP3    H264044   1.001   1.514  17.002 -1.3128 -0.1847 -0.5529
14185TIP3   OH264045   4.513   3.507  13.756  0.5273  0.3031 -0.4717
14185TIP3    H164046   4.596   3.552  13.769  1.3086 -1.4183  1.0519
14185TIP3    H264047   4.532   3.440  13.690  0.3470 -0.0669 -0.1518
14186TIP3   OH264048   2.152   3.035   0.844 -0.0793  0.1723 -0.2850
14186TIP3    H164049   2.223   2.971   0.832  0.5282  0.8724 -0.5049
14186TIP3    H264050   2.110   3.040   0.758  0.7500  1.0766 -0.6534
14187TIP3   OH264051   1.030   6.780   2.739 -0.9300  0.5069 -0.0168
14187TIP3    H164052   1.033   6.695   2.783 -2.8112  0.2184 -0.3444
14187TIP3    H264053   1.047   6.844   2.809  0.0704 -0.0998  0.3123
14188TIP3   OH264054   4.912   3.796   4.887 -0.5901 -0.0636 -0.0687
14188TIP3    H164055   4.954   3.722   4.843  2.0975  1.1196  0.2948
14188TIP3    H264056   4.855   3.756   4.953 -0.5445 -1.7913 -1.0322
14189TIP3   OH264057   5.721   6.104  11.267  0.0256 -0.3674 -0.2887
14189TIP3    H164058   5.630   6.104  11.239  0.2603 -1.2748 -1.1044
14189TIP3    H264059   5.770   6.068  11.193  1.1574  0.8044 -0.1638
14190TIP3   OH264060   4.843   0.433   2.964 -0.0029  0.2025  0.2257
14190TIP3    H164061   4.922   0.398   3.004  0.5924  0.5663 -0.6074
14190TIP3    H264062   4.811   0.498   3.028 -0.0679 -0.4847  0.9079
14191TIP3   OH264063   5.625   5.088   3.611  0.5288 -0.2164  0.4102
14191TIP3    H164064   5.673   5.091   3.694  0.2240  1.5556  0.5451
14191TIP3    H264065   5.553   5.027   3.628  1.5933 -1.4419  0.7852
14192TIP3   OH264066   0.148   1.973   5.034 -0.1300 -0.1565  0.1288
14192TIP3    H164067   0.127   2.022   5.113  0.8194 -0.7745  0.7790
14192TIP3    H264068   0.186   1.892   5.065  0.3478 -0.3698 -0.9670
14193TIP3   OH264069   5.624   0.549  15.887  0.1412 -0.2051  0.3085
14193TIP3    H164070   5.710   0.528  15.922  0.3977  0.2979 -0.0005
14193TIP3    H264071   5.596   0.626  15.937  0.7161  0.8125 -0.8790
14194TIP3   OH264072   5.623   0.979   1.979  0.0759  0.1225 -0.4190
14194TIP3    H164073   5.583   0.901   1.940  1.1694 -1.0009  0.5896
14194TIP3    H264074   5.669   1.021   1.907 -0.5137 -0.1868 -0.9794
14195TIP3   OH264075   2.186   5.275   4.102 -0.1481 -0.3447 -0.1872
14195TIP3    H164076   2.270   5.317   4.119 -0.3128 -0.2880  0.4951
14195TIP3    H264077   2.202   5.182   4.117  0.2822 -0.5863 -1.9451
14196TIP3   OH264078   1.102   1.328  11.199  0.3723  0.0243  0.3146
14196TIP3    H164079   1.028   1.358  11.147  1.7664  1.5257 -0.8959
14196TIP3    H264080   1.167   1.299  11.134  1.0856 -0.7134  1.3250
14197TIP3   OH264081   3.766   3.772  15.870 -0.2932 -0.3941  0.0020
14197TIP3    H164082   3.741   3.684  15.898 -0.1615  0.1006  1.7900
14197TIP3    H264083   3.852   3.786  15.908 -0.3738  0.5664 -0.1490
14198TIP3   OH264084   3.702   1.986  12.406 -0.7501  0.1427 -0.5447
14198TIP3    H164085   3.715   2.015  12.496  1.9043 -3.7346  0.5675
14198TIP3    H264086   3.759   2.043  12.354  1.2089 -0.3965  0.9138
14199TIP3   OH264087   0.275   6.793   2.544  0.0883  0.4007 -0.0831
14199TIP3    H164088   0.248   6.882   2.521  0.4099 -0.0487 -2.4416
14199TIP3    H264089   0.237   6.738   2.476  1.7842 -1.0080  0.0418
14200TIP3   OH264090   6.559   5.586  13.031  0.4127 -0.3092 -0.0501
14200TIP3    H164091   6.552   5.492  13.017 -1.2860 -0.5759  2.1263
14200TIP3    H264092   6.469   5.618  13.029  1.0031  1.4903 -1.7148
14201TIP3   OH264093   0.264   0.524   1.297  0.3282  0.1081 -0.1256
14201TIP3    H164094   0.171   0.512   1.280  0.1134 -0.1956  1.1493
14201TIP3    H264095   0.281   0.616   1.280  0.2904 -0.2512 -2.4569
14202TIP3   OH264096   3.142   5.307   1.337 -0.1651  0.2126 -0.7400
14202TIP3    H164097   3.192   5.319   1.256  1.6590 -2.5422 -0.1707
14202TIP3    H264098   3.205   5.325   1.407 -0.5773 -1.0817  0.0044
14203TIP3   OH264099   4.464   3.522  16.198 -0.1456 -0.6852 -0.8007
14203TIP3    H164100   4.480   3.604  16.244  0.7027 -2.4466  2.3041
14203TIP3    H264101   4.369   3.515  16.193 -0.2633 -0.3580  0.6292
14204TIP3   OH264102   2.953   4.508   5.908 -0.2942 -0.2259  0.1689
14204TIP3    H164103   2.876   4.526   5.855 -0.0030 -1.6761 -0.8197
14204TIP3    H264104   2.962   4.585   5.964 -1.9987  0.3069 -0.2201
14205TIP3   OH264105   6.558   3.849   2.071  0.1295 -0.2102 -0.0798
14205TIP3    H164106   6.645   3.887   2.075  0.2444 -0.4386 -0.3532
14205TIP3    H264107   6.498   3.924   2.071  0.3617 -0.0209 -0.9603
14206TIP3   OH264108   2.879   3.062   0.789  0.0166 -0.0219 -0.0578
14206TIP3    H164109   2.946   2.998   0.811 -0.4428 -0.0247  1.4383
14206TIP3    H264110   2.814   3.013   0.739  0.8878 -0.1139 -1.1395
14207TIP3   OH264111   0.837   2.884   3.103  0.2940 -0.8406  0.7533
14207TIP3    H164112   0.786   2.878   3.022  0.7404 -0.5953  0.4498
14207TIP3    H264113   0.788   2.945   3.157 -0.9213 -2.2901  1.3651
14208TIP3   OH264114   5.212   2.708  14.906 -0.3178  0.4019  0.2320
14208TIP3    H164115   5.129   2.732  14.949 -1.6462  1.0724 -2.5037
14208TIP3    H264116   5.192   2.626  14.860  0.4345  0.7166 -0.6848
14209TIP3   OH264117   5.493   5.119  14.375  0.2698  0.0330  0.4068
14209TIP3    H164118   5.552   5.100  14.302 -1.2105  0.0142 -0.8471
14209TIP3    H264119   5.409   5.081  14.348 -0.7242  1.4063  1.4086
14210TIP3   OH264120   2.954   6.011   5.865 -0.1372  0.0505  0.0413
14210TIP3    H164121   2.925   6.094   5.902  0.9418  1.0169 -1.1874
14210TIP3    H264122   2.903   6.002   5.784 -1.2940 -1.2407  0.8539
14211TIP3   OH264123   6.347   6.139   1.010 -0.0565 -0.2446  0.1921
14211TIP3    H164124   6.414   6.117   1.075 -0.6508 -0.0959  0.8665
14211TIP3    H264125   6.304   6.055   0.992  0.8584 -0.5086 -0.8957
14212TIP3   OH264126   2.275   0.105   5.192 -0.2259  0.1582 -0.5516
14212TIP3    H164127   2.255   0.081   5.102 -0.5235  0.6813 -0.6307
14212TIP3    H264128   2.191   0.134   5.228 -0.2462 -0.6753  0.0984
14213TIP3   OH264129   1.976   1.728  15.492 -0.0415 -0.2960 -0.6525
14213TIP3    H164130   1.908   1.763  15.550  0.3173  0.7080 -0.8029
14213TIP3    H264131   1.972   1.633  15.503  0.1322 -0.1293  1.1706
14214TIP3   OH264132   1.855   5.591  13.358 -0.8601 -0.0895  0.1825
14214TIP3    H164133   1.868   5.657  13.291 -1.1907 -0.2319 -0.0270
14214TIP3    H264134   1.940   5.580  13.399 -0.5172 -0.4251 -0.6059
14215TIP3   OH264135   3.795   3.713  15.264 -0.2733 -0.1408 -0.0573
14215TIP3    H164136   3.759   3.669  15.187 -0.3130 -0.7601  0.3047
14215TIP3    H264137   3.849   3.646  15.307 -3.4785 -1.2466  2.7464
14216TIP3   OH264138   6.540   3.433   4.315  0.0953 -0.1492 -0.1690
14216TIP3    H164139   6.548   3.338   4.324  1.0419  0.0049  0.8047
14216TIP3    H264140   6.604   3.457   4.249 -0.9069 -0.2901 -1.2297
14217TIP3   OH264141   0.947   0.362  15.948  0.7628 -0.1949  0.0655
14217TIP3    H164142   1.041   0.381  15.946  0.4071  1.8008 -0.8931
14217TIP3    H264143   0.906   0.439  15.908 -1.2504 -1.3046 -0.1749
14218TIP3   OH264144   4.849   1.207   6.359  0.2349 -0.3882  0.0590
14218TIP3    H164145   4.883   1.296   6.347 -0.1233 -0.0750  1.2499
14218TIP3    H264146   4.921   1.159   6.400  0.0398 -0.3524  0.4390
14219TIP3   OH264147   4.575   5.330  16.137 -0.3055 -0.0277 -0.5331
14219TIP3    H164148   4.617   5.253  16.174  2.0036  1.5803  0.4659
14219TIP3    H264149   4.608   5.335  16.047 -0.8854 -0.4890 -0.7731
14220TIP3   OH264150   4.606   2.895   2.165 -0.1222  0.7638 -0.5885
14220TIP3    H164151   4.680   2.848   2.204  0.5363  0.4381 -2.1233
14220TIP3    H264152   4.646   2.960   2.107 -1.0089  0.4062 -1.6560
14221TIP3   OH264153   4.853   0.536   4.430  0.1644 -0.4946 -0.3582
14221TIP3    H164154   4.823   0.488   4.507  0.3995  0.6457  0.4665
14221TIP3    H264155   4.781   0.595   4.408  0.1142 -0.7840 -1.0028
14222TIP3   OH264156   3.446   0.468   1.536  0.3908 -0.4879 -0.7960
14222TIP3    H164157   3.436   0.377   1.510  0.2039  0.0131 -2.6793
14222TIP3    H264158   3.449   0.516   1.453 -1.3267  1.4169  0.1573
14223TIP3   OH264159   1.807   3.294  16.526 -0.6914 -0.2058 -0.3495
14223TIP3    H164160   1.808   3.213  16.475  0.9859  0.5754 -1.6542
14223TIP3    H264161   1.780   3.362  16.464  1.0574  0.7090 -0.1725
14224TIP3   OH264162   4.987   5.846   5.121  0.1886  0.0874 -0.4960
14224TIP3    H164163   5.030   5.872   5.202  0.2769 -1.7571  0.0812
14224TIP3    H264164   5.046   5.877   5.052  0.8124  0.4365  0.1744
14225TIP3   OH264165   6.341   3.504  10.663  0.1228 -0.6709  0.2799
14225TIP3    H164166   6.302   3.591  10.651 -0.5271 -1.0493 -0.4202
14225TIP3    H264167   6.404   3.496  10.592  0.4380 -0.6444  0.5513
14226TIP3   OH264168   2.311   4.922  12.469  0.1445  0.3182 -0.1899
14226TIP3    H164169   2.356   4.840  12.448 -0.1689  0.3418 -0.9585
14226TIP3    H264170   2.285   4.958  12.385 -0.9262  0.5362  0.2213
14227TIP3   OH264171   1.216   1.966   2.248  0.2074 -0.1322 -0.0891
14227TIP3    H164172   1.294   1.915   2.269  0.3380 -0.1038 -0.4957
14227TIP3    H264173   1.215   1.969   2.152  1.5609  2.6520 -0.1176
14228TIP3   OH264174   5.601   5.475   5.001  0.2316  0.6705 -0.3757
14228TIP3    H164175   5.572   5.537   4.934 -1.3852 -0.8629 -1.1812
14228TIP3    H264176   5.565   5.391   4.973  2.7941 -0.7984  0.3746
14229TIP3   OH264177   1.941   3.452  14.469 -0.0978 -0.0980  0.0252
14229TIP3    H164178   1.901   3.525  14.516 -0.7283 -0.0158 -0.6280
14229TIP3    H264179   1.868   3.393  14.450 -0.0126  0.2641 -1.5651
14230TIP3   OH264180   6.304   5.092  15.886  0.1919  0.1265 -0.5930
14230TIP3    H164181   6.364   5.113  15.958  2.5459 -3.3426 -1.2551
14230TIP3    H264182   6.362   5.070  15.813 -2.0918  3.4186 -3.7333
14231TIP3   OH264183   5.795   3.351   4.273  0.3758 -0.1981 -0.2895
14231TIP3    H164184   5.702   3.360   4.250  0.1925 -0.4372  0.3253
14231TIP3    H264185   5.816   3.260   4.251 -0.0322 -0.6900  1.2328
14232TIP3   OH264186   3.045   6.257   1.937 -0.0700 -0.5240  0.0545
14232TIP3    H164187   3.081   6.213   2.014  0.7003 -1.1126 -0.6230
14232TIP3    H264188   2.986   6.324   1.973 -1.2043 -2.0367  1.1165
14233TIP3   OH264189   1.921   3.689   1.598  0.2144  0.8355 -0.0877
14233TIP3    H164190   1.826   3.679   1.612  0.0257  3.3534  0.8497
14233TIP3    H264191   1.954   3.599   1.599 -2.2216 -0.1761 -1.0937
14234TIP3   OH264192   5.509   4.370  16.224 -0.3254  0.1717 -0.0609
14234TIP3    H164193   5.419   4.377  16.255 -0.3735 -1.0678  0.0982
14234TIP3    H264194   5.561   4.354  16.303 -0.0512  0.1839 -0.2369
14235TIP3   OH264195   6.665   3.219   3.087 -0.3060 -0.1502  0.4297
14235TIP3    H164196   6.721   3.146   3.114 -0.9316 -0.4310  1.0074
14235TIP3    H264197   6.677   3.225   2.992  1.6149  0.5783  0.6812
14236TIP3   OH264198   5.905   0.282   2.938 -0.4171  0.3637 -0.7131
14236TIP3    H164199   5.977   0.296   2.876 -1.5732 -1.0041 -2.4455
14236TIP3    H264200   5.898   0.187   2.945 -1.8851  0.4756 -0.3910
14237TIP3   OH264201   6.443   2.862  11.364 -0.6093  0.0951  0.4910
14237TIP3    H164202   6.495   2.809  11.303 -0.4968  1.2564 -0.4598
14237TIP3    H264203   6.352   2.841  11.341 -0.5940 -0.9948  1.3198
14238TIP3   OH264204   1.922   4.181  12.715 -0.0238  0.1538 -1.0209
14238TIP3    H164205   1.935   4.099  12.667 -2.1899 -0.5216 -0.5772
14238TIP3    H264206   1.874   4.237  12.655  1.5961  1.2043 -1.3817
14239TIP3   OH264207   0.873   4.238   3.737 -0.1370  0.9853  0.0057
14239TIP3    H164208   0.807   4.223   3.805 -0.0672 -1.0118 -0.3314
14239TIP3    H264209   0.825   4.232   3.655  0.4436 -0.4516 -0.2418
14240TIP3   OH264210   2.767   5.506   3.981  0.3959  0.3047 -0.0682
14240TIP3    H164211   2.695   5.567   4.000  0.1103 -0.2044  0.4805
14240TIP3    H264212   2.844   5.546   4.021 -0.2803 -1.0200  2.7903
14241TIP3   OH264213   3.728   5.526  10.655  0.3714  0.1724 -0.3431
14241TIP3    H164214   3.742   5.582  10.579 -0.2773 -1.9785 -2.1596
14241TIP3    H264215   3.635   5.535  10.675 -0.0215 -1.1146 -1.4371
14242TIP3   OH264216   5.954   5.811   0.246 -0.6382  0.1584 -0.1217
14242TIP3    H164217   6.000   5.801   0.329 -0.5858  0.0884 -0.1594
14242TIP3    H264218   5.912   5.897   0.252  0.6484  0.8444 -0.6528
14243TIP3   OH264219   0.201   6.790   1.183  0.1409 -0.2468  0.3611
14243TIP3    H164220   0.293   6.808   1.203 -0.2361  1.8985  0.3950
14243TIP3    H264221   0.200   6.776   1.088  0.4421  0.1336  0.3004
14244TIP3   OH264222   5.649   4.007   4.125  0.6014  0.0577  0.3424
14244TIP3    H164223   5.737   3.979   4.102  0.4478  0.0313 -0.2380
14244TIP3    H264224   5.634   3.970   4.212  0.8076 -0.7659  0.0409
14245TIP3   OH264225   6.768   5.263  11.338 -0.2125 -0.3060  0.3156
14245TIP3    H164226   6.685   5.305  11.313  0.6387  1.0716 -0.3084
14245TIP3    H264227   6.791   5.210  11.261  0.0331  0.1776  0.0554
14246TIP3   OH264228   0.585   5.094   2.915  0.3545  0.2561  0.2366
14246TIP3    H164229   0.572   5.068   2.823  0.4856 -1.9626  0.8051
14246TIP3    H264230   0.655   5.037   2.946  0.6241  1.3022  1.6203
14247TIP3   OH264231   4.125   2.127   5.949  0.4949  0.3106 -0.5097
14247TIP3    H164232   4.076   2.046   5.963  0.5191  0.2087 -0.9758
14247TIP3    H264233   4.074   2.195   5.992  0.4835  0.0418 -0.1023
14248TIP3   OH264234   4.628   4.329   0.933 -0.1571  0.1953  0.2005
14248TIP3    H164235   4.578   4.247   0.933  1.2175 -0.6692 -0.1095
14248TIP3    H264236   4.568   4.393   0.972 -1.9986 -0.4679 -1.3754
14249TIP3   OH264237   4.883   4.716   2.141  0.6143 -1.0240 -0.2064
14249TIP3    H164238   4.857   4.682   2.055  0.3251  0.5329 -0.7581
14249TIP3    H264239   4.964   4.764   2.124 -0.5296  1.0804 -0.0554
14250TIP3   OH264240   5.539   0.793  16.402 -0.2739  1.0919  0.3127
14250TIP3    H164241   5.490   0.854  16.456 -0.7055  0.0343  1.1555
14250TIP3    H264242   5.549   0.715  16.456  0.7376  0.6065 -0.5256
14251TIP3   OH264243   2.092   0.382   4.668  0.2066 -0.6093  0.3349
14251TIP3    H164244   2.121   0.322   4.737 -0.1708 -1.7246 -0.4553
14251TIP3    H264245   2.040   0.447   4.714  0.9397 -0.6529  1.2653
14252TIP3   OH264246   6.639   5.376  14.227  0.9226  0.3712  0.2733
14252TIP3    H164247   6.732   5.376  14.251  1.7336  1.0917 -2.4754
14252TIP3    H264248   6.623   5.465  14.194 -0.3342 -0.1743 -0.6555
14253TIP3   OH264249   1.955   5.369  16.001  0.1886 -0.6628  0.1964
14253TIP3    H164250   1.939   5.284  15.960  2.1199  0.3446 -3.0470
14253TIP3    H264251   1.891   5.428  15.960  1.9094  0.2990 -1.2441
14254TIP3   OH264252   0.145   0.793  16.310  0.0112 -0.1972 -0.1871
14254TIP3    H164253   0.180   0.736  16.241  1.5093  0.3175  0.1034
14254TIP3    H264254   0.157   0.882  16.276  0.1609  0.0353  0.4576
14255TIP3   OH264255   6.561   0.715  14.811  0.1536 -0.7412  0.5568
14255TIP3    H164256   6.483   0.688  14.762  1.9371 -0.4239 -2.8014
14255TIP3    H264257   6.551   0.809  14.824  0.1601 -0.6110 -0.3195
14256TIP3   OH264258   3.615   2.656   5.054 -0.3369  0.2376 -0.0508
14256TIP3    H164259   3.577   2.691   4.973 -1.6472 -1.1630 -0.0969
14256TIP3    H264260   3.567   2.701   5.124  0.3068  0.9320 -0.0415
14257TIP3   OH264261   5.560   4.489  14.506 -0.2105  0.1409  0.1517
14257TIP3    H164262   5.605   4.555  14.453 -0.0351 -0.0667  0.0451
14257TIP3    H264263   5.610   4.486  14.587  0.1074 -0.2638 -0.0616
14258TIP3   OH264264   3.401   6.001   4.141  0.0104 -0.5545  0.5879
14258TIP3    H164265   3.487   5.992   4.100  0.8229 -0.8402  2.2578
14258TIP3    H264266   3.382   6.094   4.137  1.7718 -0.0107  2.6973
14259TIP3   OH264267   5.979   3.950   5.742 -0.2621  0.3815 -0.1460
14259TIP3    H164268   5.950   3.942   5.651 -2.5261  2.4950  0.2827
14259TIP3    H264269   6.031   4.030   5.743  0.2011  0.0813  0.3490
14260TIP3   OH264270   0.911   0.014  11.958 -0.1236 -0.0905 -0.0274
14260TIP3    H164271   0.980   0.079  11.970  0.5617 -0.8000 -0.0372
14260TIP3    H264272   0.834   0.065  11.931  0.7136  0.5841 -1.1818
14261TIP3   OH264273   2.096   3.167   3.185 -0.0777  0.1593 -0.3178
14261TIP3    H164274   2.020   3.122   3.220 -0.1813 -1.2381 -2.1754
14261TIP3    H264275   2.061   3.245   3.142  0.0286  1.7448  2.2797
14262TIP3   OH264276   4.642   4.811  15.376  0.4308 -0.2063  0.4048
14262TIP3    H164277   4.595   4.854  15.448  1.0898  1.0748  0.1017
14262TIP3    H264278   4.662   4.882  15.315  2.4622 -0.7785  0.3615
14263TIP3   OH264279   0.386   5.800  16.216 -0.2424 -0.2876 -0.1574
14263TIP3    H164280   0.368   5.821  16.308  2.0959  1.1382  0.0661
14263TIP3    H264281   0.439   5.873  16.185 -0.7285 -0.8788 -2.5919
14264TIP3   OH264282   3.199   1.593   3.425 -0.0741 -0.4966  0.2136
14264TIP3    H164283   3.217   1.548   3.342  0.3783  1.8899 -1.0564
14264TIP3    H264284   3.117   1.639   3.410  0.1094  0.1183  1.0173
14265TIP3   OH264285   4.706   1.134   1.051 -0.1166 -0.4032 -0.4316
14265TIP3    H164286   4.613   1.127   1.030 -0.4824  0.4906  0.8330
14265TIP3    H264287   4.740   1.197   0.988 -0.3864 -0.6048 -0.7849
14266TIP3   OH264288   5.913   4.359  16.997  0.5198  0.8276  0.0945
14266TIP3    H164289   5.959   4.398  17.071  0.6588  0.6621  0.0962
14266TIP3    H264290   5.872   4.280  17.032  0.5970  0.7415 -0.0071
14267TIP3   OH264291   5.909   5.703   1.181 -0.5824  0.1978 -0.6684
14267TIP3    H164292   5.900   5.684   1.088 -2.5378  0.2358 -0.5341
14267TIP3    H264293   5.913   5.799   1.186  1.7650  0.1473 -0.8326
14268TIP3   OH264294   1.407   4.659   4.333 -0.3740 -0.8977 -0.2256
14268TIP3    H164295   1.352   4.734   4.310 -1.4263 -1.4398  0.4331
14268TIP3    H264296   1.434   4.621   4.249 -0.1655 -0.0313 -0.5585
14269TIP3   OH264297   4.113   5.671   5.624  0.4443  0.5524  0.6722
14269TIP3    H164298   4.107   5.608   5.552  0.1345 -0.0336  1.1940
14269TIP3    H264299   4.151   5.620   5.696 -0.2205  0.8486  1.2344
14270TIP3   OH264300   2.500   5.537  13.394  0.0561 -0.6817  0.1689
14270TIP3    H164301   2.524   5.453  13.435  1.1250 -0.7602 -0.5611
14270TIP3    H264302   2.459   5.512  13.311 -2.4797 -0.5357  1.2875
14271TIP3   OH264303   3.063   5.812   0.146 -0.4334 -0.4402  0.0130
14271TIP3    H164304   3.002   5.740   0.159  1.3674 -1.8511  1.2361
14271TIP3    H264305   3.148   5.776   0.172  0.3910  2.4750  1.8852
14272TIP3   OH264306   3.665   4.450  11.451  0.4352  0.1384 -0.1352
14272TIP3    H164307   3.751   4.412  11.434 -0.6776 -1.9125 -1.5659
14272TIP3    H264308   3.654   4.442  11.546  1.5232 -0.2379 -0.0253
14273TIP3   OH264309   3.788   6.073   1.781 -0.3081 -0.2310 -0.1786
14273TIP3    H164310   3.811   6.138   1.715 -0.7850  2.2644  1.9174
14273TIP3    H264311   3.869   6.060   1.831 -0.5811 -0.1072  0.3040
14274TIP3   OH264312   5.784   6.620  16.477  0.3105 -0.3555  0.6161
14274TIP3    H164313   5.728   6.641  16.552  0.6899  1.0884  0.5078
14274TIP3    H264314   5.871   6.650  16.502  0.6456 -0.7885 -0.0060
14275TIP3   OH264315   1.137   5.892  14.717 -0.1055  0.0277 -1.0075
14275TIP3    H164316   1.195   5.815  14.722 -1.3601 -0.8656  0.4895
14275TIP3    H264317   1.064   5.862  14.663 -1.4099 -0.4444  0.9259
14276TIP3   OH264318   2.918   2.792  15.660 -0.0794 -0.3532 -0.4210
14276TIP3    H164319   2.943   2.839  15.581 -0.3100  0.0185 -0.2757
14276TIP3    H264320   3.001   2.756  15.693 -0.2584 -2.3948 -2.0002
14277TIP3   OH264321   0.573   2.076   5.158  0.2039 -0.4229 -0.0573
14277TIP3    H164322   0.571   1.992   5.205  0.6380 -0.4450 -0.0712
14277TIP3    H264323   0.506   2.129   5.201 -0.9176 -1.1777 -0.8120
14278TIP3   OH264324   5.116   0.177  16.986  0.2156  0.1167 -0.2241
14278TIP3    H164325   5.094   0.085  16.998 -0.7050  0.2372 -0.8699
14278TIP3    H264326   5.142   0.207  17.073 -0.0101 -0.6118  0.1005
14279TIP3   OH264327   3.717   2.199   3.013  0.2708  0.3173 -0.3388
14279TIP3    H164328   3.687   2.153   3.091  2.5632  0.5701  0.7843
14279TIP3    H264329   3.747   2.130   2.955 -1.3854  0.1319 -1.0307
14280TIP3   OH264330   1.165   4.440   5.795 -0.5489  0.3960  0.6641
14280TIP3    H164331   1.244   4.457   5.847  1.4420 -1.1413 -1.5734
14280TIP3    H264332   1.102   4.505   5.824  2.0164  2.6335  1.6645
14281TIP3   OH264333   4.912   4.001  11.213  0.1312 -0.2929 -0.3080
14281TIP3    H164334   4.912   3.909  11.240 -1.6492 -0.0961  0.4808
14281TIP3    H264335   5.003   4.018  11.187  0.9891 -1.6876  1.5233
14282TIP3   OH264336   0.283   0.869  16.861 -0.1766 -0.6644 -0.3689
14282TIP3    H164337   0.196   0.861  16.900 -0.9601  2.1629 -1.3254
14282TIP3    H264338   0.279   0.949  16.809  2.5503 -1.2751 -1.6966
14283TIP3   OH264339   3.612   0.705  15.507  0.3191  0.1771  0.1322
14283TIP3    H164340   3.643   0.615  15.495  1.4767  0.4521  0.8336
14283TIP3    H264341   3.678   0.745  15.563 -1.2437  0.8893  1.5280
14284TIP3   OH264342   2.086   4.908  10.481 -0.2188 -0.3096  0.4913
14284TIP3    H164343   2.167   4.960  10.472 -0.1869 -0.4928 -0.3895
14284TIP3    H264344   2.117   4.821  10.507 -0.2321 -0.0516  1.4074
14285TIP3   OH264345   1.325   2.059   1.068  0.2849  0.0691  0.0993
14285TIP3    H164346   1.382   2.130   1.098  1.7887 -1.0420 -0.0394
14285TIP3    H264347   1.250   2.104   1.029  0.9082  1.5735  0.5549
14286TIP3   OH264348   2.104   3.552   5.052 -0.0101  0.2602  0.1836
14286TIP3    H164349   2.161   3.610   5.000 -1.2670  1.7683  0.4283
14286TIP3    H264350   2.165   3.506   5.110  1.0494  1.3136 -0.0335
14287TIP3   OH264351   0.346   4.974   2.468  0.1358 -0.2850  0.8441
14287TIP3    H164352   0.250   4.979   2.476 -0.1367  2.4689 -2.0914
14287TIP3    H264353   0.379   5.025   2.543 -0.8583  0.8718  0.5339
14288TIP3   OH264354   5.396   6.421  13.643  0.2296  0.5373  0.1567
14288TIP3    H164355   5.350   6.471  13.576  0.6756  1.2328  0.3523
14288TIP3    H264356   5.343   6.433  13.722 -0.6072 -0.7503 -0.1699
14289TIP3   OH264357   1.916   1.750   1.789  0.1765 -0.1143  0.0805
14289TIP3    H164358   1.932   1.676   1.847 -0.0805 -0.1749  0.0784
14289TIP3    H264359   1.821   1.749   1.776  0.2416 -0.1723 -0.4291
14290TIP3   OH264360   1.653   4.768   4.007 -0.2832  0.0938 -0.6632
14290TIP3    H164361   1.632   4.820   4.085 -0.3846 -0.9603  0.0258
14290TIP3    H264362   1.674   4.834   3.941  0.0263  1.0153  0.3064
14291TIP3   OH264363   2.418   3.320   3.131  0.3822 -0.1187  0.1074
14291TIP3    H164364   2.484   3.263   3.090  0.6231 -0.1027  0.4679
14291TIP3    H264365   2.335   3.293   3.091  0.3890 -1.2225  0.7848
14292TIP3   OH264366   1.600   2.051   3.598  0.5679  0.1078  0.2376
14292TIP3    H164367   1.562   2.113   3.536 -0.1003 -0.4533  0.0671
14292TIP3    H264368   1.527   2.027   3.656  0.7122 -0.7940  0.0648
14293TIP3   OH264369   2.830   0.136  15.621 -0.2889 -0.1819  0.1534
14293TIP3    H164370   2.898   0.176  15.567 -0.5715 -1.2274 -1.0191
14293TIP3    H264371   2.843   0.042  15.610 -1.1785 -0.3998  0.8658
14294TIP3   OH264372   2.553   1.550   4.715 -0.3934 -0.0045  0.6289
14294TIP3    H164373   2.595   1.501   4.644 -0.9718  0.3721  0.0111
14294TIP3    H264374   2.484   1.600   4.671 -3.7075 -3.0266  1.9791
14295TIP3   OH264375   4.205   2.460  16.728 -0.2381 -0.2855  0.1255
14295TIP3    H164376   4.150   2.389  16.761 -1.6634  0.3321 -0.8321
14295TIP3    H264377   4.170   2.479  16.641  1.4816  0.1663 -0.4967
14296TIP3   OH264378   2.795   1.727   0.534  0.1667 -0.3637  0.3549
14296TIP3    H164379   2.749   1.738   0.451  0.4679  0.4853  0.2938
14296TIP3    H264380   2.749   1.783   0.596  0.4720 -0.3134  0.5421
14297TIP3   OH264381   3.152   1.143  15.280 -0.5452  0.8304  0.1704
14297TIP3    H164382   3.119   1.233  15.285 -0.5488  0.8844 -0.6903
14297TIP3    H264383   3.164   1.117  15.371 -0.0061  1.9027  0.4205
14298TIP3   OH264384   3.768   5.510  15.357 -0.1723  0.0252 -0.6695
14298TIP3    H164385   3.787   5.603  15.342 -0.2161  0.0092 -0.8241
14298TIP3    H264386   3.709   5.510  15.432  0.1794  0.0961 -0.3855
14299TIP3   OH264387   6.826   0.602   0.075 -0.1786 -0.0490  0.1935
14299TIP3    H164388   6.766   0.669   0.042  0.4959  0.3986 -0.1564
14299TIP3    H264389   6.860   0.559  -0.003 -0.0454 -0.2980  0.3851
14300TIP3   OH264390   4.819   5.293   3.673  0.6505 -0.1027 -0.0365
14300TIP3    H164391   4.757   5.354   3.713 -0.3638 -0.3723 -1.1450
14300TIP3    H264392   4.797   5.208   3.710  1.9665  0.1353  1.3941
14301TIP3   OH264393   5.650   3.441  15.470 -0.4548 -0.0579 -0.0777
14301TIP3    H164394   5.709   3.424  15.543 -1.7477  0.7346  1.1996
14301TIP3    H264395   5.671   3.373  15.406 -0.5728 -2.0133  1.8267
14302TIP3   OH264396   2.501   3.004  13.432  0.6110  0.0170  0.5635
14302TIP3    H164397   2.547   3.011  13.516  0.5514  1.2331  0.5020
14302TIP3    H264398   2.419   3.052  13.445  0.9022  0.8046 -0.4005
14303TIP3   OH264399   5.117   0.488   5.618  0.6810  0.0400 -0.2832
14303TIP3    H164400   5.037   0.441   5.642  0.3371  0.0136 -1.3955
14303TIP3    H264401   5.150   0.525   5.700 -0.6957  0.3923  0.1372
14304TIP3   OH264402   2.310   6.007   0.833 -0.3649 -0.5017  0.3637
14304TIP3    H164403   2.274   6.095   0.830 -0.9102 -0.7396 -0.3215
14304TIP3    H264404   2.366   6.001   0.755 -1.6587 -1.3019 -0.5435
14305TIP3   OH264405   1.694   0.380   2.580 -0.0449  0.2237  0.4487
14305TIP3    H164406   1.720   0.445   2.515 -1.8688 -1.1499 -1.8587
14305TIP3    H264407   1.607   0.351   2.550 -0.5100 -1.2525  2.9666
14306TIP3   OH264408   0.164   3.032  14.098  0.2745  0.8993  0.3040
14306TIP3    H164409   0.214   3.095  14.150 -1.1259  1.2706  1.2554
14306TIP3    H264410   0.080   3.075  14.082  0.0723  0.1082 -0.8413
14307TIP3   OH264411   4.042   6.255  12.739 -0.0835  0.1174  0.1661
14307TIP3    H164412   4.077   6.321  12.679  0.4573 -0.0753  0.2582
14307TIP3    H264413   4.014   6.184  12.682 -1.0498  0.5859  0.0358
14308TIP3   OH264414   0.653   6.329  13.062  0.2918 -0.2259 -0.3295
14308TIP3    H164415   0.659   6.270  13.138  0.9461  2.0976  1.5605
14308TIP3    H264416   0.560   6.351  13.057  0.3322  0.0547  0.1515
14309TIP3   OH264417   4.108   6.035  15.273 -0.3795  0.1109 -0.6685
14309TIP3    H164418   4.048   5.965  15.297 -1.4606  0.4492 -2.2426
14309TIP3    H264419   4.054   6.098  15.224  0.9572  1.0977 -0.9437
14310TIP3   OH264420   4.649   4.422  15.891  0.1289  0.1284 -0.4405
14310TIP3    H164421   4.638   4.449  15.982  1.8912  2.0235 -0.7407
14310TIP3    H264422   4.561   4.427  15.854 -0.6244 -0.7187  1.1249
14311TIP3   OH264423   1.869   3.497  14.080 -0.9085 -0.2153 -0.0092
14311TIP3    H164424   1.949   3.489  14.133  0.4111 -0.1388 -1.8667
14311TIP3    H264425   1.818   3.565  14.124  0.1453 -0.1100  1.1287
14312TIP3   OH264426   5.820   1.058  16.849 -0.1483  0.1082  0.3111
14312TIP3    H164427   5.830   1.026  16.939  1.4112 -0.9051 -0.1846
14312TIP3    H264428   5.881   1.132  16.843  1.4578 -1.2359 -0.5263
14313TIP3   OH264429   5.179   1.866   4.032 -0.4723 -0.3491  0.0421
14313TIP3    H164430   5.091   1.903   4.029 -0.4984 -0.4499 -1.1829
14313TIP3    H264431   5.230   1.922   3.973  0.3267 -0.1952  0.8724
14314TIP3   OH264432   0.665   5.059   2.036 -0.7088 -0.4239  0.8623
14314TIP3    H164433   0.658   4.998   2.110  1.0061 -1.0188  0.5620
14314TIP3    H264434   0.674   5.003   1.959  0.3510  0.1956  0.5189
14315TIP3   OH264435   1.576   5.922   5.086  0.1909  0.0629  0.5125
14315TIP3    H164436   1.597   5.849   5.028 -0.1319 -1.1383  1.8368
14315TIP3    H264437   1.652   5.980   5.082  0.8722 -0.8455  0.1893
14316TIP3   OH264438   2.009   2.742   2.497  0.4462 -0.2301 -0.1725
14316TIP3    H164439   1.944   2.673   2.515  0.6374 -0.3658  0.0095
14316TIP3    H264440   2.061   2.707   2.425  1.8972 -1.2250  1.2882
14317TIP3   OH264441   6.533   1.485  14.847 -0.5928  0.3880  0.0701
14317TIP3    H164442   6.574   1.444  14.771 -3.7410 -1.6182 -0.7772
14317TIP3    H264443   6.569   1.573  14.850  0.9687 -0.0558 -2.6739
14318TIP3   OH264444   1.789   0.952   1.541 -0.4362  0.0259 -0.4588
14318TIP3    H164445   1.695   0.958   1.556 -0.7260 -0.0848 -2.0612
14318TIP3    H264446   1.816   1.042   1.518 -0.3049 -0.0952 -0.7862
14319TIP3   OH264447   3.574   5.152   0.714  0.0732 -0.2153 -0.1290
14319TIP3    H164448   3.594   5.087   0.781 -0.4975 -0.9257 -0.6323
14319TIP3    H264449   3.645   5.216   0.721 -0.0474 -0.1980  1.2248
14320TIP3   OH264450   6.321   3.283  16.352  0.1593  0.0846 -0.4680
14320TIP3    H164451   6.405   3.326  16.369  0.5833 -0.5687 -0.8983
14320TIP3    H264452   6.344   3.193  16.331 -0.7145 -0.2944  0.1884
14321TIP3   OH264453   3.934   2.399  15.022 -0.0622  0.5576 -0.3277
14321TIP3    H164454   3.873   2.441  14.960 -0.7183  1.2442  0.7479
14321TIP3    H264455   4.011   2.455  15.021  0.2349  0.1554 -1.0583
14322TIP3   OH264456   5.030   5.602  15.572  0.2236 -0.2444  0.3403
14322TIP3    H164457   4.950   5.558  15.541 -0.6795  0.1494  2.0076
14322TIP3    H264458   5.069   5.539  15.633  0.9961 -0.2698 -0.1683
14323TIP3   OH264459   4.522   6.605   4.057  0.0012  0.0080  0.0398
14323TIP3    H164460   4.500   6.694   4.031 -1.3063 -0.1504  0.4875
14323TIP3    H264461   4.493   6.551   3.983 -0.9099 -0.1813  0.5158
14324TIP3   OH264462   3.340   6.596  16.255  0.9769 -0.3107 -0.2951
14324TIP3    H164463   3.342   6.656  16.180  1.6860  1.0421  0.7510
14324TIP3    H264464   3.265   6.625  16.307  2.8228  1.4579  1.5505
14325TIP3   OH264465   0.801   3.936   3.808  0.5151 -0.5455 -0.1427
14325TIP3    H164466   0.763   3.997   3.872  0.6479  0.0747 -0.6378
14325TIP3    H264467   0.895   3.938   3.826  0.4228 -1.3962  0.5010
14326TIP3   OH264468   0.507   6.194  15.660 -0.3071 -0.3888 -0.2513
14326TIP3    H164469   0.434   6.205  15.599 -0.9624  0.3529  0.6228
14326TIP3    H264470   0.584   6.225  15.613 -0.7966  0.1455 -0.7162
14327TIP3   OH264471   3.554   1.871  14.091  0.3186  0.5981 -0.3537
14327TIP3    H164472   3.582   1.908  14.007  1.3201  2.1968  0.6269
14327TIP3    H264473   3.549   1.946  14.149  0.4089 -0.5720  1.2300
14328TIP3   OH264474   1.377   3.340   6.224 -0.3445  0.1910 -0.0452
14328TIP3    H164475   1.457   3.313   6.270 -0.5962 -0.1140  0.2128
14328TIP3    H264476   1.309   3.340   6.291 -0.6733 -0.0578 -0.3739
14329TIP3   OH264477   0.519   4.310   2.298  0.1029  0.0366 -0.3537
14329TIP3    H164478   0.564   4.232   2.329 -0.3484  0.3815  1.3128
14329TIP3    H264479   0.489   4.288   2.210  0.2433 -1.5461 -0.0295
14330TIP3   OH264480   1.639   2.608  15.230 -0.1487  0.1027 -0.3914
14330TIP3    H164481   1.558   2.595  15.280 -1.1401 -0.6743 -2.0906
14330TIP3    H264482   1.670   2.519  15.213  0.4352  0.3702 -0.7220
14331TIP3   OH264483   3.761   3.739   4.923 -0.2251  0.3056 -0.2452
14331TIP3    H164484   3.789   3.789   5.000  2.4432 -0.2212 -0.7762
14331TIP3    H264485   3.689   3.684   4.956  0.2299  0.7553  1.6509
14332TIP3   OH264486   6.347   1.986   6.154  0.3533  0.1510 -0.0787
14332TIP3    H164487   6.350   2.056   6.219  0.9151  1.1467 -1.1302
14332TIP3    H264488   6.434   1.988   6.113 -0.1880 -0.0074 -1.2841
14333TIP3   OH264489   0.822   0.143   0.364 -0.1473 -0.5052  0.1997
14333TIP3    H164490   0.849   0.187   0.283  2.0892 -1.2871  0.4564
14333TIP3    H264491   0.798   0.214   0.423  2.5805  0.4047  0.3273
14334TIP3   OH264492   3.921   4.322  16.411 -0.5188 -0.3344 -0.2606
14334TIP3    H164493   4.004   4.321  16.458  0.0090 -1.1973 -1.1547
14334TIP3    H264494   3.868   4.257  16.456 -0.2763 -0.6332 -0.3979
14335TIP3   OH264495   4.442   0.122   2.685  0.5961 -0.4393  0.3786
14335TIP3    H164496   4.426   0.138   2.778 -2.2140 -3.1775  0.5225
14335TIP3    H264497   4.408   0.200   2.641 -2.1435 -0.9051  1.4932
14336TIP3   OH264498   4.552   6.555  14.739 -0.0589 -0.4181 -0.3741
14336TIP3    H164499   4.492   6.482  14.758 -1.3165  1.2116  2.6851
14336TIP3    H264500   4.637   6.525  14.771 -0.3825 -0.8921  0.0711
14337TIP3   OH264501   1.821   2.079  15.837  0.0941 -0.0778 -0.6797
14337TIP3    H164502   1.789   2.137  15.906 -0.4892 -2.4013  1.1673
14337TIP3    H264503   1.916   2.087  15.841  0.0294  0.5334 -0.2522
14338TIP3   OH264504   1.345   5.193  13.075 -0.3841  0.1721  0.4561
14338TIP3    H164505   1.422   5.250  13.085 -1.0119  1.6530 -2.2876
14338TIP3    H264506   1.295   5.232  13.003 -0.2461 -4.4544 -2.6045
14339TIP3   OH264507   0.918   0.743   1.870 -0.3203 -0.9718  0.0553
14339TIP3    H164508   0.948   0.811   1.930  2.9347  0.0702 -2.4364
14339TIP3    H264509   0.969   0.665   1.895 -0.2843 -1.0395 -0.2302
14340TIP3   OH264510   0.890   6.199  11.035  0.3709  0.4235 -0.0143
14340TIP3    H164511   0.856   6.177  11.122 -0.0240 -1.4530 -0.5944
14340TIP3    H264512   0.838   6.275  11.008 -1.1058 -0.3667  0.4806
14341TIP3   OH264513   5.047   0.369   4.076 -0.0835  0.4017 -0.1350
14341TIP3    H164514   5.048   0.359   4.171 -0.1046 -0.2448 -0.1977
14341TIP3    H264515   4.970   0.423   4.058 -0.8369 -0.5765  0.1185
14342TIP3   OH264516   0.266   3.642   2.126  0.4777 -0.1783 -0.4187
14342TIP3    H164517   0.172   3.639   2.146  0.3937  2.1741 -0.2136
14342TIP3    H264518   0.307   3.588   2.193 -0.4728  1.5245  1.6531
14343TIP3   OH264519   3.006   2.302  13.978  0.2307  0.3271 -0.3866
14343TIP3    H164520   3.026   2.390  13.948 -0.4784  1.5619  2.4760
14343TIP3    H264521   3.011   2.306  14.073 -0.5006 -2.5638 -0.1080
14344TIP3   OH264522   1.450   0.155   4.697  0.4453  0.3791 -0.1473
14344TIP3    H164523   1.529   0.202   4.724 -0.1871  0.2373  2.0944
14344TIP3    H264524   1.398   0.221   4.651  1.2611  0.8103 -0.4806
14345TIP3   OH264525   1.180   3.118   3.608  0.4535  0.5378  0.0773
14345TIP3    H164526   1.094   3.098   3.571  1.2734 -0.4615 -1.4545
14345TIP3    H264527   1.201   3.204   3.573 -0.2426  1.1331  1.1014
14346TIP3   OH264528   1.732   4.343  12.524  0.3787  0.3125 -0.3030
14346TIP3    H164529   1.765   4.310  12.440 -0.2485 -1.1845  0.0124
14346TIP3    H264530   1.773   4.429  12.533  3.2640 -0.8954 -0.5039
14347TIP3   OH264531   0.897   0.246   4.220  0.2908 -0.0762  0.0111
14347TIP3    H164532   0.847   0.202   4.289  1.2342 -1.2720 -0.0577
14347TIP3    H264533   0.830   0.273   4.157 -0.4506 -0.0690  0.7658
14348TIP3   OH264534   3.280   0.942  13.337 -0.0202 -0.1438  0.0253
14348TIP3    H164535   3.192   0.977  13.349  0.0991  0.3190 -0.4001
14348TIP3    H264536   3.308   0.916  13.424 -0.3658  0.2139  0.2440
14349TIP3   OH264537   5.822   5.964  11.018  0.3991 -0.7644 -0.3544
14349TIP3    H164538   5.897   5.944  10.962 -0.4056  0.3237 -1.9016
14349TIP3    H264539   5.750   5.979  10.956 -1.1851 -2.0946  1.0895
14350TIP3   OH264540   0.882   1.968  16.870  0.0228  0.2339  0.2936
14350TIP3    H164541   0.967   1.928  16.887 -0.7587 -1.5238  0.2846
14350TIP3    H264542   0.869   1.956  16.775 -1.3466 -1.9796  0.6766
14351TIP3   OH264543   6.070   2.258   5.324 -0.0105 -0.3275  0.1764
14351TIP3    H164544   6.037   2.187   5.380  1.5872 -2.4710 -1.3988
14351TIP3    H264545   6.014   2.254   5.246 -0.2072  0.4872  0.2720
14352TIP3   OH264546   5.282   4.377   4.342 -0.4788  0.4968  0.2626
14352TIP3    H164547   5.351   4.351   4.404 -1.3669 -1.9627  0.3309
14352TIP3    H264548   5.317   4.355   4.256 -0.3139  1.3841  0.0918
14353TIP3   OH264549   5.956   5.910  14.963  0.0359 -0.2191 -0.1858
14353TIP3    H164550   5.984   5.873  14.879  1.2920  0.1058  0.0637
14353TIP3    H264551   6.032   5.898  15.020 -1.2558 -1.6745  1.3276
14354TIP3   OH264552   2.864   5.879   1.605 -0.1746  0.3390  0.2251
14354TIP3    H164553   2.888   5.970   1.623  0.4598  0.0280  1.0602
14354TIP3    H264554   2.768   5.878   1.612 -0.1552  0.8491  0.6773
14355TIP3   OH264555   6.691   1.868   1.331 -0.8346 -0.0578 -0.0751
14355TIP3    H164556   6.758   1.898   1.393 -1.7517 -2.2738  2.1776
14355TIP3    H264557   6.619   1.930   1.343 -0.2415  0.7306 -0.4804
14356TIP3   OH264558   4.365   0.161  12.825 -0.3585 -0.0296  0.4353
14356TIP3    H164559   4.292   0.140  12.767 -1.2999  1.2173  1.1029
14356TIP3    H264560   4.397   0.246  12.794  0.2192 -0.1454  0.7030
14357TIP3   OH264561   4.031   5.423   4.527  0.5850 -0.5794  0.1097
14357TIP3    H164562   3.985   5.395   4.448  1.4244  0.7109 -0.8942
14357TIP3    H264563   3.966   5.418   4.596 -0.3529 -1.1539 -0.7854
14358TIP3   OH264564   5.498   5.082  13.418 -0.0454  0.7447 -0.0590
14358TIP3    H164565   5.567   5.049  13.360 -0.4710 -0.2727 -0.0219
14358TIP3    H264566   5.429   5.112  13.359  0.4746  1.9067 -0.0990
14359TIP3   OH264567   5.464   2.029   4.773  0.0394  0.0624 -0.8214
14359TIP3    H164568   5.527   2.089   4.815  1.5081 -0.7662 -1.7322
14359TIP3    H264569   5.447   2.068   4.687 -0.4232  0.0993 -0.7142
14360TIP3   OH264570   5.220   4.178   4.549 -0.3799 -0.0224 -0.4777
14360TIP3    H164571   5.280   4.209   4.617  0.3489  0.0626 -1.1459
14360TIP3    H264572   5.139   4.227   4.564 -0.6574 -0.9089  1.0970
14361TIP3   OH264573   6.468   6.842  12.777  0.0768 -0.3421 -0.3198
14361TIP3    H164574   6.509   6.826  12.861 -0.4125  1.2891  0.2718
14361TIP3    H264575   6.480   6.761  12.728 -2.6856 -2.7239  2.5272
14362TIP3   OH264576   2.014   1.341  11.300  0.6649 -0.3058 -0.2372
14362TIP3    H164577   2.037   1.428  11.267 -2.0934 -0.1643 -2.0934
14362TIP3    H264578   1.948   1.357  11.367  2.0851 -0.9124  1.3827
14363TIP3   OH264579   4.452   5.052   1.695  0.2069  0.2986 -0.5020
14363TIP3    H164580   4.455   4.958   1.713 -0.7925  0.0453 -1.5496
14363TIP3    H264581   4.362   5.077   1.714 -0.1488  0.5668 -2.3225
14364TIP3   OH264582   0.548   5.823  13.450 -0.4388 -0.0361  0.0318
14364TIP3    H164583   0.466   5.838  13.403 -0.7573  3.2248  1.3718
14364TIP3    H264584   0.613   5.809  13.382 -1.4447  1.2319 -1.2441
14365TIP3   OH264585   4.954   4.585   4.563 -0.1888  0.8105 -0.0145
14365TIP3    H164586   4.956   4.595   4.658  1.6023  0.3117  0.0247
14365TIP3    H264587   4.938   4.491   4.549 -1.6856  1.0634 -0.2564
14366TIP3   OH264588   5.174   2.263   2.401  0.5187  0.2857  0.3199
14366TIP3    H164589   5.108   2.239   2.336 -1.0549  1.0963  1.5440
14366TIP3    H264590   5.251   2.212   2.377 -0.4474 -0.4728 -1.3455
14367TIP3   OH264591   4.827   6.118   5.294  0.2495  0.1304 -0.1188
14367TIP3    H164592   4.829   6.210   5.321 -0.1627  0.6253 -1.6891
14367TIP3    H264593   4.738   6.105   5.261  0.6073 -0.5494 -0.8449
14368TIP3   OH264594   4.887   4.346  16.175  0.3211  0.3499  0.3867
14368TIP3    H164595   4.846   4.260  16.185 -0.4159  0.8367  1.9691
14368TIP3    H264596   4.965   4.342  16.230  2.8936 -0.7644 -3.0632
14369TIP3   OH264597   5.191   6.413   3.426  0.1112 -0.0275  0.3284
14369TIP3    H164598   5.170   6.322   3.406  2.0353 -0.6567  0.8875
14369TIP3    H264599   5.126   6.464   3.378 -0.5068 -1.6749 -0.6752
14370TIP3   OH264600   1.460   4.535   0.747  0.2643 -0.1898  0.2668
14370TIP3    H164601   1.466   4.630   0.748  0.1438 -0.1691  1.9899
14370TIP3    H264602   1.406   4.515   0.671 -0.2761  1.1686  0.2724
14371TIP3   OH264603   6.555   2.898  15.362  0.3930  0.0359  0.4220
14371TIP3    H164604   6.476   2.903  15.416  1.6910  0.5597  2.3643
14371TIP3    H264605   6.558   2.806  15.333 -1.3227  0.1969 -0.3803
14372TIP3   OH264606   5.533   6.418   1.250  0.5446 -0.2928  0.0072
14372TIP3    H164607   5.508   6.330   1.221  1.2640 -0.0750 -1.3372
14372TIP3    H264608   5.619   6.407   1.289 -0.5230 -0.6304  2.4437
14373TIP3   OH264609   6.583   3.418  11.872  0.2003 -0.0794  0.0033
14373TIP3    H164610   6.639   3.403  11.795 -0.3627 -0.2573 -0.3824
14373TIP3    H264611   6.545   3.333  11.890 -1.1623  0.3447 -0.7214
14374TIP3   OH264612   1.745   0.241   1.175  0.0197  0.1223 -0.7729
14374TIP3    H164613   1.664   0.214   1.219  0.2511 -1.2650 -1.1594
14374TIP3    H264614   1.815   0.213   1.234  0.2747 -0.3977 -1.3142
14375TIP3   OH264615   0.616   4.085   3.199  0.0742 -0.0613  0.3488
14375TIP3    H164616   0.562   4.160   3.221 -0.5775 -0.0328 -1.2596
14375TIP3    H264617   0.639   4.097   3.107  1.3619 -0.9768  0.5197
14376TIP3   OH264618   2.086   3.859  10.404 -0.1230  0.0979  0.9807
14376TIP3    H164619   2.094   3.950  10.377  0.3311 -0.0524  0.5991
14376TIP3    H264620   2.062   3.812  10.324  1.8559 -0.4458  0.6530
14377TIP3   OH264621   0.969   1.743   3.345  0.3257  0.2090  0.7130
14377TIP3    H164622   0.934   1.656   3.365 -1.3818  0.8453  0.6931
14377TIP3    H264623   1.063   1.729   3.330  0.0414 -1.6527  0.4473
14378TIP3   OH264624   4.002   3.451   5.074  0.2170 -0.3904  0.2243
14378TIP3    H164625   4.050   3.410   5.002  0.0034  0.9296 -0.6981
14378TIP3    H264626   3.925   3.396   5.086  0.8479 -1.2877  0.2492
14379TIP3   OH264627   0.399   5.953  14.474  0.2029 -0.3790  0.1965
14379TIP3    H164628   0.439   6.029  14.433  1.8017  0.4362  3.0117
14379TIP3    H264629   0.471   5.891  14.487  0.4824  0.5175  4.0264
14380TIP3   OH264630   1.153   4.994  14.771  0.4034 -0.1137  0.3309
14380TIP3    H164631   1.220   4.927  14.758  1.0028  0.4094  0.6739
14380TIP3    H264632   1.098   4.959  14.841 -0.9371 -1.4877 -1.3276
14381TIP3   OH264633   4.919   4.060   2.490  0.1593  0.7947  0.1161
14381TIP3    H164634   4.950   4.029   2.405 -0.9488  0.0590 -0.0409
14381TIP3    H264635   4.886   4.148   2.473 -1.4208  0.1029 -0.5540
14382TIP3   OH264636   1.638   4.706   6.152 -0.0653  0.7565  0.5378
14382TIP3    H164637   1.607   4.641   6.215  0.5968  0.0081  0.1129
14382TIP3    H264638   1.724   4.731   6.185  0.4847  0.0193 -0.2953
14383TIP3   OH264639   4.841   6.487   1.038 -0.2374  0.4083 -0.3252
14383TIP3    H164640   4.906   6.420   1.016 -1.0647 -0.0236 -1.5295
14383TIP3    H264641   4.883   6.570   1.015 -0.5680  0.0553 -2.3484
14384TIP3   OH264642   1.626   1.716   3.987  0.2511 -1.2032  0.9146
14384TIP3    H164643   1.653   1.806   4.002 -0.1195 -1.0762  0.8165
14384TIP3    H264644   1.590   1.687   4.070 -1.5586 -0.5844  0.3816
14385TIP3   OH264645   1.013   4.645   6.969 -0.0468  0.2395  0.0104
14385TIP3    H164646   0.963   4.682   6.897  0.4986 -0.1590 -0.5894
14385TIP3    H264647   1.031   4.555   6.942  1.4115  0.5174 -0.0364
14386TIP3   OH264648   0.194   4.303   3.549 -0.4266 -0.0589  0.1165
14386TIP3    H164649   0.247   4.225   3.560  0.2633  0.4987  0.8716
14386TIP3    H264650   0.137   4.306   3.626 -0.2222  0.3535  0.2555
14387TIP3   OH264651   4.920   3.414  11.022  0.4209 -0.2575 -0.6412
14387TIP3    H164652   4.864   3.359  10.968  1.6337 -0.4567 -1.7547
14387TIP3    H264653   4.870   3.428  11.103 -0.6127 -1.5755 -1.0195
14388TIP3   OH264654   1.727   6.581  15.660  0.1788 -0.1825  1.0779
14388TIP3    H164655   1.636   6.573  15.630  0.4677 -0.5933  0.2709
14388TIP3    H264656   1.779   6.569  15.581  0.9744 -1.2871  1.7297
14389TIP3   OH264657   1.345   3.800  16.807  0.1420  0.4784  0.6983
14389TIP3    H164658   1.280   3.734  16.830  1.1449 -0.5099  0.8067
14389TIP3    H264659   1.429   3.753  16.811  0.7334  1.2953 -0.9563
14390TIP3   OH264660   6.621   2.907   4.895 -0.2719  0.2665 -0.1418
14390TIP3    H164661   6.603   2.970   4.965  1.2004  0.7941 -0.2157
14390TIP3    H264662   6.703   2.937   4.856  0.2888 -1.5017 -0.4113
14391TIP3   OH264663   2.159   2.005   5.150 -0.2345 -0.8189 -0.3597
14391TIP3    H164664   2.156   1.926   5.204  0.7060 -0.2556  0.5472
14391TIP3    H264665   2.135   2.075   5.210 -0.9314 -0.3873 -1.1271
14392TIP3   OH264666   0.892   5.283  16.476  0.1624  0.0458  0.5774
14392TIP3    H164667   0.869   5.201  16.433 -0.2408 -0.1760  1.1979
14392TIP3    H264668   0.983   5.299  16.451 -0.6791  1.1325 -2.2355
14393TIP3   OH264669   1.009   2.618  10.762 -0.1687 -0.3938 -0.1227
14393TIP3    H164670   1.025   2.688  10.700  1.7304  1.3059  2.1268
14393TIP3    H264671   1.095   2.582  10.782 -0.6695 -0.7755  1.5946
14394TIP3   OH264672   3.458   0.206   6.711  0.1338  0.5092 -0.4828
14394TIP3    H164673   3.465   0.270   6.782  3.1561 -1.6238  1.3805
14394TIP3    H264674   3.400   0.138   6.745 -0.9199  0.9358 -1.3766
14395TIP3   OH264675   3.338   1.496   2.458 -0.0441  0.3017  0.3667
14395TIP3    H164676   3.285   1.496   2.537 -0.2251 -2.2970  0.3301
14395TIP3    H264677   3.423   1.462   2.486 -0.1564 -0.8005 -0.5237
14396TIP3   OH264678   3.875   1.558   1.189  0.0018 -0.0921  0.0763
14396TIP3    H164679   3.933   1.511   1.249  0.8132  0.7712 -0.0058
14396TIP3    H264680   3.808   1.493   1.165  1.6376 -1.5515 -0.8221
14397TIP3   OH264681   3.863   1.385   6.369 -0.1664  0.1279 -0.0846
14397TIP3    H164682   3.896   1.302   6.333 -1.4193  0.0220 -1.0406
14397TIP3    H264683   3.874   1.448   6.298  0.2200  0.6547  0.4360
14398TIP3   OH264684   1.736   0.423  15.280  0.0991  0.6366 -0.4919
14398TIP3    H164685   1.764   0.336  15.252 -0.1123  0.4261 -0.0665
14398TIP3    H264686   1.657   0.441  15.229 -2.6650 -1.4263  2.6107
14399TIP3   OH264687   5.718   2.549   3.062  0.4879 -0.3107 -0.1010
14399TIP3    H164688   5.801   2.594   3.045  1.0428 -1.4842 -0.6308
14399TIP3    H264689   5.680   2.538   2.975 -1.0950  1.7439  0.2580
14400TIP3   OH264690   5.250   5.185  11.067 -0.2009 -0.1473 -0.5413
14400TIP3    H164691   5.331   5.235  11.051 -0.1186 -0.9200 -2.8128
14400TIP3    H264692   5.279   5.110  11.119  0.5370 -0.3251 -1.1830
14401TIP3   OH264693   0.695   2.082   2.175 -0.2081  0.4757  0.5348
14401TIP3    H164694   0.636   2.061   2.102 -0.0383  0.9146  0.2696
14401TIP3    H264695   0.780   2.049   2.148 -0.2342  0.2435  0.7279
14402TIP3   OH264696   2.927   5.610  12.815  0.2024  0.2808 -0.4786
14402TIP3    H164697   2.946   5.596  12.722  0.1091 -2.9343 -0.1124
14402TIP3    H264698   3.012   5.627  12.855  0.1988  2.1189 -1.1389
14403TIP3   OH264699   6.319   0.035  14.364 -0.1518 -0.2682 -0.0136
14403TIP3    H164700   6.358   0.105  14.310 -0.1847  0.2046  0.5636
14403TIP3    H264701   6.251   0.079  14.415 -0.4673 -0.8132  0.0441
14404TIP3   OH264702   6.724   1.933  10.616 -0.1528 -0.0096 -0.1058
14404TIP3    H164703   6.673   2.000  10.661  2.6225  2.2083  0.0321
14404TIP3    H264704   6.660   1.868  10.589 -2.6601  1.3193  2.1646
14405TIP3   OH264705   5.032   3.456  16.888 -0.1630 -0.1282 -0.1002
14405TIP3    H164706   4.979   3.388  16.929 -0.5332 -0.1550 -0.6195
14405TIP3    H264707   4.985   3.537  16.905 -0.8672 -0.2514 -1.3424
14406TIP3   OH264708   2.920   5.659   4.446  0.2502 -0.1677  0.0127
14406TIP3    H164709   2.998   5.630   4.493 -0.5618 -0.5460  1.1586
14406TIP3    H264710   2.863   5.695   4.514 -0.9212 -0.6577 -0.6875
14407TIP3   OH264711   0.009   5.198   3.199  0.0245 -0.0672  0.6141
14407TIP3    H164712  -0.081   5.231   3.209 -0.4864 -1.7086  1.8961
14407TIP3    H264713   0.061   5.255   3.256  0.1386  1.8695 -1.2790
14408TIP3   OH264714   3.669   6.128   2.700  0.8627 -0.4809  0.0386
14408TIP3    H164715   3.577   6.154   2.694  0.9588 -0.4586 -2.0317
14408TIP3    H264716   3.667   6.042   2.743 -0.0576 -0.2220  0.5456
14409TIP3   OH264717   5.668   4.421   0.075  0.3454  0.0535 -0.2842
14409TIP3    H164718   5.726   4.497   0.072 -0.2260  0.4789 -2.5234
14409TIP3    H264719   5.580   4.459   0.077  0.0760 -0.5450 -0.6224
14410TIP3   OH264720   4.949   2.655  16.519  0.0261  0.7158 -0.0497
14410TIP3    H164721   4.910   2.605  16.447 -0.5962  0.3287  0.5432
14410TIP3    H264722   4.891   2.731  16.529 -0.9156 -0.1130  1.1628
14411TIP3   OH264723   5.313   2.814   5.734  0.0308 -0.4332  0.5319
14411TIP3    H164724   5.241   2.866   5.698 -0.2342 -1.1776 -0.0407
14411TIP3    H264725   5.355   2.775   5.657  1.5854  0.6502  0.7912
14412TIP3   OH264726   1.719   0.031   2.311  0.5713  0.2988  0.5059
14412TIP3    H164727   1.750   0.022   2.221 -0.7439  1.5357 -0.0974
14412TIP3    H264728   1.640   0.085   2.305 -1.6082 -2.4604  2.0114
14413TIP3   OH264729   3.937   6.005  10.763  0.8662  0.5630 -0.1429
14413TIP3    H164730   3.882   5.940  10.807 -0.4968  1.6977 -0.0902
14413TIP3    H264731   3.930   5.983  10.670 -0.5220  1.2854 -0.2321
14414TIP3   OH264732   2.532   2.471  14.641  0.0810  0.2764  0.3064
14414TIP3    H164733   2.584   2.436  14.569  0.1294 -0.7933  0.8422
14414TIP3    H264734   2.582   2.546  14.672  3.0098 -2.3874  2.7520
14415TIP3   OH264735   0.489   5.769   4.172 -0.0395 -0.0283 -0.1795
14415TIP3    H164736   0.444   5.842   4.214  1.4175  0.8577 -0.0878
14415TIP3    H264737   0.572   5.806   4.141 -0.0963 -1.1912 -1.8523
14416TIP3   OH264738   6.361   5.768  13.566  0.2908 -0.3351  0.4953
14416TIP3    H164739   6.439   5.790  13.516 -0.5365  2.5638  0.2987
14416TIP3    H264740   6.294   5.753  13.500 -0.4612  2.1174  0.6167
14417TIP3   OH264741   6.802   5.841   4.520 -0.1963 -0.1719 -0.1722
14417TIP3    H164742   6.818   5.903   4.449 -0.2283 -0.9645 -0.8978
14417TIP3    H264743   6.747   5.888   4.582 -0.3427  0.4686 -0.7798
14418TIP3   OH264744   5.328   3.790   5.954  0.0073 -0.0088  0.3478
14418TIP3    H164745   5.331   3.752   5.867 -0.7539 -0.1482  0.3770
14418TIP3    H264746   5.257   3.743   5.999 -1.3085  1.7555  0.2160
14419TIP3   OH264747   0.942   3.601  15.515  0.2802  0.1507 -0.0124
14419TIP3    H164748   0.926   3.566  15.427  0.7071  2.3598 -1.0330
14419TIP3    H264749   1.023   3.651  15.506 -0.2791  1.3586  1.3386
14420TIP3   OH264750   1.154   0.332   0.514 -0.1987  0.8672  0.7895
14420TIP3    H164751   1.059   0.341   0.501  0.0251  0.7156 -1.3917
14420TIP3    H264752   1.192   0.392   0.450  1.1732 -1.3273 -0.5481
14421TIP3   OH264753   5.280   3.471   0.604  0.6339 -0.1982 -0.0115
14421TIP3    H164754   5.287   3.553   0.556 -0.5142 -0.8313 -1.3220
14421TIP3    H264755   5.278   3.404   0.536 -1.7178 -1.0899  0.8500
14422TIP3   OH264756   4.702   2.687   1.520  0.3767  0.2881 -0.3909
14422TIP3    H164757   4.665   2.686   1.608 -0.3930 -1.2598 -0.6937
14422TIP3    H264758   4.671   2.770   1.482 -1.0078  0.0338  0.1115
14423TIP3   OH264759   6.009   2.478   2.652  0.2866  0.4039  0.1709
14423TIP3    H164760   6.092   2.447   2.688 -0.2640 -1.1144  0.2028
14423TIP3    H264761   6.030   2.562   2.612  2.2291 -0.6986 -1.3269
14424TIP3   OH264762   0.056   1.118   4.127  0.1278  0.2351  0.2436
14424TIP3    H164763   0.024   1.028   4.137  0.5757 -0.1271 -1.4038
14424TIP3    H264764   0.147   1.109   4.100 -0.5068  1.0830 -2.4534
14425TIP3   OH264765   4.725   1.503   2.612 -0.3689 -0.0854  0.4856
14425TIP3    H164766   4.699   1.411   2.615  0.0052 -0.2381 -0.5459
14425TIP3    H264767   4.811   1.502   2.570 -2.0942  1.0173 -3.5877
14426TIP3   OH264768   6.597   2.020   5.535 -0.1932  0.5796  0.5181
14426TIP3    H164769   6.564   2.008   5.624 -1.6282 -0.2327 -0.0785
14426TIP3    H264770   6.621   1.931   5.507 -1.7927  0.4663 -0.6207
14427TIP3   OH264771   2.414   0.295  14.647 -0.3811  0.2517  0.2307
14427TIP3    H164772   2.471   0.220  14.664  0.3184  0.4152 -1.2118
14427TIP3    H264773   2.329   0.269  14.680 -0.5228 -1.8118 -1.5543
14428TIP3   OH264774   5.791   3.438   1.558 -0.4332  0.2425 -0.0045
14428TIP3    H164775   5.771   3.415   1.467 -1.0561 -0.9170  0.3988
14428TIP3    H264776   5.881   3.408   1.570 -0.1483  0.9178 -0.3922
14429TIP3   OH264777   5.864   4.069   1.933 -0.0760  0.2759  0.7173
14429TIP3    H164778   5.886   4.157   1.902  0.1691 -0.3164 -0.9217
14429TIP3    H264779   5.769   4.069   1.937 -0.0710  0.6846  0.9461
14430TIP3   OH264780   3.716   3.899  14.750 -0.1176  0.3904  0.1336
14430TIP3    H164781   3.674   3.833  14.695  0.0770  1.3857 -1.2594
14430TIP3    H264782   3.661   3.903  14.828 -0.6286 -0.7784 -0.1337
14431TIP3   OH264783   1.438   6.545  10.931 -0.2059 -0.4304 -0.1598
14431TIP3    H164784   1.367   6.488  10.905  0.2547 -1.0542 -0.0701
14431TIP3    H264785   1.440   6.614  10.865  1.0698 -2.0705 -1.9563
14432TIP3   OH264786   4.887   3.943  15.842 -0.0284 -0.2698 -0.3555
14432TIP3    H164787   4.961   3.922  15.786  0.4487 -0.3389  0.2895
14432TIP3    H264788   4.870   3.862  15.890  1.0466  0.4286  1.2708
14433TIP3   OH264789   1.408   2.114  16.442 -0.0189 -0.6279  0.1035
14433TIP3    H164790   1.413   2.205  16.415 -2.2252 -1.0578 -2.1345
14433TIP3    H264791   1.318   2.104  16.476 -1.0291 -2.6236 -2.7985
14434TIP3   OH264792   4.702   5.731   0.823 -0.0683  0.2866  0.1767
14434TIP3    H164793   4.691   5.766   0.912 -2.8594 -1.8437  0.8218
14434TIP3    H264794   4.707   5.636   0.835 -0.1779 -0.0290 -1.9281
14435TIP3   OH264795   5.062   4.247  10.929  0.4081  0.0956 -0.3852
14435TIP3    H164796   5.083   4.203  10.847  1.0965 -1.1113  0.4194
14435TIP3    H264797   5.103   4.333  10.921  3.0313 -1.0454 -0.1667
14436TIP3   OH264798   3.343   3.960   3.347 -0.8273 -0.0926  0.5200
14436TIP3    H164799   3.423   3.911   3.364 -0.3946  0.2644 -0.4101
14436TIP3    H264800   3.276   3.917   3.401  0.4095  0.9900  3.0417
14437TIP3   OH264801   4.205   4.383   4.040  0.4998  0.6463 -0.1093
14437TIP3    H164802   4.297   4.374   4.064  0.5015  0.6917 -0.1002
14437TIP3    H264803   4.164   4.302   4.073  0.5100  0.6899  0.0121
14438TIP3   OH264804   0.120   2.604  11.504  0.2279 -0.9658  0.2332
14438TIP3    H164805   0.155   2.571  11.421  1.9794 -1.7509  1.2182
14438TIP3    H264806   0.051   2.542  11.527 -1.3732  0.1259 -1.3419
14439TIP3   OH264807   1.099   3.288  13.197 -0.1779 -0.3270  0.2554
14439TIP3    H164808   1.159   3.221  13.230  0.9394 -0.6790 -2.2319
14439TIP3    H264809   1.043   3.241  13.135 -0.7026  0.6734 -0.0469
14440TIP3   OH264810   5.359   1.030   2.652  0.7627 -0.0158 -0.0880
14440TIP3    H164811   5.365   0.934   2.654  1.3621  0.0181 -0.1513
14440TIP3    H264812   5.410   1.058   2.728  0.4300  0.2497  0.0387
14441TIP3   OH264813   1.091   5.775   6.095 -0.0927 -0.3448 -0.0571
14441TIP3    H164814   1.153   5.711   6.061 -1.1016 -1.4254  0.0530
14441TIP3    H264815   1.079   5.751   6.187 -0.5231 -0.0506 -0.0307
14442TIP3   OH264816   2.956   2.972  11.625  0.0361  1.0058  0.4156
14442TIP3    H164817   3.009   2.925  11.689  0.2218  1.8761  0.9139
14442TIP3    H264818   3.017   2.995  11.555 -0.3339 -0.6944 -0.5365
14443TIP3   OH264819   4.935   3.169  11.279 -0.4586  0.6514 -0.0835
14443TIP3    H164820   4.960   3.146  11.190 -0.7582 -0.4730  0.1080
14443TIP3    H264821   4.952   3.264  11.285 -0.9587  0.8578 -1.4974
14444TIP3   OH264822   2.011   6.149  15.866  0.0173 -0.2851 -0.5406
14444TIP3    H164823   1.927   6.140  15.912  0.5741 -2.1803  0.2114
14444TIP3    H264824   2.048   6.231  15.898 -0.5189 -0.5721  0.8878
14445TIP3   OH264825   2.233   6.444  14.717  0.0671 -0.1240  0.1134
14445TIP3    H164826   2.193   6.410  14.637 -0.8867 -0.5912  0.7531
14445TIP3    H264827   2.316   6.398  14.724  0.6886  0.7675 -1.1859
14446TIP3   OH264828   0.721   4.330  14.637 -0.1499  0.6368  0.0602
14446TIP3    H164829   0.650   4.389  14.613 -1.6658 -2.2262 -3.3350
14446TIP3    H264830   0.678   4.249  14.663  1.8532 -0.4678  0.1646
14447TIP3   OH264831   3.855   5.324  15.707  0.7840  0.1485 -0.8840
14447TIP3    H164832   3.870   5.401  15.761 -0.7989 -1.8549  2.7236
14447TIP3    H264833   3.798   5.355  15.636 -0.5418  2.1560  0.9449
14448TIP3   OH264834   2.182   6.697   3.399  0.2469  0.2607 -0.1863
14448TIP3    H164835   2.105   6.716   3.454 -1.4535  0.3326 -2.4548
14448TIP3    H264836   2.229   6.629   3.447 -1.6390 -0.3139  0.9632
14449TIP3   OH264837   1.374   5.783  15.037  0.3519  0.2304  0.1497
14449TIP3    H164838   1.350   5.691  15.050 -3.0709  0.8260 -1.1133
14449TIP3    H264839   1.344   5.826  15.117  1.5207  0.3570  0.5340
14450TIP3   OH264840   6.704   5.347   0.571 -0.1909 -0.2628 -0.4517
14450TIP3    H164841   6.608   5.347   0.572 -0.1862 -0.6497  0.8181
14450TIP3    H264842   6.730   5.354   0.663  1.0038 -0.6830 -0.7349
14451TIP3   OH264843   0.780   3.437  11.970 -0.1556 -0.1552  0.0834
14451TIP3    H164844   0.748   3.418  11.882 -2.5921 -1.1257  1.1012
14451TIP3    H264845   0.828   3.358  11.996 -0.1380 -0.1921 -0.0601
14452TIP3   OH264846   1.140   6.287   0.262  0.2021 -0.2360 -0.5501
14452TIP3    H164847   1.150   6.192   0.257 -1.5265 -0.4092 -1.3588
14452TIP3    H264848   1.166   6.318   0.175  1.0376  0.0918 -0.2007
14453TIP3   OH264849   4.782   2.108   4.806  0.5354  0.1979 -0.1669
14453TIP3    H164850   4.721   2.071   4.742  1.4312 -1.2021 -0.2529
14453TIP3    H264851   4.727   2.162   4.863 -0.4021  0.8341 -1.6148
14454TIP3   OH264852   6.358   1.069   4.157  0.0460 -0.6016  0.0213
14454TIP3    H164853   6.409   1.009   4.102  0.8001 -1.0449  1.1641
14454TIP3    H264854   6.282   1.092   4.103  1.2593 -0.1959 -1.5847
14455TIP3   OH264855   4.860   5.953  11.540  0.1042  0.0485  0.0649
14455TIP3    H164856   4.910   6.034  11.541 -1.1732  0.8572  0.7862
14455TIP3    H264857   4.835   5.938  11.631  0.0960 -1.0174 -0.0932
14456TIP3   OH264858   1.578   2.135  11.153  0.0313  0.1679 -0.8076
14456TIP3    H164859   1.577   2.198  11.082 -1.2136 -0.4190 -1.3356
14456TIP3    H264860   1.585   2.050  11.110  0.9214 -0.1142 -0.1420
14457TIP3   OH264861   0.010   0.439   1.221  0.2021 -0.0589  0.0945
14457TIP3    H164862  -0.078   0.402   1.211 -0.7367  1.3142  2.4487
14457TIP3    H264863   0.069   0.366   1.204 -1.4492 -1.5089  0.3362
14458TIP3   OH264864   5.120   5.335  14.948  0.1153 -0.0640  0.2891
14458TIP3    H164865   5.043   5.291  14.912 -1.1499  2.9125 -0.9881
14458TIP3    H264866   5.126   5.304  15.038 -1.9162 -1.2031  0.0861
14459TIP3   OH264867   5.972   1.155  13.457 -0.7609  0.1855  0.0064
14459TIP3    H164868   5.928   1.240  13.455 -0.6577  0.2235 -2.2481
14459TIP3    H264869   5.912   1.095  13.412  1.0815  0.0950 -2.5443
14460TIP3   OH264870   1.478   1.676   5.946  0.2884  0.0479 -0.3336
14460TIP3    H164871   1.419   1.722   5.886 -1.4234 -0.9823  0.4863
14460TIP3    H264872   1.565   1.693   5.911 -0.5518  0.6329 -2.2983
14461TIP3   OH264873   4.794   4.470   4.167  0.1761 -0.6496 -0.5137
14461TIP3    H164874   4.747   4.543   4.127  2.1405  0.1740 -1.4150
14461TIP3    H264875   4.759   4.465   4.256  1.0135  2.3658  0.0697
14462TIP3   OH264876   2.864   1.048   5.828 -0.0683 -0.1698  0.3685
14462TIP3    H164877   2.788   1.018   5.878  1.2957  1.7641  4.0151
14462TIP3    H264878   2.828   1.109   5.764 -1.6407  0.5843  1.8996
14463TIP3   OH264879   3.591   6.198  16.955 -0.3687  0.2991 -0.1062
14463TIP3    H164880   3.672   6.245  16.977  0.9011 -0.9825 -1.7474
14463TIP3    H264881   3.526   6.267  16.940  1.2984  1.5939 -1.9601
14464TIP3   OH264882   3.081   2.892  16.844 -0.3152  0.0082 -0.2080
14464TIP3    H164883   3.138   2.823  16.810  0.6069 -0.0924  1.4641
14464TIP3    H264884   3.029   2.920  16.768  0.5712 -1.2579 -1.3159
14465TIP3   OH264885   2.038   4.483  14.106  0.3099 -0.1763  0.3671
14465TIP3    H164886   2.037   4.388  14.098 -1.1285 -0.1958  0.5089
14465TIP3    H264887   2.096   4.501  14.180 -0.8324 -1.0611  1.5162
14466TIP3   OH264888   0.797   6.486  15.169 -0.4489 -0.1480  0.5802
14466TIP3    H164889   0.789   6.492  15.264  1.6857 -0.9771  0.8674
14466TIP3    H264890   0.884   6.448  15.154 -0.2313  1.0286 -1.7310
14467TIP3   OH264891   2.084   1.845   4.554  0.6116 -0.0569 -0.2666
14467TIP3    H164892   2.030   1.902   4.498 -0.1042 -1.3847 -0.9789
14467TIP3    H264893   2.159   1.900   4.578 -0.8300  1.7422  0.4487
14468TIP3   OH264894   4.033   0.294  11.233 -0.2579 -0.2035  0.2079
14468TIP3    H164895   3.963   0.357  11.217 -0.0951  0.0221  0.3805
14468TIP3    H264896   3.989   0.218  11.270 -0.0860  1.0801  3.3096
14469TIP3   OH264897   2.833   6.780   3.067 -0.3726 -0.1192 -0.4376
14469TIP3    H164898   2.874   6.745   3.145 -1.6839  0.8557  0.7501
14469TIP3    H264899   2.739   6.767   3.082 -0.7261  1.4188 -1.1631
14470TIP3   OH264900   5.405   2.579  13.968  0.2249 -0.4229 -0.6148
14470TIP3    H164901   5.441   2.648  13.912 -0.6677  0.2706 -0.3669
14470TIP3    H264902   5.470   2.510  13.967  0.9299  0.2394 -1.2497
14471TIP3   OH264903   1.462   5.343  15.851 -0.0437  0.6375 -0.1999
14471TIP3    H164904   1.500   5.380  15.771 -0.4913 -0.4239 -0.9176
14471TIP3    H264905   1.396   5.281  15.820 -1.7912  1.7924  1.0162
14472TIP3   OH264906   3.754   5.731  15.083 -0.0184  0.1960  0.2339
14472TIP3    H164907   3.744   5.750  14.989 -0.2634 -1.0118 -0.0098
14472TIP3    H264908   3.694   5.792  15.126 -1.8836 -0.9464 -0.6072
14473TIP3   OH264909   5.035   0.623   2.419  0.6202  0.0764 -0.5049
14473TIP3    H164910   4.956   0.665   2.383  1.0865  0.9249 -0.5635
14473TIP3    H264911   5.025   0.531   2.396 -0.8516 -0.0145  0.3820
14474TIP3   OH264912   5.634   5.839  10.752  0.4031  0.4527 -0.2006
14474TIP3    H164913   5.696   5.903  10.717  0.0322  0.5344 -0.7142
14474TIP3    H264914   5.586   5.808  10.676  0.6445 -0.5214  0.0240
14475TIP3   OH264915   4.550   3.553  14.499 -0.3769 -0.0788 -0.9469
14475TIP3    H164916   4.633   3.580  14.459  0.0584  0.9055  0.5328
14475TIP3    H264917   4.575   3.518  14.584 -1.4254 -0.6184 -0.8384
14476TIP3   OH264918   3.785   1.642   5.001  0.8388  0.4375 -0.2482
14476TIP3    H164919   3.754   1.711   5.060  0.2051  0.3712 -0.4951
14476TIP3    H264920   3.733   1.565   5.025  2.2087 -0.2326  0.6763
14477TIP3   OH264921   6.062   2.130  12.061 -0.2186 -0.2953 -0.3768
14477TIP3    H164922   5.996   2.187  12.022  0.7734  0.7792 -0.5351
14477TIP3    H264923   6.137   2.187  12.078 -0.4738 -0.7381  2.8796
14478TIP3   OH264924   2.593   6.073  13.238 -0.8022 -0.1225  0.5843
14478TIP3    H164925   2.580   5.978  13.236 -0.3742 -0.1841 -1.0888
14478TIP3    H264926   2.558   6.103  13.154  2.6105  0.6416 -0.7474
14479TIP3   OH264927   6.657   2.663   0.159 -0.1642 -0.0880 -0.5326
14479TIP3    H164928   6.604   2.703   0.090 -0.2053 -0.5130 -0.7498
14479TIP3    H264929   6.663   2.730   0.226  0.4645  0.5940 -1.2522
14480TIP3   OH264930   2.440   4.183   5.867 -0.5766 -0.1138 -0.0533
14480TIP3    H164931   2.393   4.263   5.888 -2.6368 -1.1544 -0.4178
14480TIP3    H264932   2.446   4.182   5.772  1.3329  0.5740  0.0140
14481TIP3   OH264933   0.525   4.259  12.483 -0.4608  0.3313  0.1363
14481TIP3    H164934   0.548   4.352  12.478  0.5364  0.0962  0.2355
14481TIP3    H264935   0.519   4.231  12.391 -0.6936  0.4746  0.1073
14482TIP3   OH264936   2.567   1.927  10.442  0.5807  0.1275 -0.1044
14482TIP3    H164937   2.476   1.953  10.461  0.1050 -0.8570 -0.9195
14482TIP3    H264938   2.620   1.980  10.501 -0.4499  1.5802 -0.4319
14483TIP3   OH264939   6.520   4.018  15.076  0.5566 -0.1539  0.5371
14483TIP3    H164940   6.483   4.017  15.164  0.7110 -0.3402  0.5988
14483TIP3    H264941   6.443   4.027  15.019  0.4419 -0.2072  0.6809
14484TIP3   OH264942   4.417   5.830   0.989 -0.0041  0.8781 -0.5269
14484TIP3    H164943   4.364   5.902   0.953  0.2259  2.1202  1.4613
14484TIP3    H264944   4.473   5.872   1.054 -0.2395 -1.1804  1.1102
14485TIP3   OH264945   5.303   2.643   0.084 -0.2248 -0.4431  0.1612
14485TIP3    H164946   5.336   2.609   0.167 -1.3744 -0.0282  0.8138
14485TIP3    H264947   5.284   2.565   0.032  1.1968 -0.7007 -0.0231
14486TIP3   OH264948   1.819   0.167   0.529  0.0630 -0.1883 -0.1681
14486TIP3    H164949   1.767   0.088   0.546 -0.7330  0.9897  3.8990
14486TIP3    H264950   1.909   0.142   0.554 -0.4207  0.4016  2.5175
14487TIP3   OH264951   0.201   4.751   4.163  0.3379  0.1072 -0.3618
14487TIP3    H164952   0.150   4.832   4.154  0.1295  0.2350  1.4316
14487TIP3    H264953   0.257   4.748   4.086  0.4498  2.0394 -0.3926
14488TIP3   OH264954   0.306   0.375   2.751 -0.2967  0.3579 -0.4266
14488TIP3    H164955   0.240   0.422   2.802 -0.0866  1.5257 -1.1906
14488TIP3    H264956   0.390   0.404   2.788 -0.1561 -2.1601  1.4595
14489TIP3   OH264957   5.206   3.003   2.323  0.7121  0.0882  0.2026
14489TIP3    H164958   5.252   2.983   2.241 -1.3714 -0.3775 -0.9277
14489TIP3    H264959   5.142   2.932   2.332  0.4884  0.4608  1.9429
14490TIP3   OH264960   5.958   0.257   4.891 -0.1187 -0.3074  0.2740
14490TIP3    H164961   5.997   0.342   4.909 -0.0343 -0.3947  0.5042
14490TIP3    H264962   6.021   0.194   4.926  1.0490 -0.5585 -2.0642
14491TIP3   OH264963   0.668   5.785  12.236  0.2236 -0.3990  0.7520
14491TIP3    H164964   0.579   5.770  12.267 -0.0868  0.3797  0.2707
14491TIP3    H264965   0.721   5.720  12.282 -0.8283 -2.0205 -0.1944
14492TIP3   OH264966   3.212   0.840  12.140  0.3922  0.0810  0.3180
14492TIP3    H164967   3.231   0.895  12.064 -1.4868 -0.9403 -0.9758
14492TIP3    H264968   3.193   0.902  12.210  3.4351  1.0786  0.4391
14493TIP3   OH264969   3.083   4.583  11.776  0.0077 -0.9559 -0.3405
14493TIP3    H164970   3.162   4.617  11.819 -0.5168 -0.4312  0.2394
14493TIP3    H264971   3.109   4.568  11.685  0.3510  0.7869 -0.5727
14494TIP3   OH264972   0.143   5.151   5.138 -0.3688  0.1150 -0.2340
14494TIP3    H164973   0.116   5.214   5.072  0.8667  0.6285 -0.2859
14494TIP3    H264974   0.164   5.203   5.215  0.0773 -0.2841 -0.0751
14495TIP3   OH264975   3.376   5.124   3.230 -0.3248 -0.1014 -0.0693
14495TIP3    H164976   3.417   5.201   3.190 -0.4857  0.5589  0.9825
14495TIP3    H264977   3.450   5.070   3.258 -0.1197  0.8834  1.4332
14496TIP3   OH264978   5.367   2.738   2.374 -0.4210  0.5419  0.3163
14496TIP3    H164979   5.436   2.737   2.308  0.4541 -1.3827  1.1640
14496TIP3    H264980   5.294   2.691   2.333 -0.4117  0.6156  0.2152
14497TIP3   OH264981   3.698   4.772   3.463 -0.1170 -0.4599  0.1229
14497TIP3    H164982   3.752   4.785   3.541 -0.1864 -0.5416  0.1843
14497TIP3    H264983   3.615   4.817   3.483 -0.4695 -1.2417  0.4529
14498TIP3   OH264984   5.622   3.535   0.479  0.3299  1.0153  0.2028
14498TIP3    H164985   5.605   3.531   0.573  1.6316 -0.9508  0.4311
14498TIP3    H264986   5.574   3.612   0.448 -1.0191  1.0767  2.2749
14499TIP3   OH264987   5.614   0.263  12.679 -0.0860 -0.0203 -0.3702
14499TIP3    H164988   5.549   0.278  12.748 -0.2344 -1.1983 -0.2456
14499TIP3    H264989   5.650   0.350  12.662 -0.3314  0.3578  0.9151
14500TIP3   OH264990   5.853   1.888  11.054 -0.0899 -0.1674  0.2969
14500TIP3    H164991   5.801   1.826  11.003 -0.2773  0.1520  0.0954
14500TIP3    H264992   5.939   1.887  11.013 -0.3260  0.3151 -0.2209
14501TIP3   OH264993   1.074   3.240  17.096  0.4244  0.2963 -0.0357
14501TIP3    H164994   1.020   3.179  17.146  0.3652 -0.1858 -0.6734
14501TIP3    H264995   1.017   3.315  17.080 -0.1468 -0.3217 -0.9271
14502TIP3   OH264996   1.103   0.425  16.438  0.2594  0.2810 -0.0978
14502TIP3    H164997   1.030   0.412  16.379 -0.5611  0.5375  0.8392
14502TIP3    H264998   1.097   0.353  16.501  0.9547  0.1747 -0.1340
14503TIP3   OH264999   4.969   3.055  17.165  0.2823  0.0287 -0.3111
14503TIP3    H165000   4.890   3.096  17.202 -0.2998 -1.3914  0.1103
14503TIP3    H265001   5.003   3.120  17.104 -2.2216  0.0062 -1.8718
14504TIP3   OH265002   5.430   0.301   1.624 -0.6972  0.0588 -0.5928
14504TIP3    H165003   5.433   0.325   1.717 -0.5978 -0.1958 -0.5314
14504TIP3    H265004   5.510   0.252   1.609 -0.5755  0.3471 -0.8834
14505TIP3   OH265005   6.052   4.561  12.103  0.0778  0.3677  0.1222
14505TIP3    H165006   5.963   4.564  12.067  0.8345 -0.9070 -2.0906
14505TIP3    H265007   6.073   4.467  12.106  1.2652  0.6411  0.8148
14506TIP3   OH265008   5.851   0.643  12.124  0.0901 -0.0476 -0.4309
14506TIP3    H165009   5.768   0.690  12.137  1.2331  2.4054 -1.2946
14506TIP3    H265010   5.866   0.597  12.206 -2.6202 -1.4921 -0.6284
14507TIP3   OH265011   2.433   5.885   3.458  0.5993  0.2667  0.2202
14507TIP3    H165012   2.442   5.980   3.459 -0.8721  0.5584 -2.5613
14507TIP3    H265013   2.343   5.869   3.487  0.1124 -0.0320 -1.3344
14508TIP3   OH265014   0.651   2.200  16.743 -0.1584 -0.0401 -0.0197
14508TIP3    H165015   0.664   2.201  16.838 -3.1819  2.8110  0.5490
14508TIP3    H265016   0.584   2.133  16.729  0.3554 -0.5265 -0.1946
14509TIP3   OH265017   1.957   6.803  15.948  0.3695  0.1174 -0.3694
14509TIP3    H165018   1.992   6.739  16.010 -0.4004 -2.7568 -2.6525
14509TIP3    H265019   2.018   6.877  15.952  1.2386 -0.6339  2.5206
14510TIP3   OH265020   3.272   4.888   2.254 -0.3531  0.6788 -0.3175
14510TIP3    H165021   3.338   4.948   2.289  0.6794 -0.3310 -0.4486
14510TIP3    H265022   3.322   4.812   2.225 -1.6793 -0.7074  0.7989
14511TIP3   OH265023   2.361   2.907   0.510 -0.0670 -0.0529  0.0423
14511TIP3    H165024   2.404   2.910   0.595  0.4130  2.2268 -0.2329
14511TIP3    H265025   2.364   2.814   0.486  1.6073 -0.4658  1.5852
14512TIP3   OH265026   6.512   0.409   2.233 -0.2339  0.0615 -0.1573
14512TIP3    H165027   6.512   0.443   2.322  0.9408 -1.4767  0.4621
14512TIP3    H265028   6.469   0.323   2.240 -0.0612 -0.1075 -1.0616
14513TIP3   OH265029   5.158   3.476   5.112 -0.1324 -0.4246 -0.2100
14513TIP3    H165030   5.096   3.549   5.113 -0.9713 -1.1140 -0.5166
14513TIP3    H265031   5.148   3.436   5.198  0.7261  0.1309  0.1630
14514TIP3   OH265032   3.361   5.655  13.188 -0.4366 -0.2516  0.0060
14514TIP3    H165033   3.449   5.633  13.220 -0.6680 -1.4192 -0.1203
14514TIP3    H265034   3.364   5.749  13.173  0.5795 -0.1618  0.6757
14515TIP3   OH265035   5.906   5.261   1.954 -0.3037 -0.2911 -0.0052
14515TIP3    H165036   5.848   5.210   1.898  0.1834 -0.8343 -0.0174
14515TIP3    H265037   5.927   5.339   1.902 -2.3563  0.7656  0.6387
14516TIP3   OH265038   4.920   3.674   4.480 -0.1686 -0.0916  0.3727
14516TIP3    H165039   4.882   3.637   4.400  2.5579 -2.3494 -0.0568
14516TIP3    H265040   4.905   3.606   4.546  0.2554  0.4122  0.9891
14517TIP3   OH265041   4.540   2.339   4.363 -0.5101  0.4355  0.2852
14517TIP3    H165042   4.623   2.384   4.351 -1.4395  2.3379  0.6195
14517TIP3    H265043   4.502   2.379   4.442 -1.0999 -1.4342  1.0103
14518TIP3   OH265044   3.001   1.788   3.371 -0.4864 -0.5295  0.6722
14518TIP3    H165045   2.927   1.828   3.417 -1.1577  1.3162 -1.7999
14518TIP3    H265046   3.056   1.862   3.346 -0.5223 -1.3247 -2.0144
14519TIP3   OH265047   5.680   0.563   2.064  0.4465  0.6687  0.4014
14519TIP3    H165048   5.596   0.587   2.104 -0.6836 -1.4932 -0.5375
14519TIP3    H265049   5.734   0.534   2.138  0.0418  1.1346  0.8879
14520TIP3   OH265050   1.243   0.438   3.985 -0.3476  0.2248 -0.1902
14520TIP3    H165051   1.265   0.427   4.078 -1.6641  0.9706  0.2268
14520TIP3    H265052   1.317   0.486   3.948  0.1528 -0.0163  0.4802
14521TIP3   OH265053   1.707   3.375   1.843  0.3913 -0.2487 -0.7560
14521TIP3    H165054   1.677   3.285   1.857  1.9589 -0.5616  0.8894
14521TIP3    H265055   1.655   3.428   1.903  1.8399 -0.5644  0.8412
14522TIP3   OH265056   5.650   6.560   2.211  0.6140  0.1991  0.5734
14522TIP3    H165057   5.701   6.598   2.139 -0.8196 -1.5291 -1.4832
14522TIP3    H265058   5.582   6.509   2.167  0.4991 -2.0764  3.1485
14523TIP3   OH265059   3.866   4.779  14.805  0.2247 -0.3760  0.0152
14523TIP3    H165060   3.851   4.867  14.770 -3.5672 -1.0849 -0.5339
14523TIP3    H265061   3.832   4.782  14.894 -1.4557 -1.6078 -0.5364
14524TIP3   OH265062   2.626   3.112  14.431  0.3647  0.4456 -0.3498
14524TIP3    H165063   2.605   3.077  14.345 -0.6666  1.2781 -0.4608
14524TIP3    H265064   2.700   3.171  14.416 -0.5972  1.5417 -0.8987
14525TIP3   OH265065   4.943   2.768   0.431 -0.9436 -0.5675  0.7519
14525TIP3    H165066   4.859   2.775   0.385 -1.3971 -1.2029  1.4610
14525TIP3    H265067   5.004   2.736   0.364 -1.0814  0.5992  0.0395
14526TIP3   OH265068   0.542   6.269   5.541  0.4653  0.1425  0.1597
14526TIP3    H165069   0.506   6.336   5.600 -1.2544  0.1426 -0.8336
14526TIP3    H265070   0.613   6.314   5.494  0.4612  0.7527  0.7248
14527TIP3   OH265071   3.301   0.043  10.996 -0.0322  0.0962 -0.0505
14527TIP3    H165072   3.267   0.132  11.005 -2.1336 -0.6293 -0.3441
14527TIP3    H265073   3.322   0.034  10.904  1.4018  0.6593  0.1902
14528TIP3   OH265074   4.598   1.930  13.964  0.0160 -0.1232  0.6864
14528TIP3    H165075   4.537   1.869  14.006  1.6432 -1.3685  1.3944
14528TIP3    H265076   4.574   1.928  13.872 -1.0508 -0.5253  0.9530
14529TIP3   OH265077   5.924   1.413  15.409 -0.1238  0.3173  0.3837
14529TIP3    H165078   5.833   1.442  15.411  0.5921  2.7977  1.6916
14529TIP3    H265079   5.950   1.410  15.501  1.3001  0.2802  0.0022
14530TIP3   OH265080   0.347   6.385  10.760  0.3657  0.6468 -0.3014
14530TIP3    H165081   0.389   6.437  10.691 -0.4303  1.9258  0.1452
14530TIP3    H265082   0.414   6.321  10.785  1.1405  1.0189 -1.3433
14531TIP3   OH265083   4.219   1.612  13.878  0.1095  0.0598 -0.6837
14531TIP3    H165084   4.136   1.644  13.913 -0.2578 -0.7016 -0.8388
14531TIP3    H265085   4.219   1.518  13.898  0.3290 -0.2093 -1.8800
14532TIP3   OH265086   0.765   0.917  11.512  0.0281  0.1330  0.2861
14532TIP3    H165087   0.779   0.857  11.585  0.3676  0.0413  0.1473
14532TIP3    H265088   0.809   0.998  11.538  0.0858  0.1246  0.2163
14533TIP3   OH265089   1.044   5.729   2.204 -0.0957  0.2822  0.1606
14533TIP3    H165090   0.959   5.741   2.247  0.2130 -2.9601  1.9225
14533TIP3    H265091   1.103   5.788   2.251 -1.1980  2.4414 -0.9684
14534TIP3   OH265092   5.663   1.007   3.655  0.2003  0.4416  0.4117
14534TIP3    H165093   5.702   0.985   3.571  1.9968  0.5623  1.1834
14534TIP3    H265094   5.665   1.103   3.658 -1.4691  0.5308 -0.1075
14535TIP3   OH265095   2.457   6.773  11.208 -0.4644 -0.8812  0.6848
14535TIP3    H165096   2.384   6.743  11.263 -0.6777  2.1465  2.2729
14535TIP3    H265097   2.416   6.816  11.134 -0.2512 -1.1275  0.4239
14536TIP3   OH265098   5.415   5.494   2.211  0.2959  0.0297  0.0978
14536TIP3    H165099   5.481   5.429   2.190  0.2988  0.0158  0.1506
14536TIP3    H265100   5.332   5.446   2.212  0.2763  0.0618 -0.0422
14537TIP3   OH265101   1.215   2.605  13.923 -0.7395  0.2406  0.2600
14537TIP3    H165102   1.202   2.679  13.984 -1.2042  0.3253  0.0631
14537TIP3    H265103   1.295   2.563  13.954 -1.0552  0.1799  1.0458
14538TIP3   OH265104   3.267   1.494  14.361  0.3231 -0.0212  0.3270
14538TIP3    H165105   3.255   1.586  14.338  1.1931  0.2358  0.8625
14538TIP3    H265106   3.361   1.485  14.377  0.3805 -1.2092 -0.5793
14539TIP3   OH265107   3.084   6.405  13.733  0.8143 -0.2952 -0.2995
14539TIP3    H165108   3.140   6.479  13.756  0.0362  0.1282  0.2733
14539TIP3    H265109   3.023   6.440  13.667 -0.1454 -0.1481  0.6276
14540TIP3   OH265110   4.450   4.852   0.080 -0.0327 -0.0343  0.1113
14540TIP3    H165111   4.481   4.844   0.170  0.9156 -3.0498 -0.3941
14540TIP3    H265112   4.373   4.909   0.087 -0.3712 -0.6758  2.9151
14541TIP3   OH265113   5.101   2.359   4.159  0.0473 -0.3943 -0.6251
14541TIP3    H165114   5.070   2.286   4.213  0.0529 -0.9879 -1.3998
14541TIP3    H265115   5.174   2.396   4.208 -1.0408  0.2179  0.6250
14542TIP3   OH265116   0.559   2.687   0.999 -0.7710 -0.6068 -0.3664
14542TIP3    H165117   0.625   2.747   0.965  0.6588 -2.2665 -0.6723
14542TIP3    H265118   0.476   2.726   0.973  0.1151  0.8043 -1.2586
14543TIP3   OH265119   5.781   2.116  13.023  0.8051 -0.0201  0.0068
14543TIP3    H165120   5.720   2.104  13.096  0.3680 -0.3187 -0.4026
14543TIP3    H265121   5.858   2.159  13.062  1.3702 -1.8650  1.0249
14544TIP3   OH265122   2.573   1.902  14.136  0.1044  0.1404 -0.7378
14544TIP3    H165123   2.497   1.844  14.140 -0.4231  0.8824  2.1511
14544TIP3    H265124   2.556   1.958  14.060 -1.4866 -0.6908 -1.0491
14545TIP3   OH265125   1.339   4.916  12.277  0.3783 -0.0315 -0.5654
14545TIP3    H165126   1.275   4.846  12.265 -0.0287 -0.0787  1.5751
14545TIP3    H265127   1.403   4.880  12.339  0.4651  1.2731  0.1347
14546TIP3   OH265128   6.071   0.039  11.380  0.2441  0.1343  0.0145
14546TIP3    H165129   6.090  -0.049  11.349  1.2711  0.6339 -0.8434
14546TIP3    H265130   6.156   0.083  11.383 -0.0758  0.6993  1.7505
14547TIP3   OH265131   0.392   5.375  15.330  0.0168  0.3853 -0.4989
14547TIP3    H165132   0.312   5.402  15.286  0.1885  1.4082 -0.2091
14547TIP3    H265133   0.457   5.441  15.305  0.5840 -0.0198 -0.1468
14548TIP3   OH265134   1.814   4.608  15.297 -0.4789 -0.2034 -0.0034
14548TIP3    H165135   1.725   4.629  15.269 -0.4140 -1.7458 -1.4902
14548TIP3    H265136   1.870   4.643  15.228 -0.0628 -0.7587  0.0433
14549TIP3   OH265137   4.551   0.255  13.026 -0.0246  0.4796  0.2174
14549TIP3    H165138   4.493   0.268  12.951  0.2324 -0.9826 -0.2589
14549TIP3    H265139   4.603   0.336  13.030 -0.8540  1.0635 -0.4435
14550TIP3   OH265140   4.306   2.073  15.251  0.4629  0.0691 -0.9291
14550TIP3    H165141   4.269   2.160  15.241 -0.1956 -0.3094 -1.9580
14550TIP3    H265142   4.230   2.014  15.244  0.8797 -0.5821 -0.1505
14551TIP3   OH265143   3.714   4.400  12.582 -0.0088  0.5418  0.2519
14551TIP3    H165144   3.699   4.488  12.547  1.6216  0.6759 -0.1814
14551TIP3    H265145   3.784   4.411  12.646  1.3107 -0.6267 -0.9028
14552TIP3   OH265146   4.090   0.946   3.341 -0.5104 -0.4218 -0.2041
14552TIP3    H165147   4.095   0.950   3.246 -3.0140 -0.8337 -0.4310
14552TIP3    H265148   4.122   0.858   3.363  0.6748 -0.0972 -0.5829
14553TIP3   OH265149   6.202   6.546  15.472 -1.0503  0.7004  0.4217
14553TIP3    H165150   6.140   6.496  15.419 -0.0279 -0.2818  0.1092
14553TIP3    H265151   6.184   6.519  15.562 -0.1962 -0.6493  0.2221
14554TIP3   OH265152   0.964   0.272  14.347 -0.1737 -0.6375  0.8015
14554TIP3    H165153   0.953   0.367  14.359 -1.5025 -0.9286  2.2162
14554TIP3    H265154   1.055   0.256  14.374  0.2574  0.2886 -0.0092
14555TIP3   OH265155   4.992   5.353   0.134  0.1755 -0.1135 -0.4863
14555TIP3    H165156   5.087   5.350   0.150  0.0706  0.2939  0.2674
14555TIP3    H265157   4.958   5.276   0.179  0.1045 -0.0628 -0.4537
14556TIP3   OH265158   3.471   3.552  14.940  0.6017  0.1399  0.2729
14556TIP3    H165159   3.406   3.595  14.884  1.9307  1.8916 -0.0377
14556TIP3    H265160   3.422   3.485  14.988 -1.0011  0.0333 -1.4049
14557TIP3   OH265161   0.346   2.668   1.815 -0.2506  0.0972 -0.2703
14557TIP3    H165162   0.297   2.634   1.890  1.0420  1.8687  1.4816
14557TIP3    H265163   0.388   2.591   1.776  0.3431 -0.6942  1.8288
14558TIP3   OH265164   3.070   4.750   2.017  0.8747  0.0729 -0.1020
14558TIP3    H165165   3.012   4.804   1.965  2.3836  0.8295 -1.0640
14558TIP3    H265166   3.048   4.771   2.108 -0.4219  0.2242 -0.4334
14559TIP3   OH265167   2.277   6.285   2.297  0.0210  0.0132  0.1240
14559TIP3    H165168   2.206   6.345   2.275  0.5306  0.0989 -1.4351
14559TIP3    H265169   2.272   6.274   2.392 -0.2631  2.3052  0.4268
14560TIP3   OH265170   5.468   2.325   0.773  0.2442  0.3148 -0.3147
14560TIP3    H165171   5.448   2.352   0.862  0.9979 -0.3117  0.0584
14560TIP3    H265172   5.411   2.379   0.718 -1.0312 -0.0672  0.5908
14561TIP3   OH265173   6.832   5.969  14.236  0.8053 -0.3129 -0.4142
14561TIP3    H165174   6.766   5.908  14.269  1.8510 -1.6196 -0.6630
14561TIP3    H265175   6.819   5.970  14.141 -0.6229  1.5759 -0.2472
14562TIP3   OH265176   5.870   5.758   2.483  0.0817 -0.0246  0.4211
14562TIP3    H165177   5.803   5.729   2.545  1.4983 -0.6497  1.7478
14562TIP3    H265178   5.877   5.852   2.497 -0.4188  0.0167  0.3843
14563TIP3   OH265179   3.709   4.705  10.559  0.4751  0.2170  0.3410
14563TIP3    H165180   3.678   4.700  10.649 -2.3910  1.9039 -0.4505
14563TIP3    H265181   3.804   4.695  10.566  0.2522 -0.7012  3.4075
14564TIP3   OH265182   5.364   1.449   2.531 -0.0534 -0.9777 -0.3963
14564TIP3    H165183   5.325   1.515   2.472  0.0256  0.6611  1.3121
14564TIP3    H265184   5.437   1.413   2.481  0.6645  1.1168 -0.9672
14565TIP3   OH265185   1.747   3.825  13.527  0.7261 -0.1474  0.0542
14565TIP3    H165186   1.746   3.741  13.482  0.8808  0.8819 -1.9541
14565TIP3    H265187   1.756   3.890  13.458  0.0688  1.5769  1.5032
14566TIP3   OH265188   5.478   0.084   4.477 -0.7118  0.3600  0.5377
14566TIP3    H165189   5.547   0.043   4.425 -0.5194  1.6695 -0.2822
14566TIP3    H265190   5.405   0.095   4.416 -1.1081  0.3522  1.0043
14567TIP3   OH265191   2.261   3.021   1.114 -0.1049  0.1420 -0.0178
14567TIP3    H165192   2.208   3.029   1.035 -2.5439 -1.8078  1.2671
14567TIP3    H265193   2.259   3.108   1.154  1.2271  1.1764 -2.0440
14568TIP3   OH265194   0.523   6.545   1.169  0.5178 -0.8582 -0.3687
14568TIP3    H165195   0.610   6.530   1.131  1.2153 -0.2149  0.8988
14568TIP3    H265196   0.490   6.623   1.124  0.9155 -0.6781 -0.3510
14569TIP3   OH265197   1.983   4.711   6.568  0.1360  0.1023  0.4386
14569TIP3    H165198   1.938   4.692   6.650 -0.5175 -1.9715 -0.3347
14569TIP3    H265199   1.915   4.749   6.512 -0.2906 -1.4834 -0.1734
14570TIP3   OH265200   0.677   2.543  13.030 -0.4800  0.2060  0.0186
14570TIP3    H165201   0.600   2.487  13.025 -0.4940  0.1093  1.0954
14570TIP3    H265202   0.714   2.526  13.117  0.6942  0.3343 -0.4329
14571TIP3   OH265203   3.111   1.530   4.425 -0.1733 -0.0218 -0.0698
14571TIP3    H165204   3.191   1.514   4.375 -1.0481 -0.7625 -1.3109
14571TIP3    H265205   3.055   1.580   4.365 -0.7243  0.2930  0.6889
14572TIP3   OH265206   2.428   3.864  15.746 -0.1838  0.5712 -0.1926
14572TIP3    H165207   2.496   3.901  15.689  0.8234  1.6128  1.5954
14572TIP3    H265208   2.442   3.770  15.742  1.3891  0.7682  0.1354
14573TIP3   OH265209   3.670   2.999   5.983  0.7089  0.3185  0.5345
14573TIP3    H165210   3.577   3.021   5.978  0.3852 -1.1612 -1.1440
14573TIP3    H265211   3.672   2.914   6.028  0.8994 -1.0128 -1.8030
14574TIP3   OH265212   2.838   3.292   6.007  0.4315 -0.0292  0.4780
14574TIP3    H165213   2.787   3.368   6.035  0.3369 -0.3436  1.1875
14574TIP3    H265214   2.816   3.224   6.070 -2.6992 -2.0338 -2.4366
14575TIP3   OH265215   0.026   6.505   4.956  0.0674  0.4480  0.2157
14575TIP3    H165216  -0.062   6.474   4.973  0.1892 -2.9406 -3.7547
14575TIP3    H265217   0.082   6.455   5.016 -0.3106 -2.7177 -1.8706
14576TIP3   OH265218   0.269   3.713  15.910  0.7092 -0.1065  0.0344
14576TIP3    H165219   0.213   3.743  15.839  0.1325 -0.0889  0.4870
14576TIP3    H265220   0.306   3.793  15.947 -1.1502  0.1442  1.5070
14577TIP3   OH265221   5.053   6.185  15.114 -0.2472  0.8028  0.1919
14577TIP3    H165222   4.977   6.175  15.055 -1.1393  1.4479  1.2037
14577TIP3    H265223   5.097   6.100  15.110 -1.8034 -0.0624  0.6385
14578TIP3   OH265224   1.537   2.255  12.921 -0.0882  0.3487 -0.0477
14578TIP3    H165225   1.498   2.202  12.990 -0.6469  1.2378  0.3314
14578TIP3    H265226   1.488   2.232  12.842  1.7173 -2.0299 -0.6069
14579TIP3   OH265227   6.397   5.834   1.704 -0.6761  0.5952  0.1313
14579TIP3    H165228   6.417   5.751   1.662  1.3916 -0.4229  2.8317
14579TIP3    H265229   6.301   5.841   1.701 -0.8502 -1.6082 -0.6134
14580TIP3   OH265230   6.671   5.729   6.131  0.0571 -0.3609  0.6221
14580TIP3    H165231   6.607   5.668   6.094 -0.9693  0.4821  0.9495
14580TIP3    H265232   6.697   5.689   6.214 -0.5997 -0.3760  0.8293
14581TIP3   OH265233   4.957   4.371  16.766 -0.3396 -0.1563 -0.3792
14581TIP3    H165234   4.892   4.373  16.696  0.5398  0.4446 -1.2194
14581TIP3    H265235   4.944   4.287  16.809 -0.3382 -0.9375 -1.8440
14582TIP3   OH265236   4.172   3.180  12.280  0.0196  0.2796 -0.2838
14582TIP3    H165237   4.107   3.112  12.266 -1.1609  0.7230  2.4751
14582TIP3    H265238   4.129   3.260  12.249 -0.1268  0.3375  0.0677
14583TIP3   OH265239   6.328   6.823   3.772  0.0313  0.0582  0.1404
14583TIP3    H165240   6.279   6.741   3.763 -0.5482  0.4375 -0.2123
14583TIP3    H265241   6.273   6.879   3.826  1.5994 -0.6801  2.6781
14584TIP3   OH265242   0.415   0.667   5.553 -0.1342 -0.0051  0.4767
14584TIP3    H165243   0.432   0.663   5.647  2.4596  2.4721  0.2429
14584TIP3    H265244   0.332   0.714   5.546  1.0131  2.3481  1.5797
14585TIP3   OH265245   0.586   0.340  12.712  0.3864  0.4559  0.1465
14585TIP3    H165246   0.574   0.246  12.700  2.4432  0.2993 -1.4633
14585TIP3    H265247   0.500   0.378  12.694 -0.2293 -1.0432 -0.2318
14586TIP3   OH265248   0.464   4.224  13.480  0.3906 -0.3720  0.6277
14586TIP3    H165249   0.373   4.239  13.506  0.0621  0.1394 -0.6824
14586TIP3    H265250   0.457   4.171  13.401  1.0310  2.0144 -1.1688
14587TIP3   OH265251   3.098   6.370  16.279 -0.0291 -0.2489 -0.3289
14587TIP3    H165252   3.106   6.349  16.186  0.6742 -1.0369 -0.0972
14587TIP3    H265253   3.135   6.458  16.287  0.6146 -0.4879 -0.6605
14588TIP3   OH265254   2.120   2.392  14.844 -0.4647 -0.0021  0.0294
14588TIP3    H165255   2.081   2.417  14.928  2.4114  1.9164  0.9583
14588TIP3    H265256   2.061   2.428  14.779 -1.7060  0.2918  1.2706
14589TIP3   OH265257   2.953   6.695   1.486  0.2544 -0.2878  0.1027
14589TIP3    H165258   2.897   6.708   1.563  0.9161  0.9925  0.3964
14589TIP3    H265259   2.977   6.603   1.489 -2.6212 -1.1684 -0.6008
14590TIP3   OH265260   5.844   1.312  11.971  0.2214 -0.5942 -0.0634
14590TIP3    H165261   5.784   1.287  11.900 -0.7822 -1.1218  0.9473
14590TIP3    H265262   5.849   1.407  11.965 -1.3706 -0.4661  0.3337
14591TIP3   OH265263   5.496   1.313  12.090  0.8483  0.2015  0.3474
14591TIP3    H165264   5.534   1.365  12.160  1.2106  1.7641 -0.9577
14591TIP3    H265265   5.473   1.230  12.132 -0.8818  1.7761  2.8325
14592TIP3   OH265266   4.251   5.372  14.570  0.4202 -0.3501  0.2790
14592TIP3    H165267   4.308   5.307  14.529  0.7082  0.3199 -0.4244
14592TIP3    H265268   4.162   5.336  14.559  0.5548 -0.5223 -0.3085
14593TIP3   OH265269   3.848   1.559  11.021  0.0045 -0.5423 -0.0112
14593TIP3    H165270   3.842   1.584  11.113  0.2744  1.4916 -0.5017
14593TIP3    H265271   3.788   1.618  10.976 -0.0972 -1.4884 -1.1513
14594TIP3   OH265272   5.133   4.025   3.836 -0.0756 -0.3337  0.1351
14594TIP3    H165273   5.146   3.937   3.800 -1.0877 -0.3607 -0.1837
14594TIP3    H265274   5.050   4.020   3.883 -0.5770  0.6780 -0.6049
14595TIP3   OH265275   1.424   4.847  14.992 -0.2858  0.8000  0.4238
14595TIP3    H165276   1.396   4.934  15.019  1.1737  0.9794  1.4662
14595TIP3    H265277   1.515   4.858  14.966 -0.1068 -0.4033  0.4803
14596TIP3   OH265278   1.988   2.188   5.961  0.4750 -0.4341 -0.2274
14596TIP3    H165279   1.989   2.258   6.027  2.1070 -0.9264  0.3014
14596TIP3    H265280   1.972   2.108   6.011 -1.6407 -0.4859 -0.8569
14597TIP3   OH265281   1.176   2.587  16.729 -0.5774  1.0918 -0.5537
14597TIP3    H165282   1.081   2.574  16.733 -0.4383  0.2622  0.2619
14597TIP3    H265283   1.187   2.657  16.665 -1.6974  0.7197 -1.1905
14598TIP3   OH265284   3.495   2.925   3.357 -0.5875 -0.2396  0.0685
14598TIP3    H165285   3.577   2.974   3.365 -0.6554 -0.1589  0.2780
14598TIP3    H265286   3.495   2.867   3.434 -0.4078 -0.7153 -0.2845
14599TIP3   OH265287   1.560   2.570   5.443  0.4085  0.5954  0.6772
14599TIP3    H165288   1.471   2.602   5.458 -0.4542 -1.4312  0.1770
14599TIP3    H265289   1.584   2.526   5.525  0.4427  0.0298  0.3665
14600TIP3   OH265290   6.659   3.415  13.557  0.1230 -0.4710 -0.0058
14600TIP3    H165291   6.622   3.328  13.548  0.6313 -0.8802  1.5588
14600TIP3    H265292   6.589   3.467  13.596 -1.4460  0.8287 -4.0552
14601TIP3   OH265293   5.351   3.654   2.080  0.6078 -0.4649 -0.2066
14601TIP3    H165294   5.398   3.698   2.010 -0.4985 -1.0010 -1.3285
14601TIP3    H265295   5.383   3.563   2.077  0.1130 -0.6379 -0.4471
14602TIP3   OH265296   0.382   6.402  17.014  0.7082 -0.2018 -0.9730
14602TIP3    H165297   0.376   6.308  16.996 -0.4066 -0.2881 -0.2245
14602TIP3    H265298   0.373   6.443  16.928  2.0345 -0.7789 -1.4240
14603TIP3   OH265299   2.882   2.268   1.216 -0.1944  0.5639 -0.6556
14603TIP3    H165300   2.848   2.275   1.305 -0.7343 -1.4747 -0.6652
14603TIP3    H265301   2.806   2.250   1.162  0.1373  1.7204 -1.5553
14604TIP3   OH265302   0.582   1.150  11.342  0.4039 -0.4524 -0.4173
14604TIP3    H165303   0.578   1.148  11.438 -2.0719  2.0491 -0.3293
14604TIP3    H265304   0.523   1.080  11.314  3.1095 -2.9539 -0.2907
14605TIP3   OH265305   3.259   5.160   2.506 -0.3822  0.0284  0.3319
14605TIP3    H165306   3.191   5.213   2.464  0.0535  1.0984  0.9354
14605TIP3    H265307   3.332   5.161   2.443 -1.1950 -1.8705 -0.7255
14606TIP3   OH265308   4.354   5.640  14.010  0.1891 -0.0319  0.4246
14606TIP3    H165309   4.385   5.559  14.049  1.4994  0.2697  0.0716
14606TIP3    H265310   4.334   5.697  14.085 -1.9484 -1.0554  0.7073
14607TIP3   OH265311   2.352   4.871   5.529  0.0153  0.1610  0.2914
14607TIP3    H165312   2.391   4.912   5.606  0.0971 -1.2054  0.9942
14607TIP3    H265313   2.304   4.796   5.563  0.1234 -0.5183 -1.0012
14608TIP3   OH265314   3.936   6.517   0.898  0.0227 -0.8219  0.2580
14608TIP3    H165315   3.948   6.528   0.804  0.9553  3.6421  0.6611
14608TIP3    H265316   3.851   6.475   0.907 -0.0930 -1.3500 -2.5739
14609TIP3   OH265317   5.562   1.976   2.392  0.0127 -0.1567  0.1181
14609TIP3    H165318   5.584   2.021   2.473  0.0688 -0.4941  0.2927
14609TIP3    H265319   5.596   2.033   2.323  1.0852 -0.4607  0.3715
14610TIP3   OH265320   1.020   5.723   1.007 -0.0870 -0.5395  0.8962
14610TIP3    H165321   1.082   5.796   1.017 -1.7691  0.8286  2.2191
14610TIP3    H265322   0.960   5.752   0.938 -0.2432 -1.0906  0.7951
14611TIP3   OH265323   6.692   0.415  17.073 -0.5232 -0.1969  0.1961
14611TIP3    H165324   6.605   0.452  17.088 -1.8443 -1.8290 -2.6503
14611TIP3    H265325   6.740   0.485  17.028 -0.9499  0.1320  0.2483
14612TIP3   OH265326   4.772   1.339   5.673  0.7837 -0.6519  0.4347
14612TIP3    H165327   4.745   1.403   5.739  0.4525 -0.5802  0.2345
14612TIP3    H265328   4.846   1.293   5.712  0.3334 -0.8885  1.0268
14613TIP3   OH265329   0.893   2.113  10.555  0.5572  0.2796  0.3119
14613TIP3    H165330   0.813   2.130  10.507  1.2248  2.3749 -0.1636
14613TIP3    H265331   0.867   2.114  10.647 -0.3100 -1.3135  0.1033
14614TIP3   OH265332   1.787   4.764  16.036  0.2578  0.2014  0.0977
14614TIP3    H165333   1.751   4.852  16.035  1.2204  0.5989 -1.0151
14614TIP3    H265334   1.877   4.775  16.066  1.0048 -0.1202 -1.9032
14615TIP3   OH265335   0.185   4.245   3.177  0.0624  0.0821  0.1011
14615TIP3    H165336   0.199   4.161   3.134 -0.4407  0.0680 -0.0419
14615TIP3    H265337   0.169   4.306   3.105  1.6839  0.5719  0.1106
14616TIP3   OH265338   1.102   1.448  11.985 -0.4568 -0.2362  0.2192
14616TIP3    H165339   1.049   1.526  11.965 -2.1807 -0.9861  1.6163
14616TIP3    H265340   1.182   1.484  12.023  0.8299  0.9916 -3.1865
14617TIP3   OH265341   1.973   3.636   3.376  0.1570 -0.2611  0.3794
14617TIP3    H165342   2.009   3.547   3.376  1.1253  0.0996  1.1239
14617TIP3    H265343   1.953   3.654   3.284 -0.7895 -1.5194  0.3119
14618TIP3   OH265344   3.951   6.764  13.121  0.3881 -0.6368 -0.1446
14618TIP3    H165345   3.873   6.806  13.156  1.0008 -1.9955  3.2037
14618TIP3    H265346   3.977   6.819  13.048 -1.0249  2.5792  1.5778
14619TIP3   OH265347   0.027   1.335  15.341  0.0190  0.0985 -0.4931
14619TIP3    H165348  -0.024   1.312  15.263 -2.1786  0.1824  0.8614
14619TIP3    H265349   0.063   1.251  15.371 -0.0546 -0.0944 -0.9281
14620TIP3   OH265350   6.447   1.440  14.210 -0.4905  0.2278 -0.1950
14620TIP3    H165351   6.421   1.458  14.120 -2.0465 -0.9764 -0.0287
14620TIP3    H265352   6.542   1.431  14.206 -0.5349  0.1260 -1.7249
14621TIP3   OH265353   1.002   3.847  17.190 -0.7904 -0.2991  0.4459
14621TIP3    H165354   0.937   3.790  17.232  0.4118 -1.8722  0.2811
14621TIP3    H265355   1.073   3.788  17.165  0.4530  1.2706  0.0889
14622TIP3   OH265356   3.974   4.343  11.105  0.1062  0.0149 -0.0820
14622TIP3    H165357   4.065   4.322  11.087  0.1109 -0.0839  0.0547
14622TIP3    H265358   3.930   4.259  11.113 -0.2283  0.0598 -1.2525
14623TIP3   OH265359   5.087   0.099   0.258 -0.0619 -0.3215  0.2427
14623TIP3    H165360   5.017   0.035   0.272  1.2178 -1.7718  0.2701
14623TIP3    H265361   5.140   0.061   0.188 -0.5843  1.8880 -1.4394
14624TIP3   OH265362   6.263   3.422  12.607 -0.4454 -0.1692  0.2916
14624TIP3    H165363   6.274   3.328  12.615  1.6787 -0.0492 -0.4287
14624TIP3    H265364   6.324   3.458  12.672  1.7495  0.6461 -2.0202
14625TIP3   OH265365   5.986   5.215   0.125 -0.6413  0.4235 -0.3172
14625TIP3    H165366   5.971   5.178   0.212  0.6078 -0.4421 -0.4380
14625TIP3    H265367   5.911   5.186   0.073 -0.5581 -0.4824  0.0502
14626TIP3   OH265368   6.213   5.671  13.255  0.1371 -0.0861  0.0103
14626TIP3    H165369   6.154   5.717  13.315  0.8217  0.7528  0.0627
14626TIP3    H265370   6.188   5.579  13.262  0.0975  0.0188  1.4633
14627TIP3   OH265371   2.906   0.813   2.041  0.6492  0.4305  0.5462
14627TIP3    H165372   2.899   0.787   1.948  2.0799  1.5719  0.0896
14627TIP3    H265373   2.854   0.893   2.047  0.2046  0.1274  0.8570
14628TIP3   OH265374   1.996   5.601  15.785 -0.2345 -0.3114 -0.2970
14628TIP3    H165375   2.060   5.622  15.854  0.5248 -1.5129 -0.6044
14628TIP3    H265376   2.012   5.509  15.766 -0.2956  0.0389 -2.2299
14629TIP3   OH265377   2.085   6.110  12.053 -0.1867  0.3052  0.1830
14629TIP3    H165378   2.070   6.060  12.133 -0.9475  0.5219  0.1863
14629TIP3    H265379   2.016   6.177  12.053  0.2221  0.7339 -0.3117
14630TIP3   OH265380   6.658   2.751   4.384 -0.1872 -0.6293  0.2175
14630TIP3    H165381   6.746   2.765   4.350 -0.4151 -0.7990 -0.4771
14630TIP3    H265382   6.670   2.699   4.463  0.3362 -0.6350  0.1386
14631TIP3   OH265383   5.928   4.767   3.628 -0.2035  0.0074  0.4519
14631TIP3    H165384   5.884   4.727   3.702 -1.8694  1.1874  0.1489
14631TIP3    H265385   5.947   4.857   3.656 -0.7775  0.4456 -0.4941
14632TIP3   OH265386   2.428   1.653  16.677  0.9736  0.2924  0.3614
14632TIP3    H165387   2.513   1.695  16.664  2.1138 -1.2126  2.4389
14632TIP3    H265388   2.447   1.560  16.679 -0.7555 -0.0848  0.7692
14633TIP3   OH265389   4.345   2.197   5.464 -0.2555  0.3219 -0.2839
14633TIP3    H165390   4.335   2.284   5.503 -1.2359  0.2150 -0.2581
14633TIP3    H265391   4.274   2.193   5.399 -0.6895 -0.7351  0.2394
14634TIP3   OH265392   6.285   4.189   1.094 -0.4088  0.5428  0.5930
14634TIP3    H165393   6.347   4.199   1.022 -0.6505  0.1384  0.3216
14634TIP3    H265394   6.199   4.195   1.053 -0.5588 -0.9527  0.6381
14635TIP3   OH265395   6.211   1.845  13.582  0.3409 -0.6810 -0.0405
14635TIP3    H165396   6.256   1.761  13.587 -1.3048 -1.5586  1.1276
14635TIP3    H265397   6.275   1.909  13.612  0.9484 -1.8344  1.2304
14636TIP3   OH265398   6.782   6.401  16.776  0.5065 -0.4086  0.3050
14636TIP3    H165399   6.808   6.459  16.848  0.1081  0.1530  0.0013
14636TIP3    H265400   6.763   6.460  16.703 -0.1541 -0.9026  0.0681
14637TIP3   OH265401   6.136   2.864  15.939  0.2290  0.1333 -0.4913
14637TIP3    H165402   6.133   2.959  15.928  2.5539  0.4199  0.6967
14637TIP3    H265403   6.121   2.829  15.851  1.8480  1.7055 -1.4706
14638TIP3   OH265404   6.439   4.942   6.683  0.4247 -0.0840 -0.0665
14638TIP3    H165405   6.492   4.947   6.603 -0.2644 -0.5563 -0.5582
14638TIP3    H265406   6.441   4.850   6.707  0.5508  0.0428  0.4193
14639TIP3   OH265407   6.161   1.113   3.288  0.1173 -0.3033 -0.0877
14639TIP3    H165408   6.077   1.103   3.245  0.5304 -2.6787 -0.4501
14639TIP3    H265409   6.173   1.033   3.338  2.7770 -0.7355 -1.2036
14640TIP3   OH265410   0.327   6.563  12.698  0.1756  0.6932 -0.6812
14640TIP3    H165411   0.293   6.526  12.780 -2.6607 -0.1194 -2.0843
14640TIP3    H265412   0.355   6.651  12.721  1.8337 -0.3518  1.6390
14641TIP3   OH265413   5.319   3.239  13.164 -0.1929  0.0098 -0.0791
14641TIP3    H165414   5.275   3.323  13.155  0.2341  0.3267  0.6714
14641TIP3    H265415   5.252   3.174  13.142 -0.9877  0.4804  0.8911
14642TIP3   OH265416   3.227   3.140  12.230 -0.0001 -0.0987  0.1258
14642TIP3    H165417   3.217   3.050  12.198 -2.2102  0.1922 -0.1390
14642TIP3    H265418   3.288   3.180  12.167  0.3611 -1.1578 -0.2349
14643TIP3   OH265419   1.912   2.843   4.051 -1.2808 -0.3129  0.0499
14643TIP3    H165420   1.874   2.802   3.974 -1.0651  1.9766 -1.3611
14643TIP3    H265421   1.866   2.926   4.060  0.9738  1.0125  0.3071
14644TIP3   OH265422   2.633   0.012  13.261 -0.0526  0.4493  0.2082
14644TIP3    H165423   2.565   0.036  13.324 -1.3068 -0.3597 -0.7952
14644TIP3    H265424   2.617  -0.080  13.242  0.6421  0.5367 -0.8787
14645TIP3   OH265425   1.952   0.577  14.106 -0.3391  0.7428  0.3753
14645TIP3    H165426   1.925   0.615  14.190 -0.5028  3.3110 -0.7573
14645TIP3    H265427   2.047   0.589  14.104 -0.3938  1.1695  0.0099
14646TIP3   OH265428   6.789   4.280  11.026  0.6631 -0.2625 -0.7910
14646TIP3    H165429   6.864   4.325  11.064  0.1105  1.3660 -1.5258
14646TIP3    H265430   6.735   4.256  11.102  0.7094  0.8592 -0.3747
14647TIP3   OH265431   0.604   1.075   5.792 -0.2608 -1.0157 -0.0533
14647TIP3    H165432   0.568   1.161   5.769 -0.6919 -0.7948  1.3941
14647TIP3    H265433   0.578   1.018   5.719 -0.6158 -0.0948 -0.6626
14648TIP3   OH265434   0.852   0.706  12.721 -0.1841 -0.2382 -0.6485
14648TIP3    H165435   0.763   0.676  12.706 -1.7657  3.5170  0.2417
14648TIP3    H265436   0.853   0.736  12.812  1.3950  1.5371 -1.1920
14649TIP3   OH265437   1.584   0.297  12.495  0.7199  0.3592  0.3618
14649TIP3    H165438   1.656   0.269  12.440 -0.3357 -0.8774 -0.4690
14649TIP3    H265439   1.507   0.292  12.438 -0.5296 -1.6383  2.0342
14650TIP3   OH265440   0.403   2.748  13.086  0.4476  0.2599  0.6690
14650TIP3    H165441   0.462   2.749  13.011 -1.1793  0.6982 -0.6856
14650TIP3    H265442   0.378   2.656  13.096 -1.8130  0.5038 -1.5086
14651TIP3   OH265443   1.904   1.366  11.950 -0.1439 -0.6521  0.0745
14651TIP3    H165444   1.993   1.348  11.919  0.5565 -0.1981  1.7401
14651TIP3    H265445   1.857   1.398  11.872  1.1796 -0.7511 -0.7853
14652TIP3   OH265446   5.357   6.506   4.724  0.3066  0.2523  0.0232
14652TIP3    H165447   5.438   6.467   4.692  0.5952  1.1647 -0.4025
14652TIP3    H265448   5.317   6.438   4.777  2.0174  0.2284  1.3803
14653TIP3   OH265449   4.938   0.836  12.998 -0.1046  0.2775  0.2250
14653TIP3    H165450   4.963   0.925  13.024 -0.1412 -0.1696  1.8793
14653TIP3    H265451   5.015   0.783  13.020 -0.4320 -0.2441  0.1185
14654TIP3   OH265452   1.770   0.450   3.298  0.2928 -0.3799  0.2788
14654TIP3    H165453   1.762   0.356   3.280 -2.7962 -0.2309  0.3504
14654TIP3    H265454   1.750   0.458   3.391 -0.4387  0.4307  0.0609
14655TIP3   OH265455   1.681   5.686  14.904 -0.0804 -0.0360  0.4496
14655TIP3    H165456   1.587   5.704  14.906 -0.2508  0.6575 -3.6449
14655TIP3    H265457   1.722   5.772  14.902  0.4154 -0.2749 -0.2812
14656TIP3   OH265458   4.392   3.076  16.520  0.3298  0.1753 -0.2201
14656TIP3    H165459   4.347   2.998  16.488 -0.5525  0.2141  0.8773
14656TIP3    H265460   4.371   3.144  16.456  2.2805 -0.7575 -1.9894
14657TIP3   OH265461   6.229   2.686  14.384 -0.3221 -0.0559 -0.5885
14657TIP3    H165462   6.257   2.777  14.378 -0.4114  0.0506  0.3514
14657TIP3    H265463   6.160   2.687  14.451  1.7948 -1.2553  1.8090
14658TIP3   OH265464   1.927   2.713  13.513 -0.2213  0.1498 -0.3628
14658TIP3    H165465   1.854   2.756  13.558  0.5040 -0.1981  1.2204
14658TIP3    H265466   2.003   2.731  13.568  1.1633  1.4234 -2.5077
14659TIP3   OH265467   4.680   0.710   3.576  0.1213  0.3105 -0.1750
14659TIP3    H165468   4.643   0.793   3.607  1.4442  0.4852  1.0335
14659TIP3    H265469   4.760   0.735   3.529  0.1139 -0.2262 -0.4789
14660TIP3   OH265470   1.553   2.187  14.467  0.6574 -0.3525 -0.5148
14660TIP3    H165471   1.530   2.102  14.431  0.8334  0.0990 -1.7266
14660TIP3    H265472   1.590   2.168  14.553 -0.9310 -1.3648 -0.0089
14661TIP3   OH265473   0.101   5.412  10.698  0.0757 -0.6406 -0.0755
14661TIP3    H165474   0.015   5.451  10.682  0.3202 -0.0613 -0.0238
14661TIP3    H265475   0.162   5.466  10.647 -0.0607 -3.9691 -4.2413
14662TIP3   OH265476   1.621   1.374   6.473 -0.3785  0.1411  0.0497
14662TIP3    H165477   1.656   1.411   6.555 -2.0929  1.0863  0.4005
14662TIP3    H265478   1.587   1.288   6.498  0.6280 -0.3032 -0.0572
14663TIP3   OH265479   1.931   5.664  14.646  0.1405  0.2466  0.1548
14663TIP3    H165480   1.975   5.593  14.694  0.0046 -0.7143 -1.0851
14663TIP3    H265481   1.949   5.742  14.697  1.2799 -0.5030  0.9502
14664TIP3   OH265482   0.941   3.521  15.915 -0.1827  0.5860  0.4221
14664TIP3    H165483   0.981   3.460  15.853  0.1412  0.6836  0.5345
14664TIP3    H265484   0.866   3.558  15.868 -0.8966 -0.5270  0.6351
14665TIP3   OH265485   2.057   4.669   0.059 -0.7005 -0.0622  0.1190
14665TIP3    H165486   2.111   4.593   0.038  0.2558  0.1654  1.6015
14665TIP3    H265487   1.991   4.671  -0.010  1.4463 -0.0629 -2.0712
14666TIP3   OH265488   3.417   4.640  13.610 -0.2364  0.1297  0.1702
14666TIP3    H165489   3.338   4.594  13.639 -0.2555  0.2882  0.3657
14666TIP3    H265490   3.422   4.621  13.516  0.9914 -2.1872  0.6137
14667TIP3   OH265491   6.204   1.016   5.501  0.0399 -0.1976  0.1786
14667TIP3    H165492   6.261   1.056   5.566 -0.1947 -1.3214  1.1007
14667TIP3    H265493   6.236   0.926   5.493 -0.8224 -0.4784 -0.2244
14668TIP3   OH265494   6.760   0.466   2.661  0.0630  0.4776 -0.1434
14668TIP3    H165495   6.819   0.502   2.727  1.8360 -0.5732 -1.0799
14668TIP3    H265496   6.777   0.517   2.582 -0.3038  0.1709 -0.4289
14669TIP3   OH265497   5.970   0.734   0.839 -0.4065  0.7618  0.3187
14669TIP3    H165498   5.937   0.657   0.885 -0.3601  0.3719 -0.2873
14669TIP3    H265499   6.039   0.700   0.781  1.7840  1.6636  2.2350
14670TIP3   OH265500   0.390   6.710  13.143  0.4300  0.7808 -0.5852
14670TIP3    H165501   0.430   6.795  13.124 -1.0382  1.2827 -1.6195
14670TIP3    H265502   0.365   6.716  13.235 -4.0143  3.5118 -1.6625
14671TIP3   OH265503   2.319   2.081   1.271 -0.7608  0.1167  0.1479
14671TIP3    H165504   2.262   2.152   1.243 -1.2217 -0.0439  0.6704
14671TIP3    H265505   2.404   2.101   1.230 -1.0585  0.6121 -0.2360
14672TIP3   OH265506   3.511   2.868   4.502 -0.5104  0.1253  0.0402
14672TIP3    H165507   3.597   2.853   4.463 -0.1420 -1.5045  1.3539
14672TIP3    H265508   3.491   2.787   4.549 -3.9569 -0.5778 -2.2671
14673TIP3   OH265509   3.860   6.784  13.536  0.4213 -0.2518 -0.4497
14673TIP3    H165510   3.952   6.809  13.523 -0.1392  0.9564 -2.4714
14673TIP3    H265511   3.831   6.837  13.610  1.4913 -1.1433  0.6562
14674TIP3   OH265512   1.335   5.927  11.475 -0.3131 -0.3069 -0.3135
14674TIP3    H165513   1.321   5.884  11.559 -0.2151  1.1602  0.4761
14674TIP3    H265514   1.415   5.887  11.441 -0.2022 -0.7263  0.4128
14675TIP3   OH265515   2.482   2.236  15.149 -0.1106 -0.4802  0.0205
14675TIP3    H165516   2.493   2.301  15.080 -0.1012  1.7209  2.0081
14675TIP3    H265517   2.568   2.194  15.156  1.0250  1.9015  1.1676
14676TIP3   OH265518   4.758   2.777  12.415  0.0022 -0.8364 -0.2751
14676TIP3    H165519   4.744   2.753  12.507 -2.2359  0.2737 -0.2430
14676TIP3    H265520   4.809   2.858  12.419 -4.3036  2.2476  0.4773
14677TIP3   OH265521   6.521   1.508  16.509 -0.0627 -0.0437 -0.1237
14677TIP3    H165522   6.565   1.569  16.449 -0.5878  0.5115  0.0450
14677TIP3    H265523   6.555   1.422  16.485 -1.8952 -0.1668 -2.7573
14678TIP3   OH265524   2.595   0.628   4.326 -0.6539 -0.1015 -0.0360
14678TIP3    H165525   2.661   0.613   4.393 -0.6829  1.5971  0.4237
14678TIP3    H265526   2.544   0.702   4.359 -2.7987 -1.3631 -0.3935
14679TIP3   OH265527   5.798   3.667  14.935  0.5010 -0.0037  0.1043
14679TIP3    H165528   5.837   3.633  14.855  1.3503  1.5006 -0.1616
14679TIP3    H265529   5.717   3.617  14.946  0.2491 -0.0618 -1.8084
14680TIP3   OH265530   3.423   3.184   2.460 -0.2684 -0.0364  0.4148
14680TIP3    H165531   3.509   3.189   2.501  0.7947  2.0341 -1.8341
14680TIP3    H265532   3.423   3.099   2.415  0.6608 -0.0177  0.3615
14681TIP3   OH265533   4.800   3.545  13.744  0.3283 -0.1933 -0.5237
14681TIP3    H165534   4.800   3.589  13.828 -0.0229 -1.0823 -0.0416
14681TIP3    H265535   4.806   3.615  13.679 -2.0862  0.7024  0.1359
14682TIP3   OH265536   2.037   4.785   5.372  0.1781 -0.4328  0.2413
14682TIP3    H165537   2.033   4.756   5.281 -1.3731 -0.6925  0.3691
14682TIP3    H265538   1.955   4.833   5.385 -0.2402 -1.5200  1.8702
14683TIP3   OH265539   1.907   2.186   2.321 -0.1284 -0.3729 -0.4979
14683TIP3    H165540   1.880   2.217   2.235 -0.6504 -1.2309 -0.6501
14683TIP3    H265541   1.967   2.114   2.304  0.6776  0.2014 -0.1431
14684TIP3   OH265542   6.320   6.556   1.100 -0.5926 -0.4944  0.1398
14684TIP3    H165543   6.389   6.556   1.034 -0.6259  0.5198  0.0806
14684TIP3    H265544   6.314   6.648   1.128 -2.1849 -0.4823 -0.1510
14685TIP3   OH265545   5.610   4.324   5.443  0.2287 -0.6374 -0.2846
14685TIP3    H165546   5.546   4.292   5.506 -0.5545  2.7175  0.8198
14685TIP3    H265547   5.674   4.372   5.496  0.9008  0.2560 -1.8198
14686TIP3   OH265548   0.697   0.579   3.925  0.7096  0.2967  0.4790
14686TIP3    H165549   0.657   0.580   3.838  1.4538 -2.0819  0.0302
14686TIP3    H265550   0.774   0.636   3.916  0.8962 -0.0760 -0.5151
14687TIP3   OH265551   3.654   2.448  12.842 -0.2633  0.0406 -0.6142
14687TIP3    H165552   3.590   2.402  12.896 -1.8719  2.7599  0.0134
14687TIP3    H265553   3.638   2.416  12.753 -0.9149 -0.9749 -0.1484
14688TIP3   OH265554   0.437   3.059  16.831  0.1905  0.2271 -0.1455
14688TIP3    H165555   0.376   3.038  16.761 -0.4717  0.0135  0.4766
14688TIP3    H265556   0.483   2.978  16.848 -1.8617 -0.6720  1.7662
14689TIP3   OH265557   0.980   2.410  11.567 -0.5955 -0.2211  0.2556
14689TIP3    H165558   0.994   2.316  11.582 -0.2757 -0.2741 -0.3465
14689TIP3    H265559   0.898   2.414  11.517 -0.3089 -0.2199 -0.2163
14690TIP3   OH265560   5.341   1.364  15.321  0.0824 -0.1902  0.7798
14690TIP3    H165561   5.370   1.328  15.404  0.3568 -2.0019 -0.0463
14690TIP3    H265562   5.406   1.334  15.257 -0.8957 -0.1069 -0.3034
14691TIP3   OH265563   5.690   6.302   5.704  0.3003  0.1392  0.4110
14691TIP3    H165564   5.613   6.248   5.684 -0.2927  1.1954 -0.2773
14691TIP3    H265565   5.702   6.356   5.626  2.2203 -0.5246  0.1990
14692TIP3   OH265566   4.019   3.555  13.552  0.5389  0.1220  0.4717
14692TIP3    H165567   4.036   3.463  13.535  0.0721  0.4556 -2.3607
14692TIP3    H265568   4.105   3.593  13.569  0.8330 -0.6919  0.8025
14693TIP3   OH265569   2.681   5.796  14.993 -0.6753  0.1833 -0.4769
14693TIP3    H165570   2.636   5.714  14.974 -1.6773  0.1705  1.6989
14693TIP3    H265571   2.728   5.779  15.075  1.2600  0.9939 -1.3598
14694TIP3   OH265572   1.497   2.544  11.479 -0.4113  0.1512  0.5034
14694TIP3    H165573   1.409   2.543  11.518 -0.0311  0.0390  1.3730
14694TIP3    H265574   1.501   2.464  11.426  0.3068 -1.6152  3.0713
14695TIP3   OH265575   5.694   3.576   3.080 -0.3947 -0.3049  0.3045
14695TIP3    H165576   5.663   3.508   3.139 -0.6131  0.2368  0.8312
14695TIP3    H265577   5.618   3.632   3.065  0.0428  0.4563  0.7914
14696TIP3   OH265578   1.481   4.360   2.061  0.3772  0.3526  0.2349
14696TIP3    H165579   1.511   4.438   2.014  2.7848 -0.5797  0.0692
14696TIP3    H265580   1.390   4.348   2.033  1.3158  0.5392 -3.2897
14697TIP3   OH265581   2.153   5.810   6.052  0.1958  0.0161  0.1174
14697TIP3    H165582   2.115   5.732   6.012 -1.9237 -0.3294  2.4952
14697TIP3    H265583   2.078   5.857   6.087  1.2560  3.8912 -2.3006
14698TIP3   OH265584   3.877   5.583  14.709  0.0402  0.1208 -0.5411
14698TIP3    H165585   3.784   5.565  14.727 -0.1058  0.7260 -0.6856
14698TIP3    H265586   3.919   5.579  14.795 -0.2362  0.5274 -0.3840
14699TIP3   OH265587   5.378   5.857   0.235  0.2404  0.2632 -0.0834
14699TIP3    H165588   5.423   5.936   0.207 -0.4350  0.3808 -0.8862
14699TIP3    H265589   5.447   5.802   0.272  0.9486  0.6695 -0.7686
14700TIP3   OH265590   2.176   4.889  15.830 -0.3783  0.0929  0.6655
14700TIP3    H165591   2.224   4.947  15.771  2.0483  0.5072  2.8647
14700TIP3    H265592   2.095   4.869  15.783 -0.1430  3.0946 -1.3116
14701TIP3   OH265593   0.969   5.467   5.187  0.6455 -0.0910 -0.2892
14701TIP3    H165594   1.039   5.531   5.205  0.6093 -0.1522  0.0726
14701TIP3    H265595   0.906   5.516   5.134  1.4078 -0.3060 -1.4166
14702TIP3   OH265596   6.706   6.815  16.420 -0.1315  0.1219 -0.3912
14702TIP3    H165597   6.628   6.866  16.396 -1.3343 -0.6346  1.6582
14702TIP3    H265598   6.745   6.863  16.493  2.0636  1.1002 -2.0838
14703TIP3   OH265599   0.307   1.119   6.544  0.1017  0.0276  0.2409
14703TIP3    H165600   0.305   1.026   6.521  0.3299  0.0616  0.0896
14703TIP3    H265601   0.399   1.142   6.546  0.1065 -0.0005  1.3077
14704TIP3   OH265602   5.956   3.387   5.899 -0.1287  0.0531  0.6671
14704TIP3    H165603   6.009   3.308   5.900  0.1547  0.1775 -0.9831
14704TIP3    H265604   5.964   3.423   5.987 -0.2091 -1.6922  1.4225
14705TIP3   OH265605   2.514   4.775  15.028  0.0240  0.1107 -0.0540
14705TIP3    H165606   2.583   4.832  14.993 -0.6945  0.1747 -1.3791
14705TIP3    H265607   2.510   4.701  14.967  0.8391 -1.3457  1.5517
14706TIP3   OH265608   4.615   1.014   3.901 -0.4278 -0.2459 -0.1737
14706TIP3    H165609   4.523   1.022   3.924 -0.1755  0.6513  0.5981
14706TIP3    H265610   4.660   1.074   3.960  0.4621  0.7014 -1.7217
14707TIP3   OH265611   2.335   3.318  11.878  0.0413 -0.6378 -0.2616
14707TIP3    H165612   2.284   3.243  11.849 -0.8746 -0.1769  0.1160
14707TIP3    H265613   2.382   3.348  11.800  0.1295 -1.3647 -0.4966
14708TIP3   OH265614   0.975   1.386  13.460  0.3152  0.0111  0.5978
14708TIP3    H165615   0.933   1.467  13.490 -2.0027 -1.8591  2.8158
14708TIP3    H265616   0.905   1.338  13.415  1.9368 -0.3660 -1.7039
14709TIP3   OH265617   2.180   4.082  16.386  0.4358 -0.5768  0.0060
14709TIP3    H165618   2.262   4.129  16.369  0.7149 -0.1282  2.2463
14709TIP3    H265619   2.118   4.119  16.324  1.2854  0.9990  0.0461
14710TIP3   OH265620   0.442   6.241   2.272 -0.4830 -0.0918 -0.4773
14710TIP3    H165621   0.491   6.311   2.228  1.1747 -0.7095  0.2838
14710TIP3    H265622   0.483   6.160   2.240  1.0064 -0.5648  2.3321
14711TIP3   OH265623   6.661   3.880   0.253  0.5511 -0.5828 -0.3604
14711TIP3    H165624   6.567   3.893   0.267  0.4657 -0.7443 -0.7790
14711TIP3    H265625   6.693   3.966   0.223  0.6980 -0.2904  0.6038
14712TIP3   OH265626   0.906   0.761  12.974 -0.1100  0.2665 -0.0785
14712TIP3    H165627   0.879   0.837  13.027  0.3387 -0.3111  1.0018
14712TIP3    H265628   0.981   0.724  13.021 -0.7521 -1.2612 -0.2029
14713TIP3   OH265629   4.333   6.104  15.678  0.4284 -0.1269 -0.3823
14713TIP3    H165630   4.309   6.192  15.649  0.4276 -0.3268 -1.0089
14713TIP3    H265631   4.342   6.112  15.773 -1.2484  0.1464 -0.2133
14714TIP3   OH265632   6.008   2.583   1.250  0.1545  0.3349 -0.0515
14714TIP3    H165633   5.942   2.637   1.293  0.7251 -0.1519  1.5233
14714TIP3    H265634   6.053   2.644   1.191 -0.0163  1.2921  0.7657
14715TIP3   OH265635   5.993   0.873   5.180  0.3467  0.3410  0.2953
14715TIP3    H165636   5.955   0.837   5.261 -1.2553 -0.4965 -0.7636
14715TIP3    H265637   6.087   0.868   5.194  0.1301 -0.8024  1.6966
14716TIP3   OH265638   1.663   6.783   0.589 -0.2241  0.2776  0.6248
14716TIP3    H165639   1.658   6.689   0.570 -0.5966  0.3818  0.1791
14716TIP3    H265640   1.577   6.803   0.627 -0.2745  0.5029  0.3958
14717TIP3   OH265641   6.821   0.112   2.192  0.7741  0.2510 -0.4187
14717TIP3    H165642   6.846   0.097   2.101  0.9962  4.1701 -1.1394
14717TIP3    H265643   6.729   0.085   2.197  0.7050  0.1913 -1.8291
14718TIP3   OH265644   3.162   3.867   3.539  0.1354  0.4348  0.2204
14718TIP3    H165645   3.159   3.783   3.583  2.6235 -0.8117 -1.7200
14718TIP3    H265646   3.168   3.931   3.609 -1.2131 -0.9812  1.7273
14719TIP3   OH265647   5.760   2.943  15.931 -0.0066  0.2586  0.0959
14719TIP3    H165648   5.778   2.968  16.021  0.3372 -0.8889  0.3595
14719TIP3    H265649   5.692   2.876  15.937  0.8202 -0.6677 -0.3924
14720TIP3   OH265650   2.913   5.726   5.973  0.4087 -0.2836 -0.2514
14720TIP3    H165651   2.915   5.720   6.069 -0.7739 -0.2044 -0.2148
14720TIP3    H265652   2.928   5.819   5.955  0.1365 -0.2140 -0.1233
14721TIP3   OH265653   5.585   6.028   5.148 -0.1369  0.3519  0.6832
14721TIP3    H165654   5.603   6.073   5.230  0.6347  0.2224  0.5890
14721TIP3    H265655   5.491   6.011   5.150 -0.1976  0.7472  1.3340
14722TIP3   OH265656   5.037   2.024   1.951 -0.0569 -0.4492  0.0799
14722TIP3    H165657   4.987   2.103   1.931  0.4309  0.6660  2.8587
14722TIP3    H265658   5.001   1.957   1.893 -0.7399  1.6919 -2.1102
14723TIP3   OH265659   0.246   4.328  11.420 -0.3073 -0.2623 -0.0014
14723TIP3    H165660   0.239   4.423  11.428 -0.7771 -0.4108  1.7102
14723TIP3    H265661   0.235   4.311  11.327  2.7059  1.5702 -0.8279
14724TIP3   OH265662   6.556   1.363  11.873  0.3794 -0.2814 -0.0476
14724TIP3    H165663   6.480   1.389  11.822 -1.4594  1.4353  3.2538
14724TIP3    H265664   6.554   1.267  11.872 -0.0127 -0.3247 -2.3492
14725TIP3   OH265665   4.579   3.967   3.199  0.2327 -0.4480  0.2932
14725TIP3    H165666   4.514   3.900   3.176  0.0990  0.0587 -0.9052
14725TIP3    H265667   4.531   4.050   3.194  1.2944  0.0985 -2.2600
14726TIP3   OH265668   3.826   1.452  14.859 -0.0080  0.1625  0.2468
14726TIP3    H165669   3.757   1.497  14.907  0.1075  1.3934 -0.6934
14726TIP3    H265670   3.908   1.486  14.896  0.0879  0.1584  0.0404
14727TIP3   OH265671   0.049   5.408  13.971 -0.1666  0.2303 -0.4613
14727TIP3    H165672   0.077   5.330  13.923  0.7952  0.8635 -0.9650
14727TIP3    H265673  -0.014   5.451  13.912 -0.2250  0.1630 -0.4490
14728TIP3   OH265674   5.404   4.890  12.616  0.2692 -0.5272 -0.6724
14728TIP3    H165675   5.395   4.900  12.711  0.0546 -0.9376 -0.6483
14728TIP3    H265676   5.315   4.900  12.582  0.5061  0.8988 -0.9649
14729TIP3   OH265677   3.726   5.732   2.423 -0.1867  0.8570  0.6997
14729TIP3    H165678   3.777   5.782   2.486  2.5725 -0.0679 -0.6531
14729TIP3    H265679   3.718   5.645   2.462  0.6637  0.5630  0.2371
14730TIP3   OH265680   5.214   3.771  14.108 -0.3196  0.6226  0.1684
14730TIP3    H165681   5.238   3.694  14.055 -0.0233  0.8533 -0.0422
14730TIP3    H265682   5.137   3.744  14.157 -1.0590  0.6360 -0.9386
14731TIP3   OH265683   2.170   0.492   6.160  0.2141  0.0059 -0.0412
14731TIP3    H165684   2.077   0.471   6.146 -1.0300  1.1947  4.6968
14731TIP3    H265685   2.207   0.411   6.196  0.6534 -0.0294 -0.5681
14732TIP3   OH265686   6.731   1.331   3.302 -0.3631 -0.3969 -0.3577
14732TIP3    H165687   6.672   1.406   3.289 -0.5643 -0.1698  1.4752
14732TIP3    H265688   6.818   1.364   3.278 -0.8867 -0.6678 -2.8729
14733TIP3   OH265689   0.009   6.412  12.523  0.0797 -0.1955 -0.3700
14733TIP3    H165690   0.081   6.406  12.460 -0.0752  0.1073 -0.5818
14733TIP3    H265691   0.037   6.360  12.597  0.7867  0.4141 -0.1986
14734TIP3   OH265692   5.315   3.685   4.932  0.3483  0.5359  0.0767
14734TIP3    H165693   5.235   3.687   4.984  0.4061  1.2574  0.1465
14734TIP3    H265694   5.379   3.640   4.988 -0.7796 -2.9005 -1.1495
14735TIP3   OH265695   6.121   1.008   0.644 -0.3868  0.5801  0.6149
14735TIP3    H165696   6.029   0.988   0.628  0.4802 -1.3777 -3.1513
14735TIP3    H265697   6.129   1.101   0.623 -1.4799  0.7557  0.9179
14736TIP3   OH265698   6.392   1.509   0.536 -0.3378 -0.9977  0.5724
14736TIP3    H165699   6.450   1.538   0.466 -1.1516 -1.6732 -0.4119
14736TIP3    H265700   6.304   1.524   0.503 -0.7823  0.8093  2.3804
14737TIP3   OH265701   2.361   2.675   4.479  0.1698 -0.1057  0.3352
14737TIP3    H165702   2.284   2.729   4.497  0.2710  0.0935  0.1668
14737TIP3    H265703   2.434   2.726   4.513  0.0639 -1.0789  2.1496
14738TIP3   OH265704   4.070   3.148  16.876 -0.1422 -0.2424  0.2079
14738TIP3    H165705   4.130   3.152  16.951 -0.1528  0.7989  0.1819
14738TIP3    H265706   4.109   3.084  16.817  1.0745  0.5678  0.0979
14739TIP3   OH265707   5.897   3.072  13.121 -0.2430 -0.1981 -0.2104
14739TIP3    H165708   5.880   3.115  13.037  1.1548  1.7335  0.4205
14739TIP3    H265709   5.918   2.981  13.098  1.6689  0.6615 -2.1342
14740TIP3   OH265710   2.581   5.335   3.820 -0.8395  0.1223 -0.1136
14740TIP3    H165711   2.620   5.400   3.879 -0.0784 -0.2138 -0.2474
14740TIP3    H265712   2.534   5.388   3.756 -0.6376  0.5280  0.0659
14741TIP3   OH265713   1.231   0.446  12.841  0.0844  0.3948 -0.2045
14741TIP3    H165714   1.152   0.391  12.843  0.5019 -0.1935  1.4028
14741TIP3    H265715   1.219   0.502  12.764 -1.6002 -0.1117 -0.3515
14742TIP3   OH265716   1.183   5.483   1.816  0.3338 -0.3591 -0.4662
14742TIP3    H165717   1.206   5.479   1.723 -0.5938 -1.1753 -0.6813
14742TIP3    H265718   1.205   5.395   1.849 -1.1918 -0.7493 -0.3945
14743TIP3   OH265719   5.884   0.792  13.584 -0.0738 -0.4575 -0.3902
14743TIP3    H165720   5.844   0.710  13.555  0.8510 -1.0303 -0.0961
14743TIP3    H265721   5.815   0.858  13.574 -1.1686 -1.4592  0.3734
14744TIP3   OH265722   1.852   2.784  13.116  0.2787  0.0571  0.1753
14744TIP3    H165723   1.820   2.725  13.047  4.2517 -1.0174 -1.0694
14744TIP3    H265724   1.849   2.871  13.076 -2.5563  0.3294  0.8068
14745TIP3   OH265725   3.251   2.652   0.762 -0.2442  0.3409 -0.3665
14745TIP3    H165726   3.321   2.712   0.736 -0.6550  0.4092 -1.3276
14745TIP3    H265727   3.268   2.572   0.713  1.1975 -0.9471  2.0353
14746TIP3   OH265728   3.908   3.435   0.976  0.4158  0.4197 -0.2273
14746TIP3    H165729   3.972   3.389   0.922  0.6866  2.3404 -1.6540
14746TIP3    H265730   3.824   3.395   0.953  0.7850 -0.3124 -0.3373
14747TIP3   OH265731   6.013   2.984   1.595  0.2020  0.1093 -0.1894
14747TIP3    H165732   6.082   2.948   1.539 -0.2039 -1.0348  0.0240
14747TIP3    H265733   5.984   3.063   1.549  0.6729 -0.1708 -0.9927
14748TIP3   OH265734   4.550   3.972   1.516 -0.1564 -0.0553  0.0966
14748TIP3    H165735   4.563   3.880   1.493  1.6209  0.5787 -1.7571
14748TIP3    H265736   4.598   3.984   1.598  1.2373 -0.3920 -0.6497
14749TIP3   OH265737   1.346   2.028  13.661  0.3377 -0.2296 -0.2025
14749TIP3    H165738   1.253   2.044  13.645  0.4988  0.2265 -0.7017
14749TIP3    H265739   1.372   2.096  13.723  0.3464 -0.3279 -0.0997
14750TIP3   OH265740   3.562   5.057  15.296  0.0610  0.0914 -0.2576
14750TIP3    H165741   3.493   5.103  15.345  2.0471  1.8880  1.0494
14750TIP3    H265742   3.549   5.083  15.205  0.5376  2.5828  0.3239
14751TIP3   OH265743   4.845   3.221  12.846  0.2178 -0.0576  0.5304
14751TIP3    H165744   4.774   3.250  12.903 -0.1101  0.3085 -0.0499
14751TIP3    H265745   4.803   3.158  12.787  0.4032  0.0544  0.2774
14752TIP3   OH265746   5.356   5.569   1.352  0.1603  0.0134 -0.1029
14752TIP3    H165747   5.435   5.590   1.303 -0.7865  1.6262 -1.0451
14752TIP3    H265748   5.287   5.620   1.309 -1.2857 -0.8985  1.0348
14753TIP3   OH265749   6.078   6.146   0.612 -0.1232 -0.2710 -1.0198
14753TIP3    H165750   6.082   6.217   0.676 -1.4056 -0.8682 -0.2186
14753TIP3    H265751   6.150   6.088   0.635 -0.0790 -0.0627 -0.6298
14754TIP3   OH265752   5.764   6.535   2.588 -0.1875 -0.1866 -0.1140
14754TIP3    H165753   5.689   6.499   2.542 -0.4359  1.2918 -0.9397
14754TIP3    H265754   5.838   6.523   2.529 -0.2729  0.6190 -0.3982
14755TIP3   OH265755   2.224   0.217  14.339  0.1305 -0.0790 -0.3310
14755TIP3    H165756   2.284   0.189  14.270 -1.9034 -0.4512 -2.0526
14755TIP3    H265757   2.183   0.136  14.371 -0.2936  0.2612  0.0092
14756TIP3   OH265758   4.180   2.589   0.687 -0.6929 -0.6551 -0.1368
14756TIP3    H165759   4.189   2.576   0.592  0.7646 -1.6000  0.0990
14756TIP3    H265760   4.093   2.554   0.707 -0.9506 -0.6131 -1.0992
14757TIP3   OH265761   3.158   1.843  11.578 -0.1952  0.3714 -0.0987
14757TIP3    H165762   3.116   1.757  11.578 -0.9811  0.7033 -2.2148
14757TIP3    H265763   3.243   1.827  11.619 -1.2772 -0.8449  1.9115
14758TIP3   OH265764   0.107   5.606  14.222  0.2974 -0.1469  0.2688
14758TIP3    H165765   0.104   5.574  14.312  2.6310  0.0129  0.4813
14758TIP3    H265766   0.059   5.540  14.171 -0.5628 -0.5366  1.5473
14759TIP3   OH265767   0.836   4.915   5.103  0.6810  0.0474  0.0476
14759TIP3    H165768   0.782   4.993   5.116  1.3377  0.6893 -0.9744
14759TIP3    H265769   0.773   4.845   5.087 -0.0074 -0.0205  2.5974
14760TIP3   OH265770   5.717   4.124  16.287  0.0706  0.0397 -0.1477
14760TIP3    H165771   5.792   4.183  16.302  0.1442  0.3976 -1.7242
14760TIP3    H265772   5.756   4.041  16.260 -0.0784  0.0075 -0.2694
14761TIP3   OH265773   4.324   3.033  15.553  0.6437  0.5009  0.6036
14761TIP3    H165774   4.314   3.060  15.644 -1.0563  0.5923  0.4180
14761TIP3    H265775   4.244   2.985  15.532  0.4674  1.4619 -1.1641
14762TIP3   OH265776   1.315   5.687  14.692 -0.4507  0.0534 -0.8419
14762TIP3    H165777   1.402   5.701  14.655 -0.5836  0.3250 -1.0556
14762TIP3    H265778   1.282   5.609  14.648  1.6404 -3.1738  2.7394
14763TIP3   OH265779   4.133   4.847   1.084  0.3777  0.1639  0.2129
14763TIP3    H165780   4.201   4.907   1.115  1.2888 -0.3891 -0.6451
14763TIP3    H265781   4.102   4.804   1.163 -0.0023  1.4529  0.7909
14764TIP3   OH265782   0.933   3.645   3.799  0.3934  0.0088 -0.2805
14764TIP3    H165783   1.014   3.682   3.765  0.2237  0.8600  0.2191
14764TIP3    H265784   0.864   3.694   3.756  0.1274 -0.8619 -0.8700
14765TIP3   OH265785   3.501   0.489  14.046 -0.5073  0.4080 -0.5927
14765TIP3    H165786   3.551   0.447  14.116 -1.4517  0.4136  0.0883
14765TIP3    H265787   3.547   0.462  13.966 -0.2415 -0.7456 -0.0738
14766TIP3   OH265788   4.405   0.388   2.968  0.3727  0.4851 -0.0812
14766TIP3    H165789   4.311   0.408   2.963 -0.0462 -1.2802  0.1147
14766TIP3    H265790   4.426   0.395   3.061  0.2710  0.1783 -0.0356
14767TIP3   OH265791   1.140   6.000   5.765 -0.3291  0.3143  0.0841
14767TIP3    H165792   1.167   5.909   5.757 -1.3372 -0.0147  0.2718
14767TIP3    H265793   1.127   6.013   5.859  0.4191  0.8388  0.1226
14768TIP3   OH265794   4.299   0.485  14.538  0.2282  0.1967 -0.3394
14768TIP3    H165795   4.323   0.458  14.626 -1.8861 -2.4655 -0.4503
14768TIP3    H265796   4.222   0.541  14.550 -2.6443 -3.3863 -0.4617
14769TIP3   OH265797   1.408   4.069  12.182 -0.3880 -0.5257 -0.0199
14769TIP3    H165798   1.467   4.088  12.254  0.0301  0.3263 -0.5678
14769TIP3    H265799   1.334   4.128  12.195  0.9356  1.6895 -1.7498
14770TIP3   OH265800   1.533   3.762  11.493  0.5132 -0.2049 -0.4056
14770TIP3    H165801   1.442   3.770  11.523  1.2266 -0.7183  2.1075
14770TIP3    H265802   1.538   3.675  11.454  0.0506 -0.3617 -0.1222
14771TIP3   OH265803   6.403   2.276  15.820  0.2812 -0.2718  0.0218
14771TIP3    H165804   6.360   2.362  15.824  3.0484  1.2991 -1.2853
14771TIP3    H265805   6.419   2.254  15.912 -0.5410  0.5563  0.3914
14772TIP3   OH265806   5.880   1.272   5.376  0.4306 -0.3739 -0.0096
14772TIP3    H165807   5.809   1.241   5.320 -0.3727  0.4057  0.5459
14772TIP3    H265808   5.884   1.366   5.359 -0.2602 -0.0020  1.6685
14773TIP3   OH265809   0.023   2.451   2.502  0.1339  0.0686 -0.5802
14773TIP3    H165810  -0.053   2.398   2.527 -0.2507  0.0354 -1.7483
14773TIP3    H265811   0.004   2.480   2.413  0.3287  2.1906  0.0027
14774TIP3   OH265812   3.369   3.046  11.073  0.1623 -0.1838  0.1925
14774TIP3    H165813   3.341   3.129  11.034  1.3456  0.2292  0.1877
14774TIP3    H265814   3.295   2.987  11.059  0.2997  0.1058 -2.1808
14775TIP3   OH265815   6.068   1.633  11.017 -0.2225  0.3368  0.0130
14775TIP3    H165816   6.002   1.585  11.067  0.4710 -0.1412  0.4773
14775TIP3    H265817   6.143   1.640  11.076  0.5352 -0.0644 -0.8804
14776TIP3   OH265818   3.714   6.573  16.582  0.2839  0.6998 -0.0790
14776TIP3    H165819   3.717   6.602  16.490 -0.3346 -0.4391 -0.4791
14776TIP3    H265820   3.802   6.588  16.615  1.1767 -0.9414 -1.5355
14777TIP3   OH265821   4.790   4.601  11.098 -0.6353  0.4300 -0.1538
14777TIP3    H165822   4.807   4.586  11.005  3.1757 -0.2805  0.4740
14777TIP3    H265823   4.831   4.685  11.117 -0.6413  0.1936  0.9972
14778TIP3   OH265824   3.657   5.777   0.368  0.4707  0.7372  0.4473
14778TIP3    H165825   3.745   5.790   0.404  0.7639 -1.2820  0.5750
14778TIP3    H265826   3.672   5.732   0.285 -0.4607  0.0657  0.6277
14779TIP3   OH265827   5.468   2.817  15.692 -0.4640 -0.5955 -0.1568
14779TIP3    H165828   5.516   2.816  15.775 -0.7731 -2.1969  0.0498
14779TIP3    H265829   5.385   2.775  15.713 -1.2904  0.6220 -0.8913
14780TIP3   OH265830   5.851   0.372   3.213 -0.6597 -0.0193 -0.3968
14780TIP3    H165831   5.927   0.353   3.268 -0.3246  1.5543 -0.2688
14780TIP3    H265832   5.871   0.333   3.128  0.1217  0.0558 -0.2508
14781TIP3   OH265833   2.361   3.955   2.282 -0.1474 -0.4717 -0.9904
14781TIP3    H165834   2.268   3.964   2.300 -0.1564  0.1138 -1.3139
14781TIP3    H265835   2.391   3.886   2.341 -0.6377 -0.1708 -0.3861
14782TIP3   OH265836   0.836   4.016  13.584  0.3430  0.1792  0.5686
14782TIP3    H165837   0.852   3.959  13.509 -0.2784  0.1370  0.4619
14782TIP3    H265838   0.856   3.961  13.660  2.2453  0.6260  0.4241
14783TIP3   OH265839   6.767   1.479   3.880  0.3970 -0.2511  0.4162
14783TIP3    H165840   6.748   1.394   3.920 -0.5936 -0.2217  0.0533
14783TIP3    H265841   6.680   1.518   3.867  0.6467 -0.3281 -1.9140
14784TIP3   OH265842   5.732   5.649   3.371  0.2773 -0.2477  0.3652
14784TIP3    H165843   5.721   5.718   3.306  1.5906  0.3516  0.7347
14784TIP3    H265844   5.827   5.645   3.385 -0.0048  0.9196  3.5554
14785TIP3   OH265845   5.033   5.745  16.184  0.0803 -0.8024 -0.8033
14785TIP3    H165846   5.115   5.793  16.198 -1.1272  1.0931  0.1215
14785TIP3    H265847   4.970   5.812  16.156 -1.7457 -1.7694  0.7959
14786TIP3   OH265848   1.924   3.331   2.570  0.5032 -0.1234 -0.6992
14786TIP3    H165849   1.851   3.275   2.541 -0.0191 -0.9625  1.9095
14786TIP3    H265850   1.974   3.275   2.629  1.5398  1.3724 -0.1139
14787TIP3   OH265851   4.667   2.811  10.992 -0.1204 -0.4463 -0.5236
14787TIP3    H165852   4.717   2.864  10.929 -0.0416  0.9578  0.6577
14787TIP3    H265853   4.707   2.831  11.077 -2.4058  0.4294  0.4336
14788TIP3   OH265854   2.795   2.392   0.889  0.1973 -0.1962  0.7279
14788TIP3    H165855   2.774   2.344   0.969 -1.0438  1.1053  1.2262
14788TIP3    H265856   2.712   2.394   0.841  0.6720 -0.0412 -0.0991
14789TIP3   OH265857   0.950   1.779  11.676  0.4661  0.3232  0.0502
14789TIP3    H165858   0.928   1.758  11.766 -0.8119  0.6000 -0.1843
14789TIP3    H265859   1.046   1.770  11.672  0.5920  0.7240  1.5326
14790TIP3   OH265860   3.187   4.723   4.347 -0.0867  0.0335  0.5045
14790TIP3    H165861   3.107   4.672   4.339 -0.6958  1.0914 -0.2949
14790TIP3    H265862   3.161   4.803   4.394  0.2320  0.9120 -0.7829
14791TIP3   OH265863   3.698   3.198  14.369 -0.2284 -0.5307 -0.3457
14791TIP3    H165864   3.777   3.160  14.329 -0.5001  0.3590 -1.7788
14791TIP3    H265865   3.630   3.133  14.353  0.4440 -2.0345  2.2392
14792TIP3   OH265866   5.515   2.135  16.576  0.0607 -0.0456  0.0436
14792TIP3    H165867   5.558   2.113  16.659  0.7981  0.7785 -0.1024
14792TIP3    H265868   5.572   2.202  16.537 -2.6118  3.1199  1.0900
14793TIP3   OH265869   5.434   5.077   2.327 -0.1058 -0.2135  0.7356
14793TIP3    H165870   5.417   5.112   2.414 -3.5859  2.2460 -0.6985
14793TIP3    H265871   5.372   5.005   2.317 -0.5703  0.2838 -0.0744
14794TIP3   OH265872   4.652   2.667  14.470  0.1391  0.6549 -0.4642
14794TIP3    H165873   4.718   2.643  14.405 -0.5441  0.9184 -1.2699
14794TIP3    H265874   4.678   2.619  14.549 -0.4391 -1.8051 -1.6425
14795TIP3   OH265875   3.458   2.447   3.180 -0.0386  0.2317 -0.7952
14795TIP3    H165876   3.420   2.526   3.218 -0.4644  1.3033 -3.3076
14795TIP3    H265877   3.552   2.458   3.189 -0.1222  0.4455 -0.0934
14796TIP3   OH265878   1.602   1.043  14.055  0.3245  0.2062  1.0885
14796TIP3    H165879   1.554   0.961  14.067 -0.0792  0.1044 -0.8571
14796TIP3    H265880   1.672   1.021  13.993  1.9344  0.7351  2.6276
14797TIP3   OH265881   3.635   0.527  16.401 -0.2117  0.4213 -0.7088
14797TIP3    H165882   3.709   0.541  16.460 -1.9447 -0.0207  1.6937
14797TIP3    H265883   3.660   0.450  16.350  0.4559 -0.5426  0.9857
14798TIP3   OH265884   4.045   0.288  16.625 -0.0279  0.0687  0.6044
14798TIP3    H165885   4.076   0.275  16.715  0.6919 -0.8451  0.2378
14798TIP3    H265886   4.060   0.382  16.609  0.9730  0.0007  1.0333
14799TIP3   OH265887   5.231   3.689  15.101  0.1684  0.4338 -0.0202
14799TIP3    H165888   5.198   3.764  15.151 -0.8947  1.2028 -1.7950
14799TIP3    H265889   5.163   3.622  15.113 -0.1952  0.6937 -0.5685
14800TIP3   OH265890   0.176   1.585   1.419  0.3902  0.3225  0.5939
14800TIP3    H165891   0.159   1.549   1.332 -1.3388 -0.7995  1.3369
14800TIP3    H265892   0.251   1.534   1.451  1.8529  1.5777 -0.6389
14801TIP3   OH265893   3.299   6.455  15.814  0.2853 -0.1172 -0.6430
14801TIP3    H165894   3.266   6.545  15.811  0.0932 -0.1761 -0.3130
14801TIP3    H265895   3.394   6.465  15.820  0.2732  0.0613 -0.7313
14802TIP3   OH265896   4.971   3.537   4.710  0.3852 -0.0146  0.0045
14802TIP3    H165897   4.960   3.442   4.721  3.5239 -0.3829  0.8722
14802TIP3    H265898   5.064   3.549   4.694 -0.0530  2.9051 -1.0280
14803TIP3   OH265899   4.342   2.679   2.980 -0.0389  0.2181  0.5217
14803TIP3    H165900   4.274   2.743   2.960 -0.8213 -0.8631 -0.4467
14803TIP3    H265901   4.420   2.731   2.999 -0.4049  1.4346 -1.1312
14804TIP3   OH265902   0.633   5.221   0.209 -0.1082  0.6506  0.0172
14804TIP3    H165903   0.720   5.239   0.244  0.4536 -2.0423  0.2364
14804TIP3    H265904   0.614   5.295   0.152  2.1324  1.5296  0.3186
14805TIP3   OH265905   3.704   3.522  13.078  0.0544  0.4316 -0.0395
14805TIP3    H165906   3.654   3.601  13.062  1.4892  1.2142 -0.8030
14805TIP3    H265907   3.773   3.549  13.139  0.3205 -0.3250  0.0070
14806TIP3   OH265908   4.037   1.306  11.363  0.4026  0.2550 -0.0122
14806TIP3    H165909   3.977   1.249  11.314  0.6225 -1.5064  1.6671
14806TIP3    H265910   3.979   1.363  11.414  0.1789  1.8346 -1.9144
14807TIP3   OH265911   5.845   2.300  16.123 -0.5941 -0.2195 -0.3848
14807TIP3    H165912   5.916   2.277  16.062 -0.1700  0.9712 -0.3556
14807TIP3    H265913   5.859   2.242  16.198  0.2620 -0.1181 -0.4517
14808TIP3   OH265914   5.240   4.370   4.799 -0.3841 -0.7412 -0.3281
14808TIP3    H165915   5.229   4.364   4.894 -0.7667 -1.0492 -0.3906
14808TIP3    H265916   5.152   4.362   4.763 -0.1450 -1.6016 -0.7550
14809TIP3   OH265917   6.580   4.589  15.436 -0.6696  0.5592 -0.5154
14809TIP3    H165918   6.588   4.662  15.376 -0.6925  1.5211  0.6150
14809TIP3    H265919   6.491   4.556  15.423 -1.3279  1.9336  0.2527
14810TIP3   OH265920   6.301   5.978   0.610 -0.1222  0.0787 -0.5154
14810TIP3    H165921   6.366   6.006   0.674 -0.0409  0.4010 -0.7368
14810TIP3    H265922   6.342   5.994   0.525 -0.5719  0.4805 -0.6622
14811TIP3   OH265923   5.186   6.444  14.429 -0.0483 -0.4555  0.3544
14811TIP3    H165924   5.156   6.507  14.494  1.7200 -0.3244  1.0899
14811TIP3    H265925   5.270   6.414  14.461  0.8032 -0.5358 -1.7705
14812TIP3   OH265926   3.557   4.926  14.736  0.0377 -0.1318 -0.0918
14812TIP3    H165927   3.648   4.955  14.725  0.3840 -1.6387 -1.6858
14812TIP3    H265928   3.531   4.959  14.822  1.4598  1.9221 -0.3780
14813TIP3   OH265929   5.310   3.156  16.024  0.1423  0.7921 -0.0190
14813TIP3    H165930   5.225   3.197  16.005  0.2640  1.0609  0.0021
14813TIP3    H265931   5.348   3.137  15.938 -0.7701 -1.1118 -0.0488
14814TIP3   OH265932   0.412   2.839  11.968 -0.3030 -0.0485 -0.0975
14814TIP3    H165933   0.365   2.887  11.900 -0.3631 -0.1443 -0.1258
14814TIP3    H265934   0.485   2.895  11.993  1.4762 -1.2374 -2.3041
14815TIP3   OH265935   4.214   6.215   3.559 -0.5563 -0.2213 -0.2684
14815TIP3    H165936   4.301   6.174   3.552  0.3724  1.6095 -0.0221
14815TIP3    H265937   4.217   6.288   3.498 -1.5815  0.4790  0.4913
14816TIP3   OH265938   2.953   0.458  12.596 -0.3765  0.4557 -0.0651
14816TIP3    H165939   2.984   0.388  12.539 -1.2110 -1.0211  1.2097
14816TIP3    H265940   2.872   0.424  12.633 -0.7137  2.0448  0.7168
14817TIP3   OH265941   5.543   1.228  16.886 -0.0807  0.4411  0.8118
14817TIP3    H165942   5.637   1.225  16.874 -0.0265 -0.7126  1.3773
14817TIP3    H265943   5.529   1.297  16.952  0.3253  0.8514  0.4729
14818TIP3   OH265944   2.339   2.199  12.151  0.6583 -0.1656 -0.1208
14818TIP3    H165945   2.356   2.131  12.216 -0.8365  0.5271  1.0597
14818TIP3    H265946   2.375   2.279  12.190  0.5294  0.0947 -0.5309
14819TIP3   OH265947   2.855   2.273   3.418  0.3399  0.0436  0.0341
14819TIP3    H165948   2.813   2.353   3.387 -1.1233 -0.6464  0.1488
14819TIP3    H265949   2.848   2.278   3.514  0.7394  0.0371  0.0638
14820TIP3   OH265950   3.867   4.615   6.886  0.6998  0.0999  0.3657
14820TIP3    H165951   3.924   4.678   6.841 -2.2339  1.7450 -1.3570
14820TIP3    H265952   3.785   4.663   6.900 -1.5970 -3.1792 -0.6659
14821TIP3   OH265953   1.405   1.217  13.976 -0.2142  0.5500  0.3410
14821TIP3    H165954   1.467   1.149  14.004 -2.5078 -1.2247  1.3885
14821TIP3    H265955   1.361   1.244  14.057 -0.3878  2.2603 -0.2861
14822TIP3   OH265956   1.384   4.870   3.080  0.3152 -0.3574 -0.0690
14822TIP3    H165957   1.372   4.964   3.070  0.7504 -0.2476  0.4165
14822TIP3    H265958   1.307   4.841   3.130  2.0681  0.4059  3.3946
14823TIP3   OH265959   5.839   2.471   1.032  0.2995 -0.2291  0.5834
14823TIP3    H165960   5.814   2.563   1.030 -0.5724 -0.4540  0.9553
14823TIP3    H265961   5.856   2.453   1.125 -1.5338 -0.9612  0.8050
14824TIP3   OH265962   1.383   5.403   3.163  0.3719 -0.3622 -0.4197
14824TIP3    H165963   1.461   5.400   3.218  0.0523 -0.9162  0.0076
14824TIP3    H265964   1.387   5.323   3.111  0.1115 -0.3663 -0.4354
14825TIP3   OH265965   0.208   2.457   3.566 -0.0552  0.0257  0.1416
14825TIP3    H165966   0.199   2.542   3.610  0.0474 -1.1048  2.4766
14825TIP3    H265967   0.291   2.464   3.518  0.0385  1.1927  0.4347
14826TIP3   OH265968   3.967   6.698   3.544 -0.2206 -0.3393 -0.9987
14826TIP3    H165969   3.914   6.649   3.607  0.1653 -0.2306 -0.5803
14826TIP3    H265970   3.929   6.677   3.459  0.0518 -1.5289 -0.8490
14827TIP3   OH265971   0.379   6.556  11.439  0.2335  0.0407 -0.3067
14827TIP3    H165972   0.302   6.530  11.388 -0.0612  0.0948  0.1036
14827TIP3    H265973   0.349   6.552  11.530 -0.1841  2.8937 -0.2348
14828TIP3   OH265974   5.230   2.754  16.830  0.1443  0.3964  0.4656
14828TIP3    H165975   5.228   2.780  16.923 -1.3901  3.0862 -0.1776
14828TIP3    H265976   5.308   2.797  16.795 -0.0637  0.6005  0.2473
14829TIP3   OH265977   6.569   0.811   2.803  0.1232 -0.7100  0.0523
14829TIP3    H165978   6.518   0.733   2.784  0.9667 -1.4669  0.7916
14829TIP3    H265979   6.632   0.817   2.732  1.0922 -1.6273  0.8064
14830TIP3   OH265980   6.654   6.794  17.043 -0.1333  0.4484  0.2195
14830TIP3    H165981   6.699   6.713  17.021 -0.3882  0.1092  0.9019
14830TIP3    H265982   6.697   6.825  17.123 -0.6599  0.4744  0.4996
14831TIP3   OH265983   3.725   0.806  17.004 -0.2548  0.0467 -0.0870
14831TIP3    H165984   3.769   0.789  17.087  1.2734 -0.2277 -0.9046
14831TIP3    H265985   3.719   0.901  16.999 -0.7678  0.0500  0.5375
14832TIP3   OH265986   5.616   1.064   0.140  0.4815 -0.1668 -0.0806
14832TIP3    H165987   5.534   1.079   0.187  0.0591 -1.8942 -0.2312
14832TIP3    H265988   5.683   1.106   0.196 -0.1668 -1.0591  1.4270
14833TIP3   OH265989   2.033   0.321  15.011  0.2082 -0.5711  0.1264
14833TIP3    H165990   2.104   0.262  14.987  0.9390  0.5249 -0.5426
14833TIP3    H265991   2.015   0.301  15.103  0.7024 -1.5445  0.0264
14834TIP3   OH265992   0.216   6.172  16.549 -1.1431  0.1283  0.4405
14834TIP3    H165993   0.238   6.246  16.606  2.4573 -0.5250  0.1126
14834TIP3    H265994   0.209   6.097  16.608 -3.5479  0.4409  0.6273
14835TIP3   OH265995   3.938   2.234  15.248 -0.4672 -0.0646  0.2061
14835TIP3    H165996   3.981   2.310  15.287  0.5161 -1.2159  1.4425
14835TIP3    H265997   3.925   2.259  15.156  2.2712  0.6180 -0.0855
14836TIP3   OH265998   0.513   2.184  15.571  0.2435  0.9181 -0.5010
14836TIP3    H165999   0.496   2.193  15.665 -0.5473  0.8429 -0.6300
14836TIP3    H266000   0.543   2.271  15.544 -0.1188  1.1075 -0.2969
14837TIP3   OH266001   1.149   0.506   1.316 -0.9182  0.0488 -0.3234
14837TIP3    H166002   1.091   0.578   1.339 -0.7282  0.2237 -0.3912
14837TIP3    H266003   1.152   0.452   1.395 -2.3933 -0.7966 -0.8046
14838TIP3   OH266004   5.022   1.576   2.130  0.5126  0.2354  0.1281
14838TIP3    H166005   4.942   1.601   2.176 -0.3141 -2.5851  0.4469
14838TIP3    H266006   4.991   1.533   2.051  1.5705 -2.1090  0.8986
14839TIP3   OH266007   5.157   4.437  13.564  0.3974 -0.2637 -0.3500
14839TIP3    H166008   5.108   4.357  13.547 -1.3305  0.8065 -0.6989
14839TIP3    H266009   5.128   4.466  13.650  2.4509 -0.9600  0.6559
14840TIP3   OH266010   2.763   0.108  11.438 -0.2311  0.0643 -0.0126
14840TIP3    H166011   2.791   0.152  11.519  2.1500  1.4907 -1.5023
14840TIP3    H266012   2.702   0.169  11.397 -2.7332 -1.3476  1.3387
14841TIP3   OH266013   2.519   2.892   3.039 -0.3353 -0.4849  0.5091
14841TIP3    H166014   2.537   2.808   2.997  2.0844 -1.0995  2.5342
14841TIP3    H266015   2.443   2.875   3.095 -0.7274 -0.9115 -0.1393
14842TIP3   OH266016   5.319   4.136  11.655 -0.0403  0.4384  0.1127
14842TIP3    H166017   5.296   4.103  11.742  2.2762 -0.2791  0.5144
14842TIP3    H266018   5.399   4.090  11.632  0.2456  1.7538 -1.7489
14843TIP3   OH266019   5.947   6.139  13.508  0.1313  0.6922 -0.5335
14843TIP3    H166020   5.862   6.109  13.540  0.8285  2.1360  3.2920
14843TIP3    H266021   5.935   6.233  13.493  0.5935  0.5483 -1.9429
14844TIP3   OH266022   6.102   0.005   1.798 -0.6371 -0.6315  0.3330
14844TIP3    H166023   6.055  -0.049   1.734  1.3833 -2.4280  0.2699
14844TIP3    H266024   6.099  -0.045   1.879  0.2038 -0.2438  0.6117
14845TIP3   OH266025   6.649   1.328  10.801 -0.1090 -0.3680 -0.3240
14845TIP3    H166026   6.612   1.294  10.719  0.5140 -0.7769 -0.4404
14845TIP3    H266027   6.708   1.398  10.773  0.1372 -0.5371 -0.2304
14846TIP3   OH266028   1.461   1.096   1.460  0.4047  0.6481  0.2810
14846TIP3    H166029   1.504   1.043   1.393  2.2865  1.9841  0.3529
14846TIP3    H266030   1.484   1.053   1.543 -2.1341 -1.1533  0.1715
14847TIP3   OH266031   3.075   5.273  16.999  0.3560  0.1621 -0.3835
14847TIP3    H166032   3.015   5.343  16.973 -0.6197 -0.4078  0.2262
14847TIP3    H266033   3.143   5.317  17.049  0.0464  0.7441 -0.4626
14848TIP3   OH266034   4.707   5.482  16.560  0.0935 -0.0131 -0.4622
14848TIP3    H166035   4.751   5.461  16.642  1.2223 -0.3686 -1.1434
14848TIP3    H266036   4.770   5.461  16.491 -0.4516  1.1896 -1.3957
14849TIP3   OH266037   0.513   2.023  15.793  0.2058 -0.0993  0.5425
14849TIP3    H166038   0.504   1.928  15.787 -1.9028  0.1479 -0.8031
14849TIP3    H266039   0.608   2.037  15.797  0.5623 -2.2334  0.8777
14850TIP3   OH266040   3.391   5.317  12.754 -0.3292  0.3022 -0.0512
14850TIP3    H166041   3.460   5.367  12.712 -1.8560  3.1159  0.5457
14850TIP3    H266042   3.328   5.299  12.685 -0.3647  0.2914 -0.0163
14851TIP3   OH266043   4.443   4.785  13.207  0.4553  0.9574  0.0142
14851TIP3    H166044   4.439   4.810  13.115 -0.1139  0.3778 -0.1246
14851TIP3    H266045   4.352   4.785  13.236  0.7317  2.5467  0.9764
14852TIP3   OH266046   2.010   4.574  11.981  0.3315 -0.4041 -0.4420
14852TIP3    H166047   2.061   4.636  11.930  1.0865 -1.3481 -0.8742
14852TIP3    H266048   1.988   4.504  11.919 -1.7927  0.1163 -0.3591
14853TIP3   OH266049   3.864   6.242   2.164  0.1542 -0.3154 -0.2536
14853TIP3    H166050   3.787   6.189   2.185  1.4872 -1.1030  3.4735
14853TIP3    H266051   3.918   6.185   2.109 -0.4963 -1.0449 -0.1566
14854TIP3   OH266052   3.969   3.260  16.033  0.1659 -0.3724  0.6177
14854TIP3    H166053   3.959   3.337  15.978  1.2598  0.1841  1.1700
14854TIP3    H266054   4.050   3.219  16.003 -1.4482 -2.5366 -1.0953
14855TIP3   OH266055   6.120   1.633  14.654 -0.4532  0.2903 -0.2454
14855TIP3    H166056   6.072   1.655  14.574 -2.0801  1.0091  0.8926
14855TIP3    H266057   6.089   1.696  14.719  0.4947 -0.5709  1.0908
14856TIP3   OH266058   6.351   3.153  13.920 -0.0469 -0.4946 -0.7139
14856TIP3    H166059   6.382   3.100  13.993  0.1298  0.0523 -0.3898
14856TIP3    H266060   6.417   3.222  13.911 -1.2537  0.8205  0.1247
14857TIP3   OH266061   1.908   4.306   4.775 -0.0140 -0.0118  0.0112
14857TIP3    H166062   1.826   4.335   4.737  0.3959  1.0570 -0.0818
14857TIP3    H266063   1.890   4.217   4.805 -1.1240  0.1184 -0.2259
14858TIP3   OH266064   5.497   3.175  13.368 -0.0400 -0.1712 -0.3478
14858TIP3    H166065   5.539   3.090  13.379 -0.4702 -0.5094 -1.1792
14858TIP3    H266066   5.432   3.160  13.299 -1.2429  0.4420  0.6377
14859TIP3   OH266067   2.852   1.368   2.436 -0.4360  0.0883 -0.4046
14859TIP3    H166068   2.793   1.303   2.473  1.0923 -0.3761  1.3154
14859TIP3    H266069   2.896   1.407   2.511 -0.1035  1.9715 -1.5029
14860TIP3   OH266070   1.546   0.838  11.862  0.0880  0.2262 -0.2952
14860TIP3    H166071   1.629   0.795  11.843  0.1389  0.1252  0.1536
14860TIP3    H266072   1.484   0.797  11.802 -0.0429 -1.0773  0.6834
14861TIP3   OH266073   0.600   4.953  15.581  0.0705  0.6747  0.2725
14861TIP3    H166074   0.533   5.018  15.557 -0.8232  0.4079  1.8948
14861TIP3    H266075   0.654   4.997  15.647  1.8646  1.0571 -1.3550
14862TIP3   OH266076   1.704   1.938  10.981  0.4947  0.2975  0.2007
14862TIP3    H166077   1.722   1.858  10.931 -0.0213  0.6685 -0.5969
14862TIP3    H266078   1.745   2.008  10.931 -0.1198  0.6900  0.2354
14863TIP3   OH266079   6.322   4.552  10.802  0.1937 -0.6423  0.2028
14863TIP3    H166080   6.296   4.622  10.743  4.1849  0.3282 -0.6781
14863TIP3    H266081   6.304   4.471  10.753  0.6988  0.0336 -1.1377
14864TIP3   OH266082   2.613   5.888  16.965  0.0784 -0.3207  0.4974
14864TIP3    H166083   2.613   5.895  17.061  0.8247  0.1976  0.4662
14864TIP3    H266084   2.520   5.889  16.941 -0.1620 -1.5608  1.2869
14865TIP3   OH266085   4.947   3.609   6.584 -0.1454  0.2619 -0.6529
14865TIP3    H166086   4.932   3.696   6.547 -2.0939 -0.0466 -0.6948
14865TIP3    H266087   4.968   3.554   6.509 -1.4235  0.2022 -0.9987
14866TIP3   OH266088   0.728   0.545   6.040 -0.1829  0.0137 -0.5099
14866TIP3    H166089   0.699   0.620   6.092  0.6420  0.2190 -0.3307
14866TIP3    H266090   0.677   0.471   6.075  0.6373  0.0695  0.8973
14867TIP3   OH266091   2.641   5.981   2.311 -0.0567 -0.2796 -0.2627
14867TIP3    H166092   2.637   6.072   2.283 -0.4092  0.1026  0.9500
14867TIP3    H266093   2.669   5.986   2.402  0.6603 -1.4349 -0.4079
14868TIP3   OH266094   3.282   4.126  15.353  0.4583 -0.3189 -0.3215
14868TIP3    H166095   3.365   4.164  15.380  1.8065 -3.5524  0.4657
14868TIP3    H266096   3.218   4.163  15.414  1.9548 -0.6059  1.4952
14869TIP3   OH266097   4.426   0.269   1.719  0.4763 -0.0231 -0.1100
14869TIP3    H166098   4.365   0.212   1.767  0.1189  0.3180 -0.1600
14869TIP3    H266099   4.437   0.226   1.634 -1.5058  1.0782 -1.0043
14870TIP3   OH266100   1.641   4.092  11.632  0.5637  0.2697  0.2575
14870TIP3    H166101   1.568   4.120  11.688 -2.0418 -2.0453 -1.7439
14870TIP3    H266102   1.613   4.115  11.544  2.2003 -0.8591 -0.5857
14871TIP3   OH266103   6.409   0.488  11.105  0.1418  0.0583  0.2775
14871TIP3    H166104   6.485   0.436  11.132  1.2405  0.7450 -1.3529
14871TIP3    H266105   6.393   0.463  11.014 -1.5845 -0.0167  0.5547
14872TIP3   OH266106   2.447   3.557  12.026 -0.1433 -0.3770  0.1123
14872TIP3    H166107   2.388   3.503  11.974  1.6017 -2.0969 -0.1993
14872TIP3    H266108   2.535   3.531  11.998  0.8015  1.6748  0.9453
14873TIP3   OH266109   3.546   1.988  11.107  0.0079 -0.0231 -0.2076
14873TIP3    H166110   3.593   2.065  11.076 -2.2889  1.3840 -0.4037
14873TIP3    H266111   3.460   2.021  11.135 -0.8634 -2.4231  0.2374
14874TIP3   OH266112   2.232   4.065  12.175  0.1892 -0.0763 -0.0695
14874TIP3    H166113   2.274   4.129  12.117 -0.5378  0.1660 -0.3460
14874TIP3    H266114   2.282   3.985  12.162 -1.3316 -0.7308 -2.8802
14875TIP3   OH266115   4.889   2.253  16.179 -0.4420  0.0296  0.4312
14875TIP3    H166116   4.978   2.253  16.145  0.5675  1.7780  2.8650
14875TIP3    H266117   4.875   2.164  16.210 -0.0857 -0.6135 -1.1444
14876TIP3   OH266118   3.695   6.769  16.050 -0.5507  0.2642 -0.2053
14876TIP3    H166119   3.786   6.742  16.036  0.5762  2.5527  1.9297
14876TIP3    H266120   3.651   6.690  16.081  1.0026 -0.6039 -0.1104
14877TIP3   OH266121   0.661   2.329  12.825 -0.2738  0.4867  0.1675
14877TIP3    H166122   0.657   2.422  12.802  0.1093  1.1316  2.4209
14877TIP3    H266123   0.747   2.318  12.866 -0.5821 -0.7005  0.5440
14878TIP3   OH266124   4.600   0.879   1.571 -0.7963 -0.5105 -0.0897
14878TIP3    H166125   4.538   0.902   1.640 -0.8443 -0.8972  0.0012
14878TIP3    H266126   4.685   0.906   1.605 -0.7198 -1.4252  0.4687
14879TIP3   OH266127   2.333   0.928   1.068  0.0063 -0.8172  0.3846
14879TIP3    H166128   2.300   0.966   0.987  0.1972  0.1170  0.7295
14879TIP3    H266129   2.341   1.003   1.128 -1.1657 -1.6322  1.6214
14880TIP3   OH266130   5.243   3.883   0.807  0.1318 -0.1221  0.0507
14880TIP3    H166131   5.300   3.903   0.733 -1.2426  1.1120 -0.7337
14880TIP3    H266132   5.158   3.918   0.782 -0.4007  0.2627  2.1840
14881TIP3   OH266133   3.975   1.820   2.052  0.0148  0.4876 -1.0548
14881TIP3    H166134   4.056   1.772   2.070  0.2545  1.7407  1.7539
14881TIP3    H266135   4.003   1.900   2.008  0.4296  1.2176  0.4817
14882TIP3   OH266136   3.932   6.020   0.426 -0.0198  0.3324  0.1810
14882TIP3    H166137   4.019   5.984   0.409 -0.5034  0.0034 -1.8802
14882TIP3    H266138   3.909   6.067   0.347 -0.8403  2.3448  1.5312
14883TIP3   OH266139   4.405   4.736  11.646 -0.1257 -0.2523 -0.0437
14883TIP3    H166140   4.427   4.647  11.620 -0.5224 -0.5235  0.5208
14883TIP3    H266141   4.364   4.775  11.569 -0.9444 -0.9139  0.0490
14884TIP3   OH266142   3.233   6.640   6.419 -0.1170 -0.4281  0.0183
14884TIP3    H166143   3.202   6.659   6.331 -0.0717 -1.6123 -0.2714
14884TIP3    H266144   3.164   6.586   6.458 -0.4241  0.5920  0.9430
14885TIP3   OH266145   1.112   2.530   3.299  0.1343 -0.1342 -0.0586
14885TIP3    H166146   1.191   2.548   3.250 -1.2282 -0.1975 -2.4198
14885TIP3    H266147   1.041   2.540   3.236 -1.7765  0.0099  1.9657
14886TIP3   OH266148   0.382   0.541  12.362 -0.2027  0.6441  0.5449
14886TIP3    H166149   0.343   0.625  12.338  1.2067  0.9044 -1.0146
14886TIP3    H266150   0.372   0.486  12.284  0.3225 -0.1057  0.9904
14887TIP3   OH266151   6.662   2.173  16.115 -0.0671  0.2100  0.1045
14887TIP3    H166152   6.572   2.205  16.116  0.5555  2.0668 -0.3653
14887TIP3    H266153   6.714   2.247  16.147  1.3062 -0.8238  0.3422
14888TIP3   OH266154   0.441   4.999  12.203 -0.2431 -0.2301 -0.4796
14888TIP3    H166155   0.370   5.032  12.147 -0.3364 -0.3578 -0.4374
14888TIP3    H266156   0.496   4.948  12.145 -0.8028 -1.0714 -0.2913
14889TIP3   OH266157   2.420   2.826  13.971  0.2347 -0.1831  0.3032
14889TIP3    H166158   2.418   2.735  14.000  1.7197 -0.4536 -0.3500
14889TIP3    H266159   2.492   2.830  13.908 -0.1797  1.3185 -0.1225
14890TIP3   OH266160   3.076   5.649  12.081  0.5973 -0.0808 -0.1446
14890TIP3    H166161   2.993   5.696  12.088  0.4620 -0.5227  1.8845
14890TIP3    H266162   3.142   5.718  12.071 -0.0305  0.2357 -2.6272
14891TIP3   OH266163   4.376   0.275  14.391 -0.2767  0.4929 -1.1607
14891TIP3    H166164   4.403   0.206  14.451 -2.1304  0.5924 -0.1424
14891TIP3    H266165   4.338   0.342  14.447  0.4774  1.8727 -2.2330
14892TIP3   OH266166   1.168   2.881  15.792  0.2250  0.3419 -0.5777
14892TIP3    H166167   1.113   2.861  15.716 -1.8592  0.4107  0.8392
14892TIP3    H266168   1.119   2.947  15.841  1.4237  0.1758  0.9206
14893TIP3   OH266169   6.284   1.580  11.208 -0.1569 -0.1706 -0.0995
14893TIP3    H166170   6.343   1.600  11.136  1.0404 -0.2484  0.8204
14893TIP3    H266171   6.283   1.485  11.213  1.5795 -0.1596  1.3757
14894TIP3   OH266172   1.351   0.726  14.924  0.6896 -0.0896  0.1043
14894TIP3    H166173   1.316   0.648  14.966 -2.5769  0.8222 -0.5896
14894TIP3    H266174   1.342   0.709  14.830 -1.0344  1.4317 -0.0514
14895TIP3   OH266175   5.163   2.152  17.080 -0.2540 -0.0629 -0.5072
14895TIP3    H166176   5.145   2.219  17.014 -1.5601 -1.8370 -2.0567
14895TIP3    H266177   5.089   2.091  17.073  0.5655 -1.3471  1.2711
14896TIP3   OH266178   1.241   1.321  15.330  0.4958 -1.2485 -0.2262
14896TIP3    H166179   1.178   1.393  15.326 -0.1792 -1.8392 -0.5739
14896TIP3    H266180   1.315   1.350  15.277  0.1354 -0.9041 -0.5487
14897TIP3   OH266181   6.556   3.332  12.579 -0.4403  0.4775  0.0472
14897TIP3    H166182   6.490   3.263  12.588 -1.2825  1.3340  0.5382
14897TIP3    H266183   6.588   3.346  12.668  0.9487 -0.4274 -0.2746
14898TIP3   OH266184   5.842   2.157   1.564  0.2537  0.5696 -0.2029
14898TIP3    H166185   5.909   2.219   1.593  0.6790  0.0550 -0.0902
14898TIP3    H266186   5.764   2.211   1.553  0.4232  1.0018  0.6175
14899TIP3   OH266187   6.237   1.435  16.427 -0.2661 -0.2291  0.1920
14899TIP3    H166188   6.245   1.466  16.337 -2.0422  0.6941  0.3249
14899TIP3    H266189   6.314   1.470  16.471  0.5092 -0.5059 -0.8930
14900TIP3   OH266190   3.223   5.547  10.648 -0.5639  0.1471  0.8491
14900TIP3    H166191   3.191   5.474  10.701 -0.6588  0.2579  0.9455
14900TIP3    H266192   3.318   5.536  10.648 -0.6668 -2.2169 -2.3402
14901TIP3   OH266193   6.418   1.017  16.888 -0.2650 -0.0041 -0.5407
14901TIP3    H166194   6.383   0.963  16.959  1.3908 -0.1732  0.1940
14901TIP3    H266195   6.344   1.033  16.830 -1.8004  0.5768  1.4885
14902TIP3   OH266196   4.325   1.194  14.362  0.1735 -0.5829  0.0048
14902TIP3    H166197   4.321   1.259  14.433 -1.7462  0.0574 -0.6451
14902TIP3    H266198   4.400   1.222  14.309  0.5981 -0.0952  0.8244
14903TIP3   OH266199   3.579   3.444  13.416  0.2317 -0.8857  0.1563
14903TIP3    H166200   3.579   3.477  13.506 -0.8527 -0.2331 -0.0700
14903TIP3    H266201   3.560   3.520  13.362  0.7084 -1.3056 -0.6184
14904TIP3   OH266202   2.234   0.288   1.563  0.4249 -0.0417  0.2607
14904TIP3    H166203   2.210   0.362   1.507  0.5296  0.2237  0.5567
14904TIP3    H266204   2.184   0.302   1.644  0.9345  0.0635  0.5639
14905TIP3   OH266205   1.353   1.536  16.281 -0.4279  0.5509 -0.4281
14905TIP3    H166206   1.284   1.530  16.347 -0.1169 -1.1245 -0.2151
14905TIP3    H266207   1.433   1.512  16.328  0.0586  0.9207 -1.0478
14906TIP3   OH266208   0.272   5.544   4.325 -0.2183 -0.7408  0.0665
14906TIP3    H166209   0.203   5.519   4.386  0.2334  0.8709  1.3177
14906TIP3    H266210   0.272   5.640   4.327  3.2255 -0.6262  1.5816
14907TIP3   OH266211   5.895   6.402  13.475 -0.4723 -0.7633 -0.4215
14907TIP3    H166212   5.904   6.454  13.554 -1.6280 -0.9295 -0.1638
14907TIP3    H266213   5.861   6.464  13.410  0.5943 -0.5956 -0.8418
14908TIP3   OH266214   0.522   0.739  10.802 -0.2381 -0.4164 -0.0205
14908TIP3    H166215   0.530   0.729  10.897  0.6703  2.4203  0.3092
14908TIP3    H266216   0.450   0.681  10.777 -1.8399  0.2020  2.7271
14909TIP3   OH266217   3.646   0.854  11.887  0.3797  0.4079  0.1539
14909TIP3    H166218   3.563   0.818  11.919  0.2642 -0.8556 -1.4492
14909TIP3    H266219   3.713   0.793  11.918  0.6818  1.1831  1.0657
14910TIP3   OH266220   3.502   4.889  10.513 -0.1016 -0.6247  0.5509
14910TIP3    H166221   3.566   4.819  10.527 -0.5996 -1.4526 -1.0604
14910TIP3    H266222   3.495   4.932  10.598  1.6124 -1.3386  1.1087
14911TIP3   OH266223   3.080   5.812   0.902  0.2561  0.6792  0.0892
14911TIP3    H166224   3.007   5.872   0.889  0.3601  0.8204  0.1595
14911TIP3    H266225   3.044   5.726   0.878 -0.3017  0.5481  1.3266
14912TIP3   OH266226   6.416   0.806  11.162  0.1784 -0.2017 -0.0796
14912TIP3    H166227   6.410   0.719  11.123  0.6153  0.7704 -2.5414
14912TIP3    H266228   6.440   0.863  11.089 -0.6262  2.0835  1.3251
14913TIP3   OH266229   0.448   6.241  14.383 -0.1282 -0.7099  0.4586
14913TIP3    H166230   0.438   6.334  14.402 -0.0526 -0.8707  1.3088
14913TIP3    H266231   0.541   6.224  14.398 -0.0902 -0.8679  0.0494
14914TIP3   OH266232   4.751   3.761   3.359  0.0796 -0.1788  0.2483
14914TIP3    H166233   4.829   3.715   3.327 -0.2072 -1.6701  1.5500
14914TIP3    H266234   4.745   3.839   3.304  2.1927 -0.2853 -0.2384
14915TIP3   OH266235   5.627   1.948  14.057 -1.0306 -0.1374  0.0113
14915TIP3    H166236   5.600   1.882  13.993  2.4309 -1.1752 -0.6097
14915TIP3    H266237   5.628   1.900  14.141 -2.3267  0.3024  0.3059
14916TIP3   OH266238   2.845   3.956   2.663 -0.1548  0.0433  0.2506
14916TIP3    H166239   2.867   3.916   2.580 -0.6099  0.3949 -0.0436
14916TIP3    H266240   2.814   3.883   2.718 -2.2980  0.1463 -0.7245
14917TIP3   OH266241   5.124   2.279   3.546  0.2736  0.5861 -0.4506
14917TIP3    H166242   5.087   2.337   3.480 -0.7156  0.0773 -0.3572
14917TIP3    H266243   5.064   2.285   3.620  0.1273 -0.5781 -0.4555
14918TIP3   OH266244   4.792   2.679  10.691 -0.2716 -0.9715  0.5939
14918TIP3    H166245   4.768   2.769  10.715  2.4470  0.3077 -1.0875
14918TIP3    H266246   4.779   2.675  10.596  2.3944 -1.3357  0.1787
14919TIP3   OH266247   4.976   2.270  14.745  0.4300  0.0504  0.4830
14919TIP3    H166248   5.003   2.229  14.827  3.0882  0.3618 -0.1184
14919TIP3    H266249   4.892   2.230  14.724  0.0545 -0.5903  2.9495
14920TIP3   OH266250   2.561   6.685   0.839  0.2916  0.1239  0.9402
14920TIP3    H166251   2.582   6.762   0.785  0.4191 -0.9174 -0.5677
14920TIP3    H266252   2.647   6.648   0.861  0.2244 -0.8480 -0.2954
14921TIP3   OH266253   5.720   5.996   2.780  0.2005  0.1400  0.3972
14921TIP3    H166254   5.641   5.944   2.794  1.2665 -1.2676  1.3774
14921TIP3    H266255   5.723   6.010   2.685 -0.5260 -0.9159  0.1997
14922TIP3   OH266256   6.250   5.682  13.801 -0.4328 -0.3796 -0.3989
14922TIP3    H166257   6.293   5.715  13.722 -1.7248  1.7488 -0.2847
14922TIP3    H266258   6.321   5.672  13.865  0.3049  0.1553 -1.1177
14923TIP3   OH266259   0.371   0.083  13.912 -0.3020 -0.5434  0.0447
14923TIP3    H166260   0.366   0.179  13.910 -0.4915 -0.4620  2.0613
14923TIP3    H266261   0.393   0.063  14.003  0.0822 -2.4144 -0.4348
14924TIP3   OH266262   0.872   5.266   0.367 -0.1866 -0.3555 -0.7228
14924TIP3    H166263   0.897   5.202   0.434 -0.6559  0.7054  0.4951
14924TIP3    H266264   0.936   5.337   0.376 -1.0851  0.4447 -0.4179
14925TIP3   OH266265   6.399   4.089  14.167  0.2718  0.3232  0.5336
14925TIP3    H166266   6.465   4.158  14.160  0.5713 -0.1199 -1.3451
14925TIP3    H266267   6.385   4.059  14.078  0.9238 -2.7992  1.3515
14926TIP3   OH266268   3.872   4.285   3.792  0.7327 -0.4966  0.8361
14926TIP3    H166269   3.899   4.252   3.878  1.5360 -0.9611  0.4165
14926TIP3    H266270   3.923   4.365   3.780  1.7173 -1.2027  0.1813
14927TIP3   OH266271   0.566   6.093   2.764 -0.0231  0.4068  0.1192
14927TIP3    H166272   0.625   6.020   2.786  1.1080  1.2249 -0.1221
14927TIP3    H266273   0.485   6.072   2.810  0.1284 -1.2168 -0.2762
14928TIP3   OH266274   4.885   2.552  14.325 -0.3700  0.1116 -0.2489
14928TIP3    H166275   4.937   2.472  14.329 -0.6330 -0.0176  0.7571
14928TIP3    H266276   4.943   2.620  14.358 -0.7843 -0.0133  0.7687
14929TIP3   OH266277   0.118   5.116  13.963 -0.4672  0.2298  0.1332
14929TIP3    H166278   0.069   5.059  13.903 -1.3781  0.4392  0.6590
14929TIP3    H266279   0.188   5.152  13.910 -0.8531 -0.1212 -0.6335
14930TIP3   OH266280   3.326   0.720   2.161  0.2410  0.0368 -0.1004
14930TIP3    H166281   3.364   0.794   2.210  2.8587 -0.3632 -1.3424
14930TIP3    H266282   3.395   0.653   2.162 -1.3098 -1.6430 -0.6929
14931TIP3   OH266283   0.877   1.152   4.403 -0.0737 -0.4337 -0.0122
14931TIP3    H166284   0.814   1.200   4.456 -0.7303 -1.0555 -0.2178
14931TIP3    H266285   0.911   1.216   4.341  1.0406  0.4333  1.4110
14932TIP3   OH266286   2.850   6.638  11.990 -0.6337 -0.1365  0.5207
14932TIP3    H166287   2.772   6.589  12.018 -1.1732  0.5681  0.3033
14932TIP3    H266288   2.878   6.593  11.910 -1.1073 -0.1049  0.3334
14933TIP3   OH266289   1.489   6.171   0.340  0.0833  0.1427 -0.1191
14933TIP3    H166290   1.426   6.231   0.379 -0.9868 -0.8710 -0.2413
14933TIP3    H266291   1.512   6.110   0.411  0.3862  0.0822 -0.2659
14934TIP3   OH266292   0.336   5.065  11.131  0.2559 -0.0707  0.1450
14934TIP3    H166293   0.306   5.074  11.040  0.3744  0.7416  0.1798
14934TIP3    H266294   0.422   5.024  11.124  0.4869  0.4470 -0.1471
14935TIP3   OH266295   0.023   1.049  13.229  0.3081  0.7446  0.0206
14935TIP3    H166296  -0.013   1.053  13.141  0.5814 -0.3984 -0.1631
14935TIP3    H266297   0.017   1.139  13.262 -2.1130  0.7195 -0.2074
14936TIP3   OH266298   4.443   1.649  11.349  0.1450  0.1771  0.1065
14936TIP3    H166299   4.368   1.628  11.293 -0.9395 -0.3100  1.6568
14936TIP3    H266300   4.515   1.596  11.315 -0.2253  0.5445 -1.3289
14937TIP3   OH266301   2.056   4.933  11.367  0.5999  0.6406  0.1197
14937TIP3    H166302   1.976   4.936  11.421  0.4992 -0.1568  0.0268
14937TIP3    H266303   2.127   4.951  11.429  0.6704 -2.1035  0.9648
14938TIP3   OH266304   0.682   2.544   1.205 -0.2254 -0.7747 -0.1934
14938TIP3    H166305   0.777   2.551   1.191 -0.3704  0.1985 -0.7629
14938TIP3    H266306   0.644   2.565   1.120 -0.9916  0.0251  0.3379
14939TIP3   OH266307   0.568   3.539  15.438  1.1051  0.0824  0.0421
14939TIP3    H166308   0.605   3.452  15.424 -0.3598 -0.4301 -0.8789
14939TIP3    H266309   0.530   3.563  15.354 -2.1018 -0.1730  1.2795
14940TIP3   OH266310   0.530   6.067  10.628  0.7891 -0.3676 -0.7226
14940TIP3    H166311   0.495   6.145  10.585 -0.2169 -0.1502  0.4488
14940TIP3    H266312   0.504   5.995  10.571  1.1561  0.0749 -1.4685
14941TIP3   OH266313   0.930   4.936   5.369 -0.3879 -0.3170 -0.4688
14941TIP3    H166314   1.003   4.996   5.358 -1.8550  1.3037 -1.9224
14941TIP3    H266315   0.888   4.933   5.283 -2.6587 -0.3257  0.5665
14942TIP3   OH266316   4.422   3.869  11.708 -0.2821 -0.7325  0.8725
14942TIP3    H166317   4.423   3.773  11.711 -0.2116 -0.7350  0.7576
14942TIP3    H266318   4.495   3.892  11.650 -1.7871 -0.6858 -1.1191
14943TIP3   OH266319   1.189   1.310   0.365 -0.2772  0.5001  0.1446
14943TIP3    H166320   1.126   1.244   0.391  1.1440 -1.4982 -1.1892
14943TIP3    H266321   1.180   1.315   0.269  2.5700 -1.0448 -0.3161
14944TIP3   OH266322   5.804   1.607  15.645 -0.2662  0.0054  0.2160
14944TIP3    H166323   5.719   1.606  15.689  0.2712 -1.1855  1.2747
14944TIP3    H266324   5.868   1.599  15.715  0.7517  0.9800 -0.5610
14945TIP3   OH266325   2.651   0.831   0.163  0.4634 -0.1310 -0.0099
14945TIP3    H166326   2.619   0.921   0.157  1.1615  0.1101 -0.1905
14945TIP3    H266327   2.579   0.783   0.204  0.1863  0.5647  0.3380
14946TIP3   OH266328   1.980   2.618   5.749 -0.2221  0.2572 -0.4688
14946TIP3    H166329   1.988   2.610   5.654  0.6247 -1.3110 -0.2873
14946TIP3    H266330   2.025   2.699   5.771 -0.9610  0.9550 -1.4518
14947TIP3   OH266331   1.333   3.328   2.077 -0.2434  0.3131  0.2653
14947TIP3    H166332   1.422   3.362   2.070 -0.4894  0.9659  0.1657
14947TIP3    H266333   1.277   3.405   2.063 -0.8189  0.0503  1.0199
14948TIP3   OH266334   4.884   6.271  12.943  0.0893 -0.3585 -0.1950
14948TIP3    H166335   4.882   6.233  13.031 -0.9651 -2.1552 -0.9465
14948TIP3    H266336   4.812   6.335  12.944  0.9495  0.6310  0.6396
14949TIP3   OH266337   3.140   0.634   3.780 -0.1473 -0.2582  0.4404
14949TIP3    H166338   3.123   0.552   3.826  1.2429 -0.3886  0.7664
14949TIP3    H266339   3.235   0.643   3.783 -0.3255  1.8394  1.2269
14950TIP3   OH266340   1.249   6.507   5.557 -0.1892 -0.4916  0.6487
14950TIP3    H166341   1.332   6.498   5.511  0.3807  0.0760  1.5497
14950TIP3    H266342   1.267   6.566   5.630 -1.2920 -0.6578  1.0826
14951TIP3   OH266343   2.192   5.496  16.914 -0.4793  0.8416 -0.4492
14951TIP3    H166344   2.106   5.465  16.889 -0.7212  1.1114  0.0364
14951TIP3    H266345   2.253   5.433  16.875 -0.9803 -1.1279  1.7364
14952TIP3   OH266346   1.403   2.070   4.853 -0.8045 -0.8520 -0.0393
14952TIP3    H166347   1.489   2.032   4.837 -0.3211 -0.1038  0.6669
14952TIP3    H266348   1.422   2.160   4.880 -1.7765 -0.8295  0.6101
14953TIP3   OH266349   1.376   5.572   2.341 -0.1908  0.2358  0.5791
14953TIP3    H166350   1.436   5.562   2.415  0.0785  0.6289  0.4125
14953TIP3    H266351   1.299   5.519   2.366 -0.2021  0.5550  1.2444
14954TIP3   OH266352   6.326   4.057  14.706  0.0678  0.0242 -0.2103
14954TIP3    H166353   6.395   4.022  14.650  0.4928  0.0942  0.2593
14954TIP3    H266354   6.359   4.143  14.733 -0.4412  0.2842 -0.4079
14955TIP3   OH266355   1.638   6.002   4.477 -0.0218 -0.0144  0.2459
14955TIP3    H166356   1.585   6.051   4.414 -0.3851  3.1893  2.7727
14955TIP3    H266357   1.716   5.976   4.428 -0.7015  1.4798 -1.7496
14956TIP3   OH266358   4.283   5.926  11.177  0.1848 -0.0630  0.2951
14956TIP3    H166359   4.264   5.881  11.096 -2.9884  0.5521  0.5974
14956TIP3    H266360   4.221   5.890  11.240  0.1590  1.9869  1.5186
14957TIP3   OH266361   4.793   4.201  14.928 -0.0543 -0.0730  0.0432
14957TIP3    H166362   4.732   4.131  14.951  0.6094  0.0695  2.4792
14957TIP3    H266363   4.752   4.246  14.855 -1.4183 -1.8073 -0.3108
14958TIP3   OH266364   0.809   3.572   0.416 -0.2678 -0.0568 -0.3022
14958TIP3    H166365   0.729   3.601   0.460 -1.0327 -0.4305 -1.3904
14958TIP3    H266366   0.842   3.501   0.471 -0.7677 -0.0035  0.0764
14959TIP3   OH266367   2.369   5.912   5.086 -0.0817 -0.7815  0.5449
14959TIP3    H166368   2.281   5.878   5.105 -0.7436  0.0814 -0.8165
14959TIP3    H266369   2.354   5.984   5.024  1.6408 -1.1215 -0.3313
14960TIP3   OH266370   2.258   2.191   3.877  0.5507 -0.8307 -0.5706
14960TIP3    H166371   2.301   2.250   3.815  1.8035 -0.3227  0.7290
14960TIP3    H266372   2.200   2.138   3.823  0.9231  0.1992 -2.0518
14961TIP3   OH266373   4.780   1.847  15.095  0.5922  0.5302 -0.0099
14961TIP3    H166374   4.833   1.880  15.168 -0.4320 -0.2479  1.1337
14961TIP3    H266375   4.730   1.775  15.133  0.9220 -0.7189 -1.8026
14962TIP3   OH266376   3.136   6.720   3.369 -0.0833  0.2236  0.1245
14962TIP3    H166377   3.145   6.810   3.338 -0.2263 -0.2367 -1.3207
14962TIP3    H266378   3.044   6.698   3.355 -0.3296  0.2194  1.5755
14963TIP3   OH266379   0.359   2.557   3.881  0.7061 -0.2055 -0.0631
14963TIP3    H166380   0.410   2.479   3.859  0.7906  0.0612 -0.8298
14963TIP3    H266381   0.395   2.587   3.964  0.0102 -1.5590  0.7710
14964TIP3   OH266382   0.549   0.478   4.148  0.0055 -0.5955 -0.8285
14964TIP3    H166383   0.614   0.493   4.080 -0.4477  1.0047 -0.9588
14964TIP3    H266384   0.466   0.472   4.100 -0.3446  0.7607 -0.4419
14965TIP3   OH266385   2.050   1.698  13.270 -0.5477  0.4730  1.0083
14965TIP3    H166386   2.045   1.786  13.234 -1.9698  0.0383  0.0857
14965TIP3    H266387   2.126   1.659  13.225 -0.3212  0.9945  0.9256
14966TIP3   OH266388   3.358   5.581  10.949  0.1579 -0.1368  0.2381
14966TIP3    H166389   3.431   5.643  10.949 -0.3198  0.4324  0.1555
14966TIP3    H266390   3.389   5.507  11.002  1.2403 -0.4408 -0.7746
14967TIP3   OH266391   5.373   1.398   4.639  0.1742 -0.2429 -0.5384
14967TIP3    H166392   5.459   1.409   4.598 -0.3745 -0.7496 -1.8899
14967TIP3    H266393   5.359   1.479   4.687  0.5320  0.7343 -2.0119
14968TIP3   OH266394   1.359   6.700   2.322 -0.0693  0.1431 -0.3458
14968TIP3    H166395   1.358   6.732   2.412  0.2700 -2.9360  0.8907
14968TIP3    H266396   1.280   6.646   2.315 -0.1429  0.4000 -1.9411
14969TIP3   OH266397   1.374   2.002   3.354 -0.3191 -0.5362 -0.4643
14969TIP3    H166398   1.373   1.929   3.416  0.5730  0.4075  0.6941
14969TIP3    H266399   1.405   1.962   3.272 -3.0231 -2.1320 -0.8314
14970TIP3   OH266400   5.520   1.216   2.414  0.6858  0.3779  0.3173
14970TIP3    H166401   5.490   1.241   2.326  0.5182  2.0753  0.8173
14970TIP3    H266402   5.457   1.149   2.442 -1.4531  2.3403  0.4944
14971TIP3   OH266403   0.548   3.230   0.396 -0.1106 -0.6126  0.1993
14971TIP3    H166404   0.503   3.216   0.312  0.0533 -0.3413  0.0637
14971TIP3    H266405   0.640   3.213   0.377  0.0049 -0.0027  0.1843
14972TIP3   OH266406   2.664   1.387   5.036 -0.5062 -0.1206 -0.2515
14972TIP3    H166407   2.610   1.462   5.012  0.1058 -0.2378 -2.1190
14972TIP3    H266408   2.750   1.424   5.056 -0.5387 -0.2069  0.0565
14973TIP3   OH266409   2.040   5.333   1.651 -0.4440 -0.2600  0.6775
14973TIP3    H166410   2.090   5.337   1.570  1.0283  1.2939  1.5803
14973TIP3    H266411   2.074   5.257   1.697 -0.1810 -0.2548  0.4915
14974TIP3   OH266412   3.808   0.694  11.674 -0.0161 -0.2207  0.3070
14974TIP3    H166413   3.836   0.689  11.582 -1.1661  1.6717 -0.2266
14974TIP3    H266414   3.822   0.786  11.697 -0.7731 -0.4336  1.6793
14975TIP3   OH266415   1.484   4.152  11.878 -0.5622 -0.1141 -0.2560
14975TIP3    H166416   1.451   4.137  11.966 -0.2041  0.1519 -0.0740
14975TIP3    H266417   1.553   4.218  11.889  1.7223 -2.3507 -0.2658
14976TIP3   OH266418   4.553   1.105   1.384  0.4907 -0.1818  0.2572
14976TIP3    H166419   4.546   1.043   1.457  0.5756 -0.8104 -0.2559
14976TIP3    H266420   4.572   1.050   1.309 -0.2916  0.3874 -0.3711
14977TIP3   OH266421   1.074   0.465   4.322  0.4053 -0.3071  0.5893
14977TIP3    H166422   1.022   0.544   4.309  1.1209  0.2615  1.0811
14977TIP3    H266423   1.013   0.393   4.305 -0.5059  0.3344  1.0182
14978TIP3   OH266424   3.181   5.307   5.442 -0.5351 -0.5343  0.5858
14978TIP3    H166425   3.216   5.350   5.520 -0.2320 -0.2891  0.3173
14978TIP3    H266426   3.205   5.215   5.453 -0.2971 -0.4632  0.6770
14979TIP3   OH266427   0.173   3.247  17.197 -0.3602 -0.5648  0.0378
14979TIP3    H166428   0.178   3.215  17.287  1.4045 -0.1222  0.1238
14979TIP3    H266429   0.159   3.168  17.144  0.0283 -0.9968  0.5729
14980TIP3   OH266430   2.762   1.413  16.439 -0.0501  0.0959 -0.1754
14980TIP3    H166431   2.804   1.375  16.362 -0.9674 -2.5507  0.5333
14980TIP3    H266432   2.833   1.421  16.503  0.0063 -1.5251  0.0081
14981TIP3   OH266433   6.632   1.467   0.002  0.7648  0.3619  0.2352
14981TIP3    H166434   6.720   1.467  -0.037  0.5458  0.2903 -0.2768
14981TIP3    H266435   6.574   1.463  -0.074  0.3435 -1.6377  0.6237
14982TIP3   OH266436   1.025   3.976   5.181 -0.4130 -0.0037 -0.2653
14982TIP3    H166437   1.015   3.886   5.151 -2.6721 -0.6228  1.9919
14982TIP3    H266438   1.073   3.968   5.263 -1.4477  0.7271  0.4286
14983TIP3   OH266439   2.356   6.089  16.009 -0.1034 -0.1927  0.1808
14983TIP3    H166440   2.364   6.004  16.054  0.5403  0.5475  1.5400
14983TIP3    H266441   2.344   6.152  16.080  1.5823  1.1061 -0.6119
14984TIP3   OH266442   4.289   1.591  11.746  0.4136 -0.0709  0.1264
14984TIP3    H166443   4.307   1.617  11.836 -1.3829 -1.1678  0.8305
14984TIP3    H266444   4.334   1.507  11.736  0.6881  0.0930 -0.0552
14985TIP3   OH266445   2.446   3.712  14.354  0.2052 -0.1011  0.0404
14985TIP3    H166446   2.386   3.676  14.289 -1.2496  0.3685  1.0734
14985TIP3    H266447   2.512   3.644  14.366  0.6611 -0.1032 -2.0576
14986TIP3   OH266448   4.981   4.233   4.132  0.3294  0.7245 -0.4449
14986TIP3    H166449   4.935   4.313   4.159  0.6573  0.3231  1.4766
14986TIP3    H266450   5.051   4.264   4.074 -1.0675  1.5453 -1.7377
14987TIP3   OH266451   6.539   3.665  15.358 -0.4337 -0.0536  0.1271
14987TIP3    H166452   6.495   3.640  15.277  1.3829 -4.2436  0.1561
14987TIP3    H266453   6.604   3.731  15.331 -1.1465  0.0469 -1.4275
14988TIP3   OH266454   2.327   6.476  12.249 -0.0122 -0.2801 -0.1470
14988TIP3    H166455   2.241   6.475  12.291  0.0564 -0.5936 -0.0163
14988TIP3    H266456   2.385   6.432  12.311  0.4206  0.6601  0.1421
14989TIP3   OH266457   5.502   0.546  10.793  0.4909 -0.1530  0.6375
14989TIP3    H166458   5.515   0.453  10.813  1.4605  0.1367  1.4274
14989TIP3    H266459   5.526   0.592  10.873  2.5402  0.9465 -0.5323
14990TIP3   OH266460   4.801   2.744  15.944 -0.1508  0.1283  0.7022
14990TIP3    H166461   4.721   2.790  15.971 -0.8954 -0.4658 -0.4552
14990TIP3    H266462   4.773   2.654  15.928  0.2412  0.4209 -1.9768
14991TIP3   OH266463   1.120   6.710  10.775 -0.1272  0.1474  0.0999
14991TIP3    H166464   1.208   6.686  10.801  0.0173  0.2414 -0.2996
14991TIP3    H266465   1.097   6.649  10.705 -0.0239  0.7029 -0.4341
14992TIP3   OH266466   4.216   3.649  11.488  0.7939  0.0111  0.3780
14992TIP3    H166467   4.132   3.688  11.512 -0.3788 -1.8946 -0.3911
14992TIP3    H266468   4.274   3.672  11.560 -0.2152  1.8068  0.6866
14993TIP3   OH266469   5.204   3.569  15.917  0.1998  0.0640 -0.6386
14993TIP3    H166470   5.257   3.490  15.931 -2.6442 -1.4793  2.6180
14993TIP3    H266471   5.197   3.610  16.003 -2.2824  1.2549 -1.3140
14994TIP3   OH266472   6.245   5.109   0.105  0.0077  0.0148  0.2295
14994TIP3    H166473   6.262   5.105   0.011 -3.4190 -2.2417 -0.4957
14994TIP3    H266474   6.171   5.169   0.113 -1.1487 -1.4637  1.1331
14995TIP3   OH266475   3.626   1.265  14.774 -0.5023 -0.1945  0.1416
14995TIP3    H166476   3.682   1.342  14.777 -1.8666  0.8271  2.5606
14995TIP3    H266477   3.583   1.262  14.860 -0.9485 -3.3540 -0.0414
14996TIP3   OH266478   4.477   4.602   5.194  0.2795  0.1639 -0.3863
14996TIP3    H166479   4.424   4.540   5.243 -1.6767  0.2636 -2.2345
14996TIP3    H266480   4.481   4.680   5.249 -1.7727  0.2410 -0.2622
14997TIP3   OH266481   2.533   1.541  15.978 -0.5210 -0.1089 -0.0862
14997TIP3    H166482   2.604   1.515  16.037 -0.6383 -1.1133 -0.3823
14997TIP3    H266483   2.465   1.475  15.990 -0.9915  0.2775 -0.5519
14998TIP3   OH266484   5.508   6.502  15.239 -0.1994  0.3026  0.1753
14998TIP3    H166485   5.513   6.549  15.322  2.0923  1.6119 -0.5894
14998TIP3    H266486   5.590   6.453  15.234  1.1279  2.5218 -2.4859
14999TIP3   OH266487   6.501   3.757   5.605 -1.0364 -0.2423 -0.2065
14999TIP3    H166488   6.427   3.699   5.586 -0.8835 -0.3628 -0.4421
14999TIP3    H266489   6.570   3.698   5.637 -1.4679  0.0130  1.2658
15000TIP3   OH266490   2.645   1.357   0.106 -0.1682 -0.4998  0.3300
15000TIP3    H166491   2.740   1.358   0.109 -0.0412 -3.0536 -0.7263
15000TIP3    H266492   2.620   1.277   0.152 -1.7099 -0.6473 -0.6939
15001TIP3   OH266493   4.932   4.750  12.903 -0.4919  0.2148 -0.0340
15001TIP3    H166494   4.842   4.762  12.871 -0.0406 -0.6436 -1.7353
15001TIP3    H266495   4.922   4.695  12.980 -1.3472 -1.4426 -1.2540
15002TIP3   OH266496   1.473   5.619  11.989  0.3076 -0.4459 -0.6739
15002TIP3    H166497   1.458   5.711  11.966  1.4009 -0.1280 -0.1603
15002TIP3    H266498   1.543   5.591  11.930 -0.5129 -1.1900 -1.3352
15003TIP3   OH266499   0.510   0.804   4.060  0.0258  0.0885  0.3130
15003TIP3    H166500   0.513   0.869   3.990 -2.0699  1.2930  1.2392
15003TIP3    H266501   0.570   0.736   4.032  1.2287  1.7505 -1.3945
15004TIP3   OH266502   5.630   0.270   4.241  0.3259  0.0584 -0.1468
15004TIP3    H166503   5.561   0.218   4.199 -0.3324  1.1857 -0.4908
15004TIP3    H266504   5.710   0.242   4.197 -0.2699  0.7654 -1.7836
15005TIP3   OH266505   0.350   2.986   2.491  0.0133  0.1516  0.2828
15005TIP3    H166506   0.299   2.908   2.473  0.6897 -0.2965  0.2539
15005TIP3    H266507   0.441   2.955   2.493  0.4356  1.1652 -1.1799
15006TIP3   OH266508   1.170   4.056   2.295  0.4067  0.0437 -0.7146
15006TIP3    H166509   1.118   4.124   2.252  1.8797  0.1172 -2.4853
15006TIP3    H266510   1.230   4.104   2.352  1.6512  0.3129 -2.1896
15007TIP3   OH266511   6.314   0.598  16.365 -0.2376  0.9900 -0.1657
15007TIP3    H166512   6.394   0.586  16.416 -0.2230  2.2985  0.1576
15007TIP3    H266513   6.261   0.659  16.418 -1.4694  0.1282 -0.3504
15008TIP3   OH266514   4.748   0.913   4.481 -0.1846  0.0443  0.1711
15008TIP3    H166515   4.759   0.976   4.410  1.9089 -0.8359 -0.3549
15008TIP3    H266516   4.809   0.941   4.549 -0.1899 -0.6535  0.4774
15009TIP3   OH266517   1.215   5.692   1.251 -0.0290 -0.0512 -0.0860
15009TIP3    H166518   1.212   5.731   1.339  0.3448  0.3835 -0.2658
15009TIP3    H266519   1.293   5.637   1.253  0.3135  0.4209 -0.3369
15010TIP3   OH266520   3.985   0.112  11.535  0.1414 -0.0487  0.3461
15010TIP3    H166521   4.023   0.029  11.565  1.0375 -0.1126 -0.8644
15010TIP3    H266522   3.917   0.086  11.474 -0.3137  0.1059  0.7813
15011TIP3   OH266523   6.231   5.311  16.443  0.0053  0.5317  0.1107
15011TIP3    H166524   6.224   5.222  16.478  1.1098  0.3897 -0.0132
15011TIP3    H266525   6.283   5.359  16.507 -0.5305  1.0787  0.1429
15012TIP3   OH266526   0.345   0.417   0.691  0.0823  0.2307 -0.3193
15012TIP3    H166527   0.320   0.473   0.617  0.6018  0.5614 -0.2519
15012TIP3    H266528   0.382   0.478   0.755  0.1087 -0.1194  0.0014
15013TIP3   OH266529   0.536   5.529   2.439 -0.1896  0.0982  0.1119
15013TIP3    H166530   0.519   5.451   2.387 -0.0566 -0.3283  0.7038
15013TIP3    H266531   0.602   5.577   2.389  0.6544 -0.7855  0.3698
15014TIP3   OH266532   3.009   0.870  15.395  0.5875  0.2961  0.7542
15014TIP3    H166533   2.984   0.813  15.323 -0.2895  0.5603  0.8486
15014TIP3    H266534   2.951   0.946  15.389 -1.0105 -0.6127  2.9588
15015TIP3   OH266535   1.892   0.887   5.562 -0.7124 -0.1413 -0.3210
15015TIP3    H166536   1.869   0.976   5.534  0.1595 -0.3435 -1.7317
15015TIP3    H266537   1.936   0.899   5.646 -0.2099  0.8152 -0.7069
15016TIP3   OH266538   2.085   6.530   1.685 -0.6326 -0.3875 -0.2179
15016TIP3    H166539   2.029   6.601   1.717 -0.1837  0.9211 -2.1548
15016TIP3    H266540   2.173   6.554   1.715 -0.8784 -1.9737  2.0465
15017TIP3   OH266541   2.177   4.739   4.467 -0.2909  0.0875 -0.4532
15017TIP3    H166542   2.157   4.828   4.497 -0.0407 -0.2061  0.6238
15017TIP3    H266543   2.092   4.694   4.466  0.0677 -1.0940  3.8940
15018TIP3   OH266544   0.331   5.235  17.034 -0.4005 -0.1965 -0.2714
15018TIP3    H166545   0.322   5.170  17.103  0.4196 -0.6229 -0.5510
15018TIP3    H266546   0.303   5.318  17.074 -1.6332 -0.7486  0.0292
15019TIP3   OH266547   6.655   5.978   4.725 -0.0015 -0.0153  0.2063
15019TIP3    H166548   6.570   5.973   4.768  1.0110 -2.5020  2.1632
15019TIP3    H266549   6.706   6.038   4.778 -0.3736  1.2157 -0.7778
15020TIP3   OH266550   1.403   0.511  15.363 -0.8134 -0.1432  0.0048
15020TIP3    H166551   1.310   0.534  15.356 -0.4943  1.5094  0.6326
15020TIP3    H266552   1.406   0.417  15.346 -2.4108  0.0344 -1.5178
15021TIP3   OH266553   6.158   2.630   0.804  0.6989  0.1556  0.8278
15021TIP3    H166554   6.183   2.552   0.852 -0.5013 -0.7266  0.0905
15021TIP3    H266555   6.234   2.651   0.749  0.5615 -1.3328  0.0089
15022TIP3   OH266556   6.307   4.289  13.926 -0.3596  0.4297 -0.4766
15022TIP3    H166557   6.270   4.303  14.014 -0.8585  0.6871 -0.7247
15022TIP3    H266558   6.365   4.363  13.912  2.4142 -1.2763  0.9964
15023TIP3   OH266559   1.863   1.433   4.747 -0.1621  0.3386  0.0210
15023TIP3    H166560   1.916   1.503   4.784  1.1435 -0.5480 -0.1026
15023TIP3    H266561   1.773   1.459   4.764  0.3372  1.3284  1.2823
15024TIP3   OH266562   4.134   2.542  12.883 -0.1462 -0.6222 -0.3408
15024TIP3    H166563   4.082   2.609  12.839  0.1525 -1.2282 -1.6509
15024TIP3    H266564   4.223   2.553  12.849 -0.2147 -2.0645 -1.0614
15025TIP3   OH266565   2.220   6.078  12.584  0.3691  0.1075  0.4820
15025TIP3    H166566   2.315   6.064  12.589  0.5309  0.9986  0.0931
15025TIP3    H266567   2.183   5.990  12.577  1.3586 -0.1876 -2.4778
15026TIP3   OH266568   1.315   6.639   5.289  0.3705  0.2446 -0.0915
15026TIP3    H166569   1.287   6.713   5.344 -0.4878 -0.3193  0.2430
15026TIP3    H266570   1.390   6.603   5.336  1.3977  1.4616 -0.7377
15027TIP3   OH266571   2.547   6.381   3.592 -0.3948  0.0995 -0.4160
15027TIP3    H166572   2.511   6.458   3.548 -0.1711  1.6145  1.8849
15027TIP3    H266573   2.635   6.372   3.554 -0.2621  1.2439 -0.4246
15028TIP3   OH266574   0.599   2.577  12.265 -0.0970  0.0134 -0.5634
15028TIP3    H166575   0.601   2.654  12.207  3.0307 -0.5298 -1.3694
15028TIP3    H266576   0.653   2.603  12.340 -0.1379 -0.9309 -0.1992
15029TIP3   OH266577   5.065   0.806  11.029  0.6342 -0.4338  0.2839
15029TIP3    H166578   5.154   0.773  11.037  1.2989  1.0225 -0.7542
15029TIP3    H266579   5.069   0.873  10.960 -0.7400  1.3692  1.8265
15030TIP3   OH266580   3.005   0.276  15.435  0.2546 -0.6631 -0.7277
15030TIP3    H166581   3.007   0.369  15.458 -1.6748 -0.5073 -0.9931
15030TIP3    H266582   2.984   0.275  15.341 -2.6111 -1.3220 -0.1658
15031TIP3   OH266583   5.661   3.114  12.643  0.6815 -0.5968 -0.5274
15031TIP3    H166584   5.609   3.183  12.684  0.8886 -0.7490  0.0017
15031TIP3    H266585   5.709   3.073  12.715  1.6483 -0.3752 -1.0174
15032TIP3   OH266586   4.788   2.073  13.621 -0.9102 -0.0213  0.1732
15032TIP3    H166587   4.694   2.058  13.609 -0.6261 -1.4163 -0.4445
15032TIP3    H266588   4.817   2.004  13.679 -0.1524  0.0372 -0.1194
15033TIP3   OH266589   1.727   1.404   5.901  0.2526 -0.3918  0.1864
15033TIP3    H166590   1.695   1.462   5.832 -0.9489 -3.7875 -2.3596
15033TIP3    H266591   1.664   1.414   5.972 -0.5464  0.5692 -0.6275
15034TIP3   OH266592   5.655   5.537   2.010 -0.1352  0.3896  0.0196
15034TIP3    H166593   5.567   5.570   1.991  0.3467  2.1055  0.5743
15034TIP3    H266594   5.645   5.442   2.009 -1.8235  0.5233 -0.7035
15035TIP3   OH266595   2.687   0.515  12.170  0.0474 -0.6806 -0.0676
15035TIP3    H166596   2.682   0.599  12.125 -2.4711 -1.0732 -0.6664
15035TIP3    H266597   2.684   0.537  12.263 -1.1063 -0.1237 -0.2268
15036TIP3   OH266598   2.568   2.529  14.289  0.5907 -0.6032 -0.2245
15036TIP3    H166599   2.595   2.444  14.323  0.4646 -0.5057  0.1212
15036TIP3    H266600   2.633   2.590  14.323  1.4048 -0.7245 -1.4767
15037TIP3   OH266601   1.419   6.013  17.136 -0.5406 -0.2323  0.0470
15037TIP3    H166602   1.479   5.938  17.132  0.1137  0.2249  1.0104
15037TIP3    H266603   1.417   6.047  17.047 -0.8008 -1.3514 -0.3944
15038TIP3   OH266604   3.657   2.005   3.231  0.1538  0.2391  0.6812
15038TIP3    H166605   3.575   2.014   3.281 -1.0412  2.3251 -1.4660
15038TIP3    H266606   3.665   1.910   3.216 -2.6480  0.0264 -0.1366
15039TIP3   OH266607   0.381   4.855   3.164  0.2680 -0.0226 -0.4008
15039TIP3    H166608   0.325   4.877   3.239 -0.4840  1.0522 -1.2425
15039TIP3    H266609   0.329   4.881   3.088  0.5427 -2.1261 -1.3693
15040TIP3   OH266610   3.460   6.547  12.471 -0.2302  0.3115  0.4807
15040TIP3    H166611   3.512   6.550  12.552  2.4416  3.5557 -1.1023
15040TIP3    H266612   3.378   6.590  12.493 -0.9111 -1.6279  2.1198
15041TIP3   OH266613   2.426   3.297   1.228  0.1568  0.3546  0.0455
15041TIP3    H166614   2.451   3.275   1.138 -1.6747  3.1512 -1.2814
15041TIP3    H266615   2.356   3.362   1.219 -2.4913 -1.6762  3.5249
15042TIP3   OH266616   0.728   1.018   1.112  0.8483 -0.3103  0.5714
15042TIP3    H166617   0.771   1.066   1.041  0.4065 -2.0591 -0.9542
15042TIP3    H266618   0.642   1.060   1.120  0.2673 -1.1116 -1.0950
15043TIP3   OH266619   3.975   0.482  15.073 -0.2719 -0.0438 -0.1750
15043TIP3    H166620   3.910   0.458  15.006  0.5811 -0.3473 -0.9196
15043TIP3    H266621   4.058   0.488  15.025  0.0725  1.4564  0.5534
15044TIP3   OH266622   6.830   5.785  15.252  0.1741 -0.2546  0.4695
15044TIP3    H166623   6.751   5.784  15.306  0.4080  1.5326  0.8977
15044TIP3    H266624   6.800   5.821  15.168  0.2500 -0.9732  0.1275
15045TIP3   OH266625   3.758   3.267  15.063  0.2457  0.0916 -0.6246
15045TIP3    H166626   3.725   3.236  15.147  3.9749 -0.4669  0.8402
15045TIP3    H266627   3.758   3.190  15.007 -1.2151  0.2137 -0.8306
15046TIP3   OH266628   3.285   6.749  11.999 -1.0011 -0.0003 -0.1827
15046TIP3    H166629   3.224   6.762  11.926 -0.8018 -0.5858 -0.4609
15046TIP3    H266630   3.229   6.747  12.077 -1.2110  0.6744 -0.3090
15047TIP3   OH266631   3.524   5.218   4.052 -0.2581  0.3627 -0.0792
15047TIP3    H166632   3.503   5.188   4.140 -0.7889  0.4861 -0.1602
15047TIP3    H266633   3.545   5.311   4.062 -1.3117  0.6333 -0.2166
15048TIP3   OH266634   1.658   6.109  15.378 -0.3246  0.1698 -0.2659
15048TIP3    H166635   1.603   6.168  15.430 -0.0279  0.1201  0.1115
15048TIP3    H266636   1.719   6.071  15.442 -0.6451 -0.7103 -0.4615
15049TIP3   OH266637   0.455   2.115  13.839 -0.3725  0.4359 -0.3332
15049TIP3    H166638   0.432   2.075  13.923  1.9454  2.2364  1.2875
15049TIP3    H266639   0.485   2.042  13.785 -0.4448 -0.5809  0.9566
15050TIP3   OH266640   6.107   2.082  16.731 -0.1177 -0.5454 -0.2935
15050TIP3    H166641   6.127   2.128  16.813  1.3019 -0.2247 -0.7822
15050TIP3    H266642   6.037   2.021  16.754  0.2802 -0.4944  1.1765
15051TIP3   OH266643   2.273   0.872  13.138  0.4752  0.0282  0.3752
15051TIP3    H166644   2.255   0.831  13.053 -2.0070 -0.5635  1.0984
15051TIP3    H266645   2.339   0.938  13.119 -0.5659  0.4602 -2.1897
15052TIP3   OH266646   1.652   2.399   6.262 -0.6352  0.5138  0.0863
15052TIP3    H166647   1.673   2.366   6.349  2.2763 -0.8515 -1.0052
15052TIP3    H266648   1.638   2.321   6.208  1.4475  1.1270 -1.4669
15053TIP3   OH266649   0.595   1.739  15.833 -0.1929 -0.0238 -0.0652
15053TIP3    H166650   0.612   1.660  15.884 -1.6995  0.2399  0.9221
15053TIP3    H266651   0.624   1.717  15.744  1.7139 -0.7857  0.6935
15054TIP3   OH266652   0.923   3.981   5.800  0.0466 -0.4138 -0.0373
15054TIP3    H166653   0.858   4.050   5.787 -0.6856 -1.0018  0.4014
15054TIP3    H266654   0.878   3.916   5.854  0.7430 -1.2007 -0.3877
15055TIP3   OH266655   3.800   5.069   0.399  0.1904 -0.7061  0.2854
15055TIP3    H166656   3.760   4.982   0.398 -0.2672 -0.4989 -0.6244
15055TIP3    H266657   3.819   5.086   0.491 -1.3226 -1.0474  0.6782
15056TIP3   OH266658   2.970   1.646   0.195  0.1653  0.4987 -0.0056
15056TIP3    H166659   2.949   1.731   0.156  1.4601  1.2297  0.8515
15056TIP3    H266660   3.014   1.598   0.125  1.1380  1.2495  0.0784
15057TIP3   OH266661   5.551   4.675   2.878  0.1052  0.0176 -0.1164
15057TIP3    H166662   5.592   4.696   2.795  0.4267 -0.4348 -0.0777
15057TIP3    H266663   5.622   4.678   2.942 -0.4189  1.9955  0.4496
15058TIP3   OH266664   6.028   0.377   1.950  0.0597 -0.7506  0.5187
15058TIP3    H166665   6.021   0.367   1.855  2.2975 -0.8751  0.3052
15058TIP3    H266666   5.938   0.373   1.982 -0.6733 -1.5252 -1.5073
15059TIP3   OH266667   4.016   6.448   5.731 -0.0623 -0.5181 -0.3616
15059TIP3    H166668   4.020   6.383   5.801  0.5312 -1.0769 -0.8933
15059TIP3    H266669   4.108   6.473   5.716 -0.3806  1.8111  1.0611
15060TIP3   OH266670   0.040   1.360  16.694 -0.4308 -0.3260 -0.0312
15060TIP3    H166671   0.085   1.294  16.641 -0.6333 -0.4315 -0.0736
15060TIP3    H266672   0.063   1.339  16.784 -0.8700 -0.7393 -0.0151
15061TIP3   OH266673   4.898   3.579  12.054 -0.5129 -0.0279 -0.3540
15061TIP3    H166674   4.804   3.572  12.042 -0.4493 -2.0032 -0.0304
15061TIP3    H266675   4.935   3.518  11.990  0.2613 -2.8000  2.4359
15062TIP3   OH266676   5.154   5.804  11.339 -0.2128 -0.5754 -0.2559
15062TIP3    H166677   5.077   5.860  11.346  0.7520  0.6153  2.3543
15062TIP3    H266678   5.191   5.825  11.253 -1.2616  0.9332 -0.3837
15063TIP3   OH266679   4.902   2.182  13.078  0.1589  0.6744  0.1190
15063TIP3    H166680   4.957   2.223  13.011  1.2527 -1.6923 -0.5599
15063TIP3    H266681   4.963   2.131  13.131 -1.0721  0.1292  1.0673
15064TIP3   OH266682   0.581   1.231   2.118 -0.2077  0.1463 -0.3328
15064TIP3    H166683   0.496   1.272   2.101 -0.5187  0.1000  0.9991
15064TIP3    H266684   0.603   1.259   2.207 -0.3839 -2.4812  0.6037
15065TIP3   OH266685   3.449   5.018  11.713 -0.3422 -0.1591 -0.1953
15065TIP3    H166686   3.442   5.036  11.807  2.5314 -0.4070  0.1574
15065TIP3    H266687   3.465   4.924  11.708  2.6328  0.2584 -0.5803
15066TIP3   OH266688   0.730   1.371   5.689  0.3451  0.2544 -0.3609
15066TIP3    H166689   0.711   1.434   5.758  1.0138 -0.3150  0.3735
15066TIP3    H266690   0.764   1.294   5.735 -0.9173 -0.8543 -1.1807
15067TIP3   OH266691   2.247   3.768   0.024 -0.7927  0.1589  0.5842
15067TIP3    H166692   2.189   3.771  -0.053 -1.1531 -0.5972  0.8080
15067TIP3    H266693   2.189   3.745   0.096 -0.3698  0.3651  0.9935
15068TIP3   OH266694   3.126   2.167   0.520 -0.0613  0.3048 -0.7471
15068TIP3    H166695   3.173   2.113   0.457 -0.0146 -0.5428 -0.0031
15068TIP3    H266696   3.034   2.140   0.510  0.0944 -0.7180  0.3749
15069TIP3   OH266697   6.360   2.199   4.769 -0.4382 -0.1646  0.4504
15069TIP3    H166698   6.421   2.259   4.813  1.5122 -1.9309  0.2868
15069TIP3    H266699   6.397   2.112   4.784 -2.9633 -1.3387  0.3278
15070TIP3   OH266700   4.028   3.202  15.126 -0.2395 -0.8675  0.3540
15070TIP3    H166701   3.950   3.240  15.085  0.3179  0.4581  0.4700
15070TIP3    H266702   4.073   3.157  15.054 -0.9271 -1.3632  0.2206
15071TIP3   OH266703   4.293   2.587   5.953 -0.5059  0.2464  0.1511
15071TIP3    H166704   4.329   2.647   6.019 -0.6710 -1.4542  1.8678
15071TIP3    H266705   4.209   2.627   5.929 -0.8662  0.4696  1.6578
15072TIP3   OH266706   3.267   4.537  14.282  0.5489  0.3416 -0.0893
15072TIP3    H166707   3.283   4.537  14.187 -3.0596 -0.1022 -0.8598
15072TIP3    H266708   3.238   4.448  14.301 -1.6040  1.1656  0.7864
15073TIP3   OH266709   3.422   0.018  13.665 -0.3635  0.2512  0.2032
15073TIP3    H166710   3.450  -0.008  13.578 -1.0727  3.1237 -0.9965
15073TIP3    H266711   3.497  -0.001  13.721  1.8184  2.2650 -1.8420
15074TIP3   OH266712   2.552   5.928   3.053 -0.4808  0.3191 -0.2717
15074TIP3    H166713   2.575   5.927   2.960 -0.7603  0.7609 -0.3498
15074TIP3    H266714   2.636   5.920   3.099 -0.3995 -0.5965 -0.5583
15075TIP3   OH266715   5.031   1.390  15.844 -0.4353  0.9759 -0.6171
15075TIP3    H166716   4.941   1.393  15.813 -0.4826  0.2875 -0.5767
15075TIP3    H266717   5.084   1.379  15.764 -0.4570  0.5022 -0.5686
15076TIP3   OH266718   2.262   4.249  14.610  0.0886 -0.4732  0.3993
15076TIP3    H166719   2.215   4.165  14.607 -2.5073  0.8527 -2.8616
15076TIP3    H266720   2.317   4.248  14.531  0.4876  0.6607  0.6473
15077TIP3   OH266721   5.115   1.753   2.974 -0.1071 -0.3033 -0.6835
15077TIP3    H166722   5.088   1.823   3.033  0.7610 -1.1868  0.8189
15077TIP3    H266723   5.176   1.795   2.914  3.4015 -0.3605  2.4775
15078TIP3   OH266724   6.066   0.009  13.993  0.3069 -0.1563  0.2709
15078TIP3    H166725   6.155   0.041  14.009  0.8508 -2.1061  1.4530
15078TIP3    H266726   6.070  -0.084  14.013 -1.6873 -0.5715 -1.0285
15079TIP3   OH266727   2.790   3.992   1.315 -0.3611 -0.2871  0.2216
15079TIP3    H166728   2.725   3.981   1.246 -0.6650 -0.4181  0.5252
15079TIP3    H266729   2.794   3.906   1.357 -0.8780  0.0524  0.9799
15080TIP3   OH266730   6.390   3.177   5.916 -0.5520  0.4741  0.6529
15080TIP3    H166731   6.379   3.097   5.966 -1.9833 -2.5097 -3.8172
15080TIP3    H266732   6.482   3.176   5.888 -0.9211 -0.4565 -0.5754
15081TIP3   OH266733   1.328   6.388  16.945 -0.2998 -0.4705  0.2297
15081TIP3    H166734   1.333   6.298  16.913 -2.6534 -0.6316  0.1342
15081TIP3    H266735   1.391   6.436  16.891 -2.3696 -1.1861 -3.0722
15082TIP3   OH266736   5.016   6.768   2.289  0.2824  0.3820  0.0275
15082TIP3    H166737   5.046   6.771   2.198  0.6426 -0.4127  0.1149
15082TIP3    H266738   5.095   6.749   2.340  0.2860  1.8869  0.6237
15083TIP3   OH266739   1.774   5.956   1.906 -0.0790  0.6177  0.3358
15083TIP3    H166740   1.786   5.861   1.902  1.8538  0.8276  0.4561
15083TIP3    H266741   1.726   5.970   1.988 -0.0366 -0.2206  0.5132
15084TIP3   OH266742   6.479   5.647  16.079 -0.6719  0.0923 -0.2746
15084TIP3    H166743   6.386   5.627  16.069 -0.4184 -0.7353 -1.1966
15084TIP3    H266744   6.515   5.636  15.991  0.0380  1.9580 -0.2577
15085TIP3   OH266745   6.288   2.436   5.570 -0.1481  0.1124 -0.4215
15085TIP3    H166746   6.261   2.376   5.640 -2.9643  1.6825 -0.0193
15085TIP3    H266747   6.382   2.444   5.582 -0.1131 -1.8035  1.4424
15086TIP3   OH266748   5.413   1.040   3.491 -0.0604 -0.0134 -0.0215
15086TIP3    H166749   5.328   1.016   3.528 -0.1006  2.1115  1.4437
15086TIP3    H266750   5.477   1.004   3.553  0.1611 -1.3703 -0.9788
15087TIP3   OH266751   6.787   3.564  11.064  0.1406  0.5678  0.0089
15087TIP3    H166752   6.719   3.504  11.095  0.2258  0.6324  0.3237
15087TIP3    H266753   6.783   3.638  11.124 -0.5075  1.2597 -0.8576
15088TIP3   OH266754   1.460   3.152  16.807  0.0281  0.4055 -0.2236
15088TIP3    H166755   1.530   3.109  16.856 -0.9603  2.2355  3.0667
15088TIP3    H266756   1.506   3.216  16.752  1.1171 -1.2325 -1.3441
15089TIP3   OH266757   5.685   1.444   6.097 -0.4558  0.1740 -0.1271
15089TIP3    H166758   5.759   1.485   6.142  0.8295 -0.7098 -1.3370
15089TIP3    H266759   5.633   1.518   6.066 -1.6759  0.8227  3.0958
15090TIP3   OH266760   5.715   4.805   5.427  0.1709  0.4955  0.0431
15090TIP3    H166761   5.718   4.893   5.389  2.0771  0.2002 -0.5805
15090TIP3    H266762   5.761   4.750   5.363  0.4222 -0.6587  1.1788
15091TIP3   OH266763   5.927   3.996  16.752 -0.1143  0.3427  0.2752
15091TIP3    H166764   5.888   3.921  16.707 -3.0425  2.7032 -1.5126
15091TIP3    H266765   5.997   4.026  16.694  2.1334 -1.7232  1.7222
15092TIP3   OH266766   1.528   6.003  14.010 -0.6495 -0.1911  0.4642
15092TIP3    H166767   1.552   6.072  13.948  0.1285  0.8313  1.8183
15092TIP3    H266768   1.495   5.931  13.956  1.4087  0.0479 -1.2486
15093TIP3   OH266769   0.360   5.919   6.305  0.5652  0.4511  0.3807
15093TIP3    H166770   0.292   5.853   6.292  1.0973 -0.1555  0.6016
15093TIP3    H266771   0.344   5.983   6.236 -0.5182  0.5742  0.7265
15094TIP3   OH266772   5.027   5.548  14.328 -0.3273  0.5714 -0.3207
15094TIP3    H166773   5.019   5.627  14.381 -0.2728 -0.2710  0.9898
15094TIP3    H266774   4.965   5.561  14.257 -2.2001  0.7160  1.2602
15095TIP3   OH266775   2.882   6.130  15.106  0.3600  0.8573 -0.1283
15095TIP3    H166776   2.966   6.085  15.102  0.2837  0.7451 -0.5054
15095TIP3    H266777   2.829   6.089  15.038 -0.6349 -0.3210  1.2768
15096TIP3   OH266778   0.351   1.026  14.149 -0.2019 -0.7729 -0.1117
15096TIP3    H166779   0.395   1.109  14.164  0.2759 -0.2156 -3.6625
15096TIP3    H266780   0.274   1.028  14.206  1.3062  0.7558  2.0028
15097TIP3   OH266781   6.790   1.979  15.937 -0.2888 -0.4596  0.3574
15097TIP3    H166782   6.784   2.021  15.850 -1.8258 -1.1994  0.0808
15097TIP3    H266783   6.770   2.050  15.998 -1.1269 -0.3687 -0.0072
15098TIP3   OH266784   5.233   5.952   0.789  0.5012  0.5035 -0.4715
15098TIP3    H166785   5.208   5.860   0.798 -2.0945  1.1234 -0.4073
15098TIP3    H266786   5.192   5.980   0.707 -1.1005  2.2307  0.8333
15099TIP3   OH266787   5.363   4.377  14.246 -0.2911  0.1864  0.3939
15099TIP3    H166788   5.308   4.422  14.311  0.3418 -0.5100  1.4358
15099TIP3    H266789   5.450   4.374  14.285  0.2231  0.1614 -0.6997
15100TIP3   OH266790   0.165   5.000   2.816 -0.1051  0.1160 -0.1182
15100TIP3    H166791   0.133   5.015   2.905 -0.1612  1.3591 -0.3322
15100TIP3    H266792   0.231   4.931   2.825  1.3393  1.6072  1.1932
15101TIP3   OH266793   5.788   6.781  15.904 -0.3709 -0.1433  0.1885
15101TIP3    H166794   5.832   6.862  15.927  0.0994  0.2887 -2.0635
15101TIP3    H266795   5.711   6.809  15.854 -1.3833 -1.0306  1.1824
15102TIP3   OH266796   0.096   1.318   1.866  0.3247 -0.3185 -0.1867
15102TIP3    H166797   0.073   1.349   1.778  1.0616 -0.4577 -0.4414
15102TIP3    H266798   0.015   1.281   1.900 -0.0984  0.1992 -0.6063
15103TIP3   OH266799   5.037   0.822  16.531  0.2687  0.0594  0.4745
15103TIP3    H166800   5.100   0.782  16.592  0.9304  1.7217  0.9657
15103TIP3    H266801   5.091   0.875  16.473 -0.5992  0.6884  0.2242
15104TIP3   OH266802   6.057   4.281  12.038 -0.1726  0.2526 -0.5485
15104TIP3    H166803   6.110   4.203  12.053  0.9552  1.2039  0.7309
15104TIP3    H266804   6.038   4.280  11.944 -0.7744 -1.8879 -0.4526
15105TIP3   OH266805   4.649   4.647   5.500 -0.1145 -0.2203 -0.1193
15105TIP3    H166806   4.610   4.728   5.467  0.4130 -0.6346 -1.8817
15105TIP3    H266807   4.594   4.577   5.463 -1.9836 -0.7328  3.2111
15106TIP3   OH266808   2.002   6.334  11.627 -0.0058  0.0022  0.5444
15106TIP3    H166809   1.967   6.403  11.571 -1.9871 -0.6026  0.9637
15106TIP3    H266810   2.030   6.265  11.566 -0.6474  0.0061  0.2451
15107TIP3   OH266811   4.964   6.108   3.221  0.1620  0.1418  0.3640
15107TIP3    H166812   4.912   6.065   3.154  1.3375 -1.3521  0.3739
15107TIP3    H266813   4.900   6.135   3.287 -0.6630 -1.3374  0.2098
15108TIP3   OH266814   1.670   5.303   3.314 -0.4438  0.2811 -0.4888
15108TIP3    H166815   1.691   5.394   3.290 -0.7915  0.0850 -1.6036
15108TIP3    H266816   1.592   5.309   3.369 -1.0822  0.5948 -1.4150
15109TIP3   OH266817   3.114   3.502  13.608 -0.5170 -0.5851  0.2753
15109TIP3    H166818   3.152   3.534  13.526 -1.1624  2.9941  1.1872
15109TIP3    H266819   3.188   3.499  13.669 -0.3804 -1.3207  0.0801
15110TIP3   OH266820   5.678   4.687  14.327 -0.6976  0.2079  0.2806
15110TIP3    H166821   5.752   4.627  14.315 -1.2268 -0.1459 -1.5833
15110TIP3    H266822   5.717   4.767  14.364  0.2175 -0.7823  1.5450
15111TIP3   OH266823   5.655   1.675  12.994 -0.6935 -0.2146  0.5906
15111TIP3    H166824   5.680   1.583  13.003 -0.2744 -0.2277 -0.6132
15111TIP3    H266825   5.597   1.691  13.069 -1.8038 -1.7959  0.1233
15112TIP3   OH266826   3.789   3.971  13.484  0.4564 -0.3388 -0.4746
15112TIP3    H166827   3.873   3.937  13.455  0.7255 -0.0200 -0.0685
15112TIP3    H266828   3.773   4.048  13.428  1.4978  0.9424  0.9167
15113TIP3   OH266829   4.302   3.843  14.400  0.0919  0.5477 -0.3442
15113TIP3    H166830   4.326   3.835  14.493  1.5341 -0.8229 -0.7833
15113TIP3    H266831   4.266   3.757  14.378 -0.3029  0.8899 -1.0327
15114TIP3   OH266832   1.762   5.847   1.470 -0.2459 -0.0001  0.0313
15114TIP3    H166833   1.729   5.772   1.520 -1.8747  1.5067  1.3087
15114TIP3    H266834   1.739   5.923   1.522  2.6380  1.3845 -0.5061
15115TIP3   OH266835   3.863   3.896  16.457  0.1263 -0.1036  0.4749
15115TIP3    H166836   3.819   3.812  16.473  0.2508 -0.1539  0.5617
15115TIP3    H266837   3.801   3.962  16.489 -1.2288  0.0425 -2.1479
15116TIP3   OH266838   1.411   3.661  13.400  0.8375  0.0902  0.0521
15116TIP3    H166839   1.437   3.593  13.463  1.1097  0.4911  0.3760
15116TIP3    H266840   1.481   3.661  13.335 -0.4602 -1.7940 -1.4549
15117TIP3   OH266841   5.987   4.349  13.649  0.2584 -0.6152  0.0399
15117TIP3    H166842   6.054   4.368  13.583 -1.3084  3.4644 -0.6366
15117TIP3    H266843   5.915   4.308  13.599 -0.6751  1.9061 -0.8163
15118TIP3   OH266844   0.865   1.497   2.605 -0.1929 -0.3029 -0.3920
15118TIP3    H166845   0.900   1.413   2.575  0.6341 -0.3760  0.7402
15118TIP3    H266846   0.862   1.551   2.526 -0.0356 -1.1507 -0.9924
15119TIP3   OH266847   6.157   6.438   5.468  0.1537  0.5840 -0.3446
15119TIP3    H166848   6.081   6.384   5.488  0.9747 -0.0689  1.1715
15119TIP3    H266849   6.169   6.492   5.547  1.8253 -0.0245 -0.1452
15120TIP3   OH266850   3.751   0.336   2.227 -0.4761  0.0262  0.0818
15120TIP3    H166851   3.670   0.339   2.277  1.4528  0.4131  3.4495
15120TIP3    H266852   3.784   0.247   2.237 -0.2713 -0.0340 -0.9592
15121TIP3   OH266853   4.153   3.593  14.415 -0.0595  0.6117 -0.1690
15121TIP3    H166854   4.237   3.548  14.423 -0.5973 -0.1109  2.5091
15121TIP3    H266855   4.108   3.574  14.497 -2.3697  1.9777 -1.0215
15122TIP3   OH266856   3.818   4.029   5.143 -0.8945  0.3630 -0.6187
15122TIP3    H166857   3.791   4.061   5.056 -0.0682  1.0995 -0.6120
15122TIP3    H266858   3.784   4.095   5.204  0.6503  1.1797 -0.5908
15123TIP3   OH266859   3.257   1.066   4.724  0.7353  0.2210 -0.7990
15123TIP3    H166860   3.288   1.089   4.812 -0.8373  1.7279 -0.5868
15123TIP3    H266861   3.162   1.059   4.733  0.7288 -2.3450 -1.8333
15124TIP3   OH266862   0.238   5.843  11.202  0.5285  0.7109 -0.1405
15124TIP3    H166863   0.259   5.833  11.109  1.4634  3.4802 -0.2976
15124TIP3    H266864   0.170   5.778  11.217 -0.0437  0.5313 -2.9022
15125TIP3   OH266865   0.669   2.278   2.569  0.6976  0.4386  0.7010
15125TIP3    H166866   0.701   2.363   2.541  3.4929  0.6184  3.7867
15125TIP3    H266867   0.581   2.295   2.604  0.8451  1.8506  0.4126
15126TIP3   OH266868   1.164   2.260   4.720  0.5845 -0.1369  0.2369
15126TIP3    H166869   1.117   2.225   4.796 -0.5365 -0.7674 -0.7081
15126TIP3    H266870   1.106   2.329   4.686  0.8079 -0.2436 -0.3694
15127TIP3   OH266871   3.303   0.797   0.334 -0.2797  0.3594 -0.3544
15127TIP3    H166872   3.362   0.850   0.387  0.3639  0.2445 -0.9431
15127TIP3    H266873   3.360   0.734   0.290 -0.5935  1.3095 -2.2562
15128TIP3   OH266874   3.654   6.265   3.685  0.0354  0.4450  0.2584
15128TIP3    H166875   3.584   6.239   3.746  1.6736 -2.4381  1.1018
15128TIP3    H266876   3.651   6.200   3.615  1.7310  0.3577  0.2228
15129TIP3   OH266877   6.732   5.306   5.728  0.1272 -0.6117  0.5965
15129TIP3    H166878   6.734   5.308   5.823 -1.6252  1.5301  0.6675
15129TIP3    H266879   6.737   5.398   5.702  1.7218 -1.2064 -1.4539
15130TIP3   OH266880   3.569   0.969   3.446  0.1435 -0.0788 -0.4101
15130TIP3    H166881   3.614   1.009   3.520  0.9551 -1.9715  0.1964
15130TIP3    H266882   3.520   1.040   3.406  1.3510  1.4383  0.6855
15131TIP3   OH266883   2.791   4.923   0.673 -0.2655 -0.3404  1.0614
15131TIP3    H166884   2.736   4.995   0.705 -1.9281 -0.4586 -1.2426
15131TIP3    H266885   2.880   4.948   0.697 -0.9871  1.5888  1.9285
15132TIP3   OH266886   4.037   5.304   3.658  0.2617 -0.3102  0.5093
15132TIP3    H166887   4.105   5.364   3.688  0.6566  0.2380 -1.4060
15132TIP3    H266888   4.018   5.330   3.568 -1.5181 -1.3275  0.5260
15133TIP3   OH266889   3.637   0.757  14.997 -0.7525  0.0750  0.4131
15133TIP3    H166890   3.610   0.669  14.972 -1.3613  0.3181  0.2017
15133TIP3    H266891   3.607   0.813  14.925 -1.4783  0.6192  1.1252
15134TIP3   OH266892   6.104   1.608   4.651 -0.0170  0.0712 -0.0439
15134TIP3    H166893   6.103   1.515   4.626  0.1611 -0.4085  1.6040
15134TIP3    H266894   6.178   1.645   4.603  1.9493 -1.4052  1.6859
15135TIP3   OH266895   4.208   4.913   4.654 -0.1757  0.1810 -0.4582
15135TIP3    H166896   4.275   4.930   4.588  1.0714  2.6588  1.2653
15135TIP3    H266897   4.254   4.865   4.723 -0.5648  0.5280  0.0513
15136TIP3   OH266898   2.396   1.459   2.344 -0.7095  0.5592 -0.1998
15136TIP3    H166899   2.322   1.469   2.404 -2.5408  0.6888 -2.3237
15136TIP3    H266900   2.370   1.388   2.285  2.0090 -1.1458  0.4505
15137TIP3   OH266901   4.121   5.406   2.955 -0.3564  0.6272 -0.5866
15137TIP3    H166902   4.174   5.338   2.996 -1.2770  0.0140 -0.3862
15137TIP3    H266903   4.178   5.443   2.887  0.4965  0.3305 -0.0541
15138TIP3   OH266904   5.353   0.843  14.912 -0.0305 -0.0741 -0.1918
15138TIP3    H166905   5.437   0.884  14.892 -0.7362  0.5123 -2.2673
15138TIP3    H266906   5.325   0.883  14.994  2.0035 -0.8290  0.9561
15139TIP3   OH266907   6.192   2.196   0.080  0.2224  0.4040  0.5711
15139TIP3    H166908   6.236   2.271   0.041 -0.0158  0.8930  1.2152
15139TIP3    H266909   6.257   2.127   0.080 -0.0103  0.1310 -1.4146
15140TIP3   OH266910   3.371   0.784   4.417 -0.0009  0.7731  0.3509
15140TIP3    H166911   3.340   0.869   4.385 -1.3451 -0.1865 -1.0055
15140TIP3    H266912   3.304   0.755   4.478 -0.0738  0.2118  0.0061
15141TIP3   OH266913   1.496   6.064   5.895 -0.2666  0.5031 -0.0670
15141TIP3    H166914   1.424   6.027   5.947 -0.9798  2.2904  0.3020
15141TIP3    H266915   1.455   6.092   5.813  0.1587  0.8548 -0.1624
15142TIP3   OH266916   5.233   6.553   3.879  0.3403 -0.2508  0.2698
15142TIP3    H166917   5.264   6.580   3.793 -1.2813  1.1501  0.0709
15142TIP3    H266918   5.155   6.501   3.861 -1.7568  2.4520  0.8600
15143TIP3   OH266919   4.613   4.861  13.650 -0.2336 -0.4441 -0.0077
15143TIP3    H166920   4.705   4.869  13.675  0.1411 -1.4624 -0.9997
15143TIP3    H266921   4.593   4.768  13.657 -0.4884 -0.5965 -2.0609
15144TIP3   OH266922   4.423   2.759   4.925 -0.1564  0.0240 -0.6011
15144TIP3    H166923   4.480   2.700   4.976  0.3393  0.3518 -0.7652
15144TIP3    H266924   4.344   2.708   4.910  0.4226 -0.7661 -1.0833
15145TIP3   OH266925   1.833   3.709   2.821  0.1754  0.1347  0.1323
15145TIP3    H166926   1.823   3.633   2.879 -0.2127 -0.2189 -0.3936
15145TIP3    H266927   1.797   3.680   2.738  1.8552  0.2150 -0.6667
15146TIP3   OH266928   6.019   0.824  11.374  0.2232 -0.5149 -0.2322
15146TIP3    H166929   5.977   0.780  11.449  1.2071  0.0757  0.6908
15146TIP3    H266930   5.972   0.906  11.366  0.4056 -0.3812  0.0369
15147TIP3   OH266931   5.349   6.066  14.572 -0.4869 -0.3843  0.2515
15147TIP3    H166932   5.363   5.975  14.595  0.5302 -0.2597  0.1584
15147TIP3    H266933   5.354   6.069  14.477  0.4187 -0.1015  0.2937
15148TIP3   OH266934   2.940   0.157  11.245 -0.1112  0.1804  0.1243
15148TIP3    H166935   3.007   0.089  11.239 -0.8458 -0.4593 -1.1296
15148TIP3    H266936   2.890   0.134  11.324  1.1411  0.7030  1.1171
15149TIP3   OH266937   4.380   2.544  13.920  0.0702 -0.0998  0.1816
15149TIP3    H166938   4.299   2.580  13.955 -0.4418 -1.3557  0.3460
15149TIP3    H266939   4.440   2.543  13.995 -0.1831 -0.3679  0.3826
15150TIP3   OH266940   3.744   0.032   4.497  0.4780  0.0933  0.1620
15150TIP3    H166941   3.683   0.020   4.424  0.8242 -0.3480 -0.0560
15150TIP3    H266942   3.817  -0.027   4.478  0.1191 -0.7688  1.3611
15151TIP3   OH266943   4.614   5.336   0.413 -0.6708 -0.1265 -0.8174
15151TIP3    H166944   4.618   5.305   0.323 -0.7941  0.2022 -0.9395
15151TIP3    H266945   4.634   5.430   0.407 -1.2464  0.0151 -0.5717
15152TIP3   OH266946   4.904   2.055  11.151 -0.4549  0.5192  0.1657
15152TIP3    H166947   4.898   2.142  11.190  2.0031 -0.0064  1.9501
15152TIP3    H266948   4.883   2.068  11.059  0.3579  3.1046  0.2837
15153TIP3   OH266949   0.722   2.863   2.834  0.0252 -0.1628 -0.5383
15153TIP3    H166950   0.780   2.907   2.772 -0.9219 -0.9334 -2.0490
15153TIP3    H266951   0.678   2.796   2.781 -1.9472  0.1410  0.6275
15154TIP3   OH266952   0.682   4.843  15.103  0.2269 -0.7431 -0.4706
15154TIP3    H166953   0.659   4.900  15.177 -4.3975 -1.4192 -1.1107
15154TIP3    H266954   0.689   4.755  15.142  0.9224 -0.6698 -0.4196
15155TIP3   OH266955   2.980   2.990   4.600 -0.4444  0.0701  0.2331
15155TIP3    H166956   2.953   3.071   4.642 -0.1644 -0.3351  1.2159
15155TIP3    H266957   2.931   2.921   4.645 -1.1794 -0.2650 -1.0267
15156TIP3   OH266958   2.851   3.391  11.725 -0.1673  0.5072  0.0671
15156TIP3    H166959   2.851   3.484  11.701  1.0270  1.3469  2.8530
15156TIP3    H266960   2.830   3.345  11.644  2.6266  2.9939 -2.3202
15157TIP3   OH266961   1.819   5.877   4.922  0.0743  0.6507 -0.3302
15157TIP3    H166962   1.846   5.825   4.997  1.3303  0.5610 -0.8205
15157TIP3    H266963   1.764   5.818   4.870 -1.3968  0.9406  0.8553
15158TIP3   OH266964   6.241   4.298   5.929 -0.0483  0.4620  0.3529
15158TIP3    H166965   6.205   4.363   5.989 -0.5779  0.1705  0.3592
15158TIP3    H266966   6.308   4.253   5.979 -0.7580 -0.0448  0.8606
15159TIP3   OH266967   3.329   5.911  15.426 -0.1512 -0.1187 -0.4163
15159TIP3    H166968   3.234   5.913  15.428 -0.2575 -0.5037 -2.7594
15159TIP3    H266969   3.355   5.993  15.383  0.5118 -0.5033 -0.7721
15160TIP3   OH266970   0.236   6.074   4.550  0.4697 -0.1421  0.4095
15160TIP3    H166971   0.218   6.119   4.632 -2.3263 -2.6230  1.3265
15160TIP3    H266972   0.157   6.086   4.498 -0.1005 -3.1584  0.4052
15161TIP3   OH266973   0.625   6.668   5.570  0.6177 -0.2605 -0.1229
15161TIP3    H166974   0.608   6.662   5.664 -0.2565  0.0273 -0.2551
15161TIP3    H266975   0.692   6.737   5.563  1.8340 -1.3453  0.3921
15162TIP3   OH266976   4.249   4.642   4.163 -0.0096  0.1977  0.4880
15162TIP3    H166977   4.213   4.594   4.089 -0.2076  0.4376  0.4273
15162TIP3    H266978   4.305   4.709   4.123 -0.5074  0.6457  0.5377
15163TIP3   OH266979   4.801   4.233   3.758  0.0808  0.1242  0.2051
15163TIP3    H166980   4.713   4.199   3.748  0.0531 -0.0803  1.0251
15163TIP3    H266981   4.845   4.214   3.675 -0.8794  0.9554 -0.5169
15164TIP3   OH266982   2.652   6.538  15.095  1.0009  0.1618  0.2574
15164TIP3    H166983   2.684   6.466  15.150 -0.8044 -1.4386 -0.6748
15164TIP3    H266984   2.620   6.604  15.157  0.4841 -0.8957  1.1396
15165TIP3   OH266985   1.713   1.303   1.800 -0.3288  0.0917  0.2423
15165TIP3    H166986   1.709   1.226   1.855  0.9265  0.6499  1.1638
15165TIP3    H266987   1.776   1.281   1.732  0.4948  0.4906  0.8557
15166TIP3   OH266988   5.169   1.026  11.751 -0.2340 -0.5917  0.3612
15166TIP3    H166989   5.079   1.056  11.739 -0.2523 -0.7767 -0.0037
15166TIP3    H266990   5.162   0.931  11.751  0.2537 -0.7457 -2.6079
15167TIP3   OH266991   0.396   5.831   1.316  0.2716  0.4862  0.0709
15167TIP3    H166992   0.384   5.767   1.386  2.9896  1.7548  1.8918
15167TIP3    H266993   0.465   5.795   1.261  1.6266  1.5853  0.9536
15168TIP3   OH266994   2.222   5.751  17.004 -0.2721  0.3069  0.2041
15168TIP3    H166995   2.180   5.754  17.090 -0.1991 -1.1041  0.3116
15168TIP3    H266996   2.208   5.662  16.973  2.5086 -0.2190  0.1935
15169TIP3   OH266997   4.124   2.200   0.824  0.5675 -0.2455 -0.1371
15169TIP3    H166998   4.074   2.236   0.751 -0.4153 -0.8961  0.1997
15169TIP3    H266999   4.120   2.105   0.811 -0.4944 -0.4269  1.2931
15170TIP3   OH267000   0.498   0.130  13.108 -1.1188 -0.3359  0.3789
15170TIP3    H167001   0.551   0.147  13.030 -0.6380  1.6023  1.0775
15170TIP3    H267002   0.559   0.095  13.172 -1.1277 -0.1569  0.4860
15171TIP3   OH267003   4.068   4.916  14.250 -0.4791  0.2340 -0.6343
15171TIP3    H167004   4.049   4.879  14.335  1.6064  1.1624  0.3117
15171TIP3    H267005   4.037   5.007  14.256 -1.7785 -0.1265 -1.4652
15172TIP3   OH267006   4.145   2.961  15.314  0.3341 -0.2741 -0.7991
15172TIP3    H167007   4.160   3.043  15.266  1.1171  0.0525 -0.0200
15172TIP3    H267008   4.061   2.975  15.358 -0.6597 -0.7801 -2.4430
15173TIP3   OH267009   5.254   5.599   5.732 -0.0050 -0.4626  0.0223
15173TIP3    H167010   5.166   5.564   5.742 -1.1663  2.2902  0.1976
15173TIP3    H267011   5.291   5.550   5.659 -1.4478 -2.0409  0.2829
15174TIP3   OH267012   4.408   2.798   2.356 -0.4533 -0.0521  0.2943
15174TIP3    H167013   4.316   2.809   2.332 -0.2928 -0.1181 -0.3767
15174TIP3    H267014   4.457   2.831   2.280  0.0577 -2.5097 -0.5217
15175TIP3   OH267015   2.611   0.021  12.008  0.6150 -0.4462  0.1926
15175TIP3    H167016   2.602   0.084  12.079  0.1279 -0.2104 -0.0709
15175TIP3    H267017   2.560  -0.055  12.036 -1.9035  0.6398 -1.0139
15176TIP3   OH267018   3.110   4.987  13.055  0.2104  0.2738  0.2115
15176TIP3    H167019   3.154   5.060  13.098  0.4767 -0.3272  0.9885
15176TIP3    H267020   3.141   4.909  13.101  0.6621 -0.4206 -1.2022
15177TIP3   OH267021   3.835   3.696  12.219 -0.2123  0.4225 -0.4059
15177TIP3    H167022   3.899   3.676  12.151 -0.4937  2.8900 -1.5159
15177TIP3    H267023   3.761   3.638  12.201 -0.7983  1.8413 -3.0899
15178TIP3   OH267024   6.670   2.685   4.672 -0.1268  0.1829 -0.2574
15178TIP3    H167025   6.757   2.646   4.677  0.6132  1.8516  0.6260
15178TIP3    H267026   6.659   2.731   4.755 -0.9589  1.7816 -1.1963
15179TIP3   OH267027   6.180   2.641  17.177  0.5582  0.6536 -0.6432
15179TIP3    H167028   6.092   2.617  17.149  0.0927  1.1690  0.3546
15179TIP3    H267029   6.199   2.582  17.250 -0.4469  2.9135  1.5832
15180TIP3   OH267030   5.380   2.816   1.501 -0.0949 -0.0322 -0.0730
15180TIP3    H167031   5.411   2.904   1.479 -1.2100  0.8377  1.6503
15180TIP3    H267032   5.368   2.773   1.416  0.6401  1.3965 -0.9414
15181TIP3   OH267033   2.733   3.626  10.551  0.4952  0.2807  0.5370
15181TIP3    H167034   2.637   3.633  10.559  0.3581 -0.1173 -0.5263
15181TIP3    H267035   2.767   3.699  10.602 -0.3950  0.6592  0.6085
15182TIP3   OH267036   2.096   2.691  11.101 -0.3352  0.4924 -0.2708
15182TIP3    H167037   2.045   2.679  11.021  0.0419 -0.6532 -0.3596
15182TIP3    H267038   2.186   2.705  11.071 -0.4645  1.8482 -0.0905
15183TIP3   OH267039   1.973   6.002   4.701 -0.9263  0.7936 -0.4741
15183TIP3    H167040   1.939   5.933   4.759 -0.0920  0.4255 -0.4186
15183TIP3    H267041   1.922   5.992   4.621 -2.2419  1.4377  0.2453
15184TIP3   OH267042   1.193   3.731  12.464 -0.5095  0.0919  0.0644
15184TIP3    H167043   1.126   3.664  12.480  0.5529 -1.1722 -0.5912
15184TIP3    H267044   1.189   3.747  12.370 -0.6247  0.8515  0.1865
15185TIP3   OH267045   2.624   4.577   4.843  0.6026  0.1024 -0.0627
15185TIP3    H167046   2.638   4.604   4.934  1.2597 -2.3213  0.6410
15185TIP3    H267047   2.699   4.612   4.796 -0.8802  3.3897 -0.2656
15186TIP3   OH267048   0.104   5.258  10.955  0.0964 -0.1142  0.7955
15186TIP3    H167049   0.097   5.331  11.017 -2.4822  0.0327  0.4399
15186TIP3    H267050   0.119   5.300  10.871 -1.7830  0.0972  0.5274
15187TIP3   OH267051   4.720   1.162   5.165  0.5468  0.3770 -0.2388
15187TIP3    H167052   4.813   1.150   5.144  0.4600  0.3855 -0.6388
15187TIP3    H267053   4.710   1.125   5.252  0.6363 -0.9026 -0.7571
15188TIP3   OH267054   5.990   4.742  15.665 -0.2951 -0.3267 -0.1214
15188TIP3    H167055   6.012   4.655  15.630  0.5038 -0.9651  1.8651
15188TIP3    H267056   6.066   4.768  15.715  0.1820  2.3607 -2.0478
15189TIP3   OH267057   4.193   1.732  12.277 -0.6742  0.5111 -0.2018
15189TIP3    H167058   4.106   1.761  12.250 -0.6437 -0.0276 -0.8854
15189TIP3    H267059   4.177   1.657  12.334 -0.6087 -1.0209 -2.1101
15190TIP3   OH267060   1.956   4.891  15.686  0.3193  0.2932 -0.4028
15190TIP3    H167061   1.996   4.813  15.649 -1.4115 -0.7108 -0.2537
15190TIP3    H267062   1.909   4.931  15.612  1.6239  1.5236 -0.6082
15191TIP3   OH267063   3.778   3.401   3.403  0.6160 -0.1795  0.0430
15191TIP3    H167064   3.690   3.404   3.440  1.3646  0.4016  1.9493
15191TIP3    H267065   3.829   3.460   3.459  2.4030 -1.1714 -0.4536
15192TIP3   OH267066   0.389   1.744   0.704  0.0295  0.5582  0.3912
15192TIP3    H167067   0.407   1.652   0.689 -0.5700  0.1779  1.8838
15192TIP3    H267068   0.294   1.753   0.696  0.2332  1.4448 -1.6631
15193TIP3   OH267069   6.172   6.158  16.235  0.8781 -0.6708 -0.0135
15193TIP3    H167070   6.090   6.196  16.203  2.2704  3.4641  0.7028
15193TIP3    H267071   6.148   6.113  16.316 -0.6264  1.1890  0.6433
15194TIP3   OH267072   0.847   2.910  14.407 -0.1677 -0.1947 -0.1757
15194TIP3    H167073   0.781   2.889  14.341  1.2410  1.7862 -2.4398
15194TIP3    H267074   0.923   2.858  14.382 -0.2208 -0.9656  1.1926
15195TIP3   OH267075   6.075   1.567   4.942 -0.2971  0.2778  0.2223
15195TIP3    H167076   6.072   1.546   4.849  1.2524 -0.6243  0.3490
15195TIP3    H267077   6.108   1.488   4.984 -0.0722  0.9836  1.4386
15196TIP3   OH267078   1.167   2.533   4.355  0.1177 -0.2963  0.0501
15196TIP3    H167079   1.193   2.623   4.336 -0.3653  0.3788  2.3793
15196TIP3    H267080   1.249   2.488   4.375  0.2509 -0.1255 -0.1049
15197TIP3   OH267081   3.941   5.169   4.007  0.3447  0.5309  0.3164
15197TIP3    H167082   3.919   5.076   4.007 -1.4032  0.8471  2.5630
15197TIP3    H267083   3.885   5.208   3.940 -0.0384  0.1690  0.4236
15198TIP3   OH267084   5.978   5.739   3.661 -0.3442  0.2915  0.4163
15198TIP3    H167085   5.903   5.736   3.720 -0.7186 -2.0368 -0.0569
15198TIP3    H267086   6.048   5.696   3.709  0.6709  2.2495  0.7657
15199TIP3   OH267087   1.685   1.269   4.957  0.2632 -0.0436  0.0658
15199TIP3    H167088   1.697   1.339   4.893 -1.6237  0.0761 -0.2401
15199TIP3    H267089   1.645   1.313   5.032  0.4145 -0.5549  0.4498
15200TIP3   OH267090   3.627   3.650   1.734  0.4837  0.6319 -0.5408
15200TIP3    H167091   3.557   3.613   1.786  0.7258 -0.5010 -0.9889
15200TIP3    H267092   3.615   3.611   1.647  1.0299  1.2506 -0.9018
15201TIP3   OH267093   2.180   0.601   3.485 -0.6869  0.7736  0.2990
15201TIP3    H167094   2.198   0.587   3.578  4.9927  1.8738 -0.2828
15201TIP3    H267095   2.179   0.513   3.447 -0.1807  0.4350  1.0610
15202TIP3   OH267096   6.148   6.841  14.761 -1.0570 -0.1668 -0.3058
15202TIP3    H167097   6.139   6.904  14.689  0.3029 -0.7343 -1.0076
15202TIP3    H267098   6.153   6.895  14.840 -3.2044  0.4475 -0.5138
15203TIP3   OH267099   6.744   1.604  12.335  0.0132  0.4556 -0.3015
15203TIP3    H167100   6.712   1.694  12.346 -0.5668  0.4297 -1.6555
15203TIP3    H267101   6.672   1.557  12.295  0.7950 -0.2848 -0.8832
15204TIP3   OH267102   4.371   3.712   5.804  0.2716  0.1961  0.0513
15204TIP3    H167103   4.351   3.665   5.885 -0.8312 -0.8896 -0.8013
15204TIP3    H267104   4.285   3.724   5.762  0.8440  0.5188 -1.0539
15205TIP3   OH267105   2.630   4.159   0.359  0.1575  0.3354  0.4835
15205TIP3    H167106   2.648   4.065   0.364  0.9226  0.5471  2.3627
15205TIP3    H267107   2.706   4.195   0.314 -0.5239 -0.0052 -1.0139
15206TIP3   OH267108   5.618   2.982  11.119 -0.3870 -0.0512  0.1871
15206TIP3    H167109   5.649   3.055  11.172 -0.1846  0.1424 -0.1921
15206TIP3    H267110   5.667   2.989  11.037 -0.9514 -0.1340 -0.1647
15207TIP3   OH267111   1.118   3.648  13.433 -0.6641 -0.2787 -0.7202
15207TIP3    H167112   1.207   3.644  13.399 -0.1992 -0.4967  0.4397
15207TIP3    H267113   1.126   3.615  13.523 -2.0903 -1.2783 -0.9278
15208TIP3   OH267114   6.576   0.296  16.398 -0.2535  0.0796 -0.0936
15208TIP3    H167115   6.524   0.317  16.476 -0.4932 -1.9864  0.3548
15208TIP3    H267116   6.524   0.230  16.351 -1.0814  2.6316 -3.1182
15209TIP3   OH267117   5.925   3.675  16.213 -0.1610 -0.4282 -0.6460
15209TIP3    H167118   5.950   3.584  16.229 -0.2941 -0.2453  0.7476
15209TIP3    H267119   5.845   3.669  16.161  0.0876 -1.0969 -0.9536
15210TIP3   OH267120   0.638   6.832  15.556 -0.1404 -0.0908  0.6625
15210TIP3    H167121   0.623   6.799  15.644  0.2017 -1.2836  0.2955
15210TIP3    H267122   0.623   6.756  15.499  0.4926  0.4362 -0.2337
15211TIP3   OH267123   5.698   2.635  11.724 -0.5814 -0.4005  0.1495
15211TIP3    H167124   5.654   2.551  11.708  0.5166 -0.8259 -0.7608
15211TIP3    H267125   5.754   2.618  11.799  0.7111 -0.9358 -0.8912
15212TIP3   OH267126   0.644   0.484  16.111  0.2828 -0.2379  0.2735
15212TIP3    H167127   0.656   0.405  16.058  1.6549  0.3082 -0.2655
15212TIP3    H267128   0.633   0.554  16.047  0.9420  0.2793  0.7095
15213TIP3   OH267129   2.644   1.853  15.044  0.3276  1.0149 -0.0370
15213TIP3    H167130   2.564   1.905  15.050  0.3433  0.9976  0.3713
15213TIP3    H267131   2.617   1.764  15.069  0.6583  1.2078  1.0572
15214TIP3   OH267132   1.739   6.218   4.684  0.1073  0.1495 -0.5274
15214TIP3    H167133   1.819   6.239   4.636 -0.3771  1.6600 -0.7186
15214TIP3    H267134   1.716   6.130   4.654  2.1935 -0.7205  0.2632
15215TIP3   OH267135   1.224   0.327  10.580 -0.2469  0.1214 -0.1029
15215TIP3    H167136   1.269   0.244  10.597  1.0794  0.5528 -1.3904
15215TIP3    H267137   1.285   0.378  10.527 -1.7583  1.2322 -0.8464
15216TIP3   OH267138   4.133   1.939   6.207 -0.2467  0.3169  0.0020
15216TIP3    H167139   4.065   1.979   6.262 -0.3062  1.2606 -0.7352
15216TIP3    H267140   4.109   1.847   6.202  0.4685 -0.0844  2.6166
15217TIP3   OH267141   2.225   6.831  13.665 -0.1438  0.6715 -0.0278
15217TIP3    H167142   2.233   6.859  13.756  1.4898  0.5391 -0.1154
15217TIP3    H267143   2.188   6.743  13.671  1.7137 -0.1136  0.6400
15218TIP3   OH267144   2.356   2.622   6.675  0.4842  0.7061  0.7819
15218TIP3    H167145   2.262   2.605   6.680  0.7790 -0.9225  1.7121
15218TIP3    H267146   2.386   2.568   6.602  0.7303  0.9804  0.6798
15219TIP3   OH267147   4.179   1.088   5.945  0.0381  0.1307  0.0397
15219TIP3    H167148   4.137   1.040   6.017  1.1281 -1.3956 -0.2899
15219TIP3    H267149   4.135   1.055   5.866  0.9230 -0.4845 -0.2042
15220TIP3   OH267150   5.764   5.285   5.188  0.3601 -0.4484  0.3481
15220TIP3    H167151   5.687   5.275   5.132 -0.4086 -0.5745  1.3823
15220TIP3    H267152   5.817   5.350   5.144 -0.4161 -0.2431 -0.3200
15221TIP3   OH267153   4.764   1.010  15.234 -0.2068 -0.2269  0.1039
15221TIP3    H167154   4.816   0.939  15.197  0.1378  1.6039 -3.3868
15221TIP3    H267155   4.827   1.062  15.285  0.5733 -0.1161 -0.9302
15222TIP3   OH267156   0.803   1.366  13.104 -0.1554  0.5599 -0.3543
15222TIP3    H167157   0.811   1.328  13.191  1.0472  0.7543 -0.3717
15222TIP3    H267158   0.865   1.439  13.103 -1.5026  1.7525 -0.7507
15223TIP3   OH267159   0.714   2.409   4.693 -0.5421 -0.2761  0.2752
15223TIP3    H167160   0.619   2.415   4.708 -0.3190  0.5046  1.5080
15223TIP3    H267161   0.726   2.322   4.653 -1.6854 -0.7233  0.8425
15224TIP3   OH267162   5.754   0.878   2.194 -0.3277  0.7401 -0.4055
15224TIP3    H167163   5.745   0.782   2.194  2.3673  0.3499 -2.4279
15224TIP3    H267164   5.682   0.909   2.139 -0.1755 -0.3515 -1.2649
15225TIP3   OH267165   3.534   3.769   4.682  0.0542 -0.5732  0.0505
15225TIP3    H167166   3.548   3.855   4.721 -0.5647 -0.6622  0.4788
15225TIP3    H267167   3.465   3.729   4.735 -1.1424 -0.5135 -1.3889
15226TIP3   OH267168   5.958   2.389   0.337  0.3224  0.1994  0.1895
15226TIP3    H167169   5.909   2.468   0.316 -1.7022 -0.8876  0.6034
15226TIP3    H267170   6.008   2.413   0.416 -1.6577  0.5673  1.3992
15227TIP3   OH267171   0.551   6.367  16.204  0.2954  0.1083 -0.0613
15227TIP3    H167172   0.555   6.342  16.297 -1.8721 -0.3881 -0.0393
15227TIP3    H267173   0.486   6.436  16.201  1.3473  1.0886 -1.0686
15228TIP3   OH267174   3.685   4.605  12.847  0.3564 -0.4071  0.3983
15228TIP3    H167175   3.774   4.570  12.850  1.0117  1.2108  1.7763
15228TIP3    H267176   3.684   4.662  12.770 -0.1627 -1.9882 -0.8087
15229TIP3   OH267177   4.635   2.226   1.659  0.3791 -0.6268 -0.4056
15229TIP3    H167178   4.701   2.158   1.675  0.4830 -0.5878 -0.6662
15229TIP3    H267179   4.637   2.280   1.738  0.2756 -0.9413 -0.1812
15230TIP3   OH267180   1.312   1.985   0.240  0.0852  0.5099  0.0627
15230TIP3    H167181   1.392   2.007   0.192  0.5477 -0.0161  0.5797
15230TIP3    H267182   1.343   1.953   0.325 -0.6665  0.1343  0.2014
15231TIP3   OH267183   0.549   0.577   0.349  0.0754 -0.0636 -0.2530
15231TIP3    H167184   0.551   0.505   0.412 -0.9389 -0.6236 -0.8220
15231TIP3    H267185   0.638   0.583   0.315  0.3893 -0.4189  0.4958
15232TIP3   OH267186   6.094   5.657  10.495 -0.0299  0.6946  0.4028
15232TIP3    H167187   6.070   5.565  10.508  0.6400  0.3726 -0.5486
15232TIP3    H267188   6.108   5.690  10.584  1.4099 -0.5875  0.6961
15233TIP3   OH267189   6.717   1.164  13.480 -0.3541  0.0345  0.1358
15233TIP3    H167190   6.637   1.215  13.491  0.2769  0.9243  0.7183
15233TIP3    H267191   6.770   1.216  13.419 -0.2607 -0.6067 -0.3371
15234TIP3   OH267192   3.906   6.252   4.960  0.3475 -0.0888  0.8097
15234TIP3    H167193   3.875   6.190   5.026  0.4385 -0.0488  0.8894
15234TIP3    H267194   3.860   6.226   4.880  1.6673 -1.3522  0.4302
15235TIP3   OH267195   4.503   2.213  14.148  0.0266  0.4748 -0.1644
15235TIP3    H167196   4.539   2.174  14.068  1.6759  2.0162 -0.2478
15235TIP3    H267197   4.553   2.294  14.160  0.3181 -0.0076  2.7936
15236TIP3   OH267198   5.427   4.764   2.510  0.5945 -0.1943  0.3743
15236TIP3    H167199   5.511   4.733   2.545  1.9680  2.2471 -0.5255
15236TIP3    H267200   5.406   4.841   2.563 -0.9085 -0.5668  0.3444
15237TIP3   OH267201   3.367   3.702  12.781  0.0035  0.9373  0.5530
15237TIP3    H167202   3.436   3.766  12.765 -0.2722  1.0877 -0.0572
15237TIP3    H267203   3.332   3.727  12.867 -1.1679  2.6303 -0.3551
15238TIP3   OH267204   3.009   6.342   2.205  0.6613 -0.3676 -0.2742
15238TIP3    H167205   3.089   6.329   2.255  1.4992  1.2871 -1.1020
15238TIP3    H267206   2.968   6.419   2.244  0.0632 -0.5253 -0.5765
15239TIP3   OH267207   0.533   0.052   5.347  0.2106 -0.0980 -0.4218
15239TIP3    H167208   0.600   0.010   5.293  0.6507 -0.8995  0.7038
15239TIP3    H267209   0.576   0.067   5.431 -0.5773  0.7453 -0.1546
15240TIP3   OH267210   1.018   4.630  11.386  0.4573 -0.2346  0.5997
15240TIP3    H167211   1.023   4.722  11.412  1.5837 -0.5067  1.4425
15240TIP3    H267212   0.955   4.591  11.447 -0.3357  0.0397 -0.0202
15241TIP3   OH267213   4.415   6.215   5.057 -0.2792 -0.0447 -0.3470
15241TIP3    H167214   4.332   6.181   5.023 -0.1345 -0.5745 -0.1861
15241TIP3    H267215   4.452   6.142   5.107  1.1407 -0.4503 -1.8753
15242TIP3   OH267216   3.024   2.341  16.327  0.1606  0.3140 -0.2091
15242TIP3    H167217   3.028   2.246  16.312  3.2372  0.2995  0.0593
15242TIP3    H267218   3.063   2.379  16.248  0.9158  1.2078  0.5823
15243TIP3   OH267219   2.350   6.147  11.081 -0.6047  0.6539  0.6093
15243TIP3    H167220   2.267   6.181  11.048 -0.7079  0.5952  0.8088
15243TIP3    H267221   2.368   6.069  11.027 -1.1106  0.1662  1.1338
15244TIP3   OH267222   2.201   2.004  14.034 -0.0633 -0.4465  0.3224
15244TIP3    H167223   2.292   1.987  14.009  0.4910 -1.2366  2.6278
15244TIP3    H267224   2.151   1.936  13.988  1.0087 -2.4025  1.8910
15245TIP3   OH267225   2.802   5.570   3.532  0.4628  0.1303  0.8125
15245TIP3    H167226   2.869   5.508   3.559  0.5807 -0.4315 -0.6545
15245TIP3    H267227   2.773   5.538   3.446 -2.0005  0.0984  1.5637
15246TIP3   OH267228   2.850   3.193  13.807  0.5715  0.1711  0.0543
15246TIP3    H167229   2.766   3.151  13.792  1.1246 -0.6870 -0.7001
15246TIP3    H267230   2.840   3.281  13.771 -1.2377  1.5049  3.3546
15247TIP3   OH267231   1.754   0.650   2.508 -0.7913  0.0936 -0.2365
15247TIP3    H167232   1.758   0.721   2.573  1.6351  0.2813 -0.4903
15247TIP3    H267233   1.715   0.691   2.431 -0.0126  1.0148 -0.1679
15248TIP3   OH267234   2.127   5.872  14.814 -0.2849 -0.4628 -0.0042
15248TIP3    H167235   2.177   5.941  14.770 -0.2192  1.0819  2.3289
15248TIP3    H267236   2.194   5.820  14.860 -0.2835 -2.4486 -2.0466
15249TIP3   OH267237   1.322   1.120  11.495  0.4406  0.3319 -0.1732
15249TIP3    H167238   1.370   1.082  11.422  1.1216  0.1360  0.3645
15249TIP3    H267239   1.272   1.047  11.531  0.3303  0.3620 -0.2654
15250TIP3   OH267240   3.901   4.067  11.150  0.1313  0.3362 -0.0780
15250TIP3    H167241   3.866   4.033  11.068 -0.8448  1.4035 -0.1313
15250TIP3    H267242   3.990   4.032  11.155  0.0023 -0.2005 -1.3116
15251TIP3   OH267243   0.423   3.842   4.190 -0.1607 -0.1119  0.5063
15251TIP3    H167244   0.459   3.782   4.124  1.8840  1.9285 -0.3311
15251TIP3    H267245   0.330   3.817   4.196  0.7081 -3.8384  0.8237
15252TIP3   OH267246   1.421   1.179   5.373  0.0063  0.6258  0.0774
15252TIP3    H167247   1.347   1.236   5.393 -0.4225 -0.1412  0.6859
15252TIP3    H267248   1.400   1.095   5.413  1.1533  0.3539  0.1666
15253TIP3   OH267249   3.080   1.443  15.767  0.2325 -0.8699  0.2173
15253TIP3    H167250   3.045   1.418  15.852 -0.7516  1.0741  0.4539
15253TIP3    H267251   3.152   1.503  15.787  0.6068 -1.1225 -0.3268
15254TIP3   OH267252   3.226   0.535  11.896 -0.8491 -0.3539  0.4365
15254TIP3    H167253   3.148   0.548  11.950 -1.0308 -3.1244  0.9721
15254TIP3    H267254   3.294   0.507  11.957 -0.1903 -0.6389 -0.4028
15255TIP3   OH267255   3.862   4.022   1.559  0.0234  0.1809  0.0562
15255TIP3    H167256   3.776   4.026   1.600 -1.0413  2.2922 -2.1364
15255TIP3    H267257   3.851   3.960   1.486  0.9919 -1.0783  0.9175
15256TIP3   OH267258   5.768   5.705  16.587  0.0200  0.5993 -0.6097
15256TIP3    H167259   5.805   5.756  16.658 -0.4585  0.2533 -0.0996
15256TIP3    H267260   5.803   5.617  16.599 -2.1184 -0.1539  0.8486
15257TIP3   OH267261   0.720   5.332   2.936 -0.0508  0.0390  0.0554
15257TIP3    H167262   0.668   5.252   2.936  2.0881 -1.4333  0.1556
15257TIP3    H267263   0.703   5.371   2.850 -1.0698 -0.5381 -0.0239
15258TIP3   OH267264   4.899   0.337  12.577 -0.0168 -0.0740  0.3107
15258TIP3    H167265   4.958   0.335  12.502  0.2116 -2.0288  0.4970
15258TIP3    H267266   4.814   0.363  12.541  0.2915 -0.1343 -0.4612
15259TIP3   OH267267   4.168   0.100  16.863  0.0129  0.1203  0.2815
15259TIP3    H167268   4.159   0.187  16.900  0.1226 -0.8064  2.6467
15259TIP3    H267269   4.261   0.091  16.843  0.0027  0.5109  0.0397
15260TIP3   OH267270   3.851   6.090   2.438  0.2979  0.2490  0.1143
15260TIP3    H167271   3.824   6.106   2.529 -0.3192 -1.2093  0.2070
15260TIP3    H267272   3.945   6.072   2.445  0.5787  1.6224  0.2507
15261TIP3   OH267273   2.655   3.014  15.779  0.5744  0.2442 -0.5058
15261TIP3    H167274   2.645   2.922  15.757  0.7967  0.2833 -0.7662
15261TIP3    H267275   2.570   3.054  15.757  0.2027 -0.0428  0.3481
15262TIP3   OH267276   0.179   6.093   4.984 -0.5217  0.6826 -0.1761
15262TIP3    H167277   0.125   6.137   5.050 -0.8256  0.4870 -0.2918
15262TIP3    H267278   0.134   6.010   4.968 -0.2246  0.5481 -0.3277
15263TIP3   OH267279   2.050   2.778   1.138 -0.2945  0.5060 -0.6860
15263TIP3    H167280   2.145   2.788   1.135 -0.1931 -0.4905 -1.2686
15263TIP3    H267281   2.034   2.725   1.216 -0.0543 -2.0890 -2.2775
15264TIP3   OH267282   2.001   4.995   2.646  0.0556  0.6173  0.5662
15264TIP3    H167283   1.926   4.956   2.692 -0.2384  0.5430  0.0227
15264TIP3    H267284   2.078   4.954   2.687 -0.2430 -0.4982  0.0394
15265TIP3   OH267285   5.910   2.449  16.436  0.2192  0.4858 -0.3647
15265TIP3    H167286   5.994   2.494  16.449 -0.1901  1.2059 -0.1147
15265TIP3    H267287   5.871   2.494  16.361  0.7726 -0.9538 -1.5595
15266TIP3   OH267288   1.175   1.304   2.543 -0.3811 -0.6276 -0.5878
15266TIP3    H167289   1.218   1.273   2.623  0.6283 -0.9987 -1.2591
15266TIP3    H267290   1.181   1.399   2.549 -2.5283 -0.5196  0.9530
15267TIP3   OH267291   6.686   4.116  14.885  0.2869  0.2013  0.7134
15267TIP3    H167292   6.742   4.039  14.881  0.3974  0.1126  2.9626
15267TIP3    H267293   6.633   4.104  14.963 -0.0146  2.1829  0.8746
15268TIP3   OH267294   3.498   0.589   4.232 -0.9212  0.2285  0.1516
15268TIP3    H167295   3.550   0.587   4.313 -0.3100  1.0283 -0.2074
15268TIP3    H267296   3.462   0.678   4.228 -2.5127 -0.3660  0.4942
15269TIP3   OH267297   5.637   6.691  12.947  0.2008 -0.1519 -0.2506
15269TIP3    H167298   5.711   6.637  12.919  0.2049 -0.5950  0.5822
15269TIP3    H267299   5.674   6.749  13.014  0.1355  0.7003 -0.9504
15270TIP3   OH267300   4.970   3.081  13.885 -0.2035 -0.1408 -0.0519
15270TIP3    H167301   4.991   3.112  13.973  3.7267  1.2120 -1.2405
15270TIP3    H267302   4.911   3.147  13.849 -3.2867 -1.5716  1.9423
15271TIP3   OH267303   2.975   3.266  15.856  0.0912 -0.0981 -0.4071
15271TIP3    H167304   3.028   3.340  15.886  1.2161 -0.5999 -1.1010
15271TIP3    H267305   2.978   3.271  15.760  0.3570 -1.1542 -0.4688
15272TIP3   OH267306   4.349   3.607   1.802 -0.2058  0.2892 -0.1407
15272TIP3    H167307   4.375   3.515   1.807 -0.3774  0.2686  0.4085
15272TIP3    H267308   4.268   3.606   1.752  0.3909  0.2686 -1.1448
15273TIP3   OH267309   2.330   3.969   0.229 -0.6381 -0.2690 -0.5718
15273TIP3    H167310   2.280   3.926   0.160 -0.8761 -0.5799 -0.2149
15273TIP3    H267311   2.265   4.017   0.280 -0.5895 -0.7376 -0.0573
15274TIP3   OH267312   2.160   5.281   2.031  0.3305  0.5621 -0.5546
15274TIP3    H167313   2.101   5.206   2.024  1.2414 -0.4393  1.6029
15274TIP3    H267314   2.243   5.251   1.994  0.6899  0.4880  0.2844
15275TIP3   OH267315   5.091   2.363   0.716  0.2809  0.0818  0.3700
15275TIP3    H167316   5.056   2.364   0.805  0.2170  0.9039  0.3452
15275TIP3    H267317   5.075   2.274   0.684 -0.0808 -0.0903  1.0240
15276TIP3   OH267318   2.072   2.080  14.838  0.4312 -0.5179 -0.0493
15276TIP3    H167319   2.064   2.166  14.795 -0.7163 -0.5758  0.0148
15276TIP3    H267320   2.085   2.101  14.930  3.0660 -0.3891 -0.3640
15277TIP3   OH267321   5.159   6.638   4.293  0.1604  0.4298  0.3002
15277TIP3    H167322   5.096   6.683   4.236 -0.1035 -1.7221 -1.2346
15277TIP3    H267323   5.239   6.691   4.287 -0.7926  1.9635  0.4922
15278TIP3   OH267324   4.833   3.918   3.598  0.2257 -0.3609  0.5312
15278TIP3    H167325   4.917   3.933   3.554  0.8395 -2.5696  0.8536
15278TIP3    H267326   4.774   3.888   3.529 -0.6593  2.0804  0.1164
15279TIP3   OH267327   0.414   5.719  17.137 -0.4392 -0.2256  0.2256
15279TIP3    H167328   0.479   5.666  17.090  0.9684 -0.4260  2.2576
15279TIP3    H267329   0.460   5.800  17.159 -1.3149  0.1980  0.5355
15280TIP3   OH267330   5.739   4.194  11.810 -0.7630 -0.1029  0.3079
15280TIP3    H167331   5.685   4.238  11.745  2.2614  1.3441 -1.4239
15280TIP3    H267332   5.762   4.110  11.770  0.3568  0.4010 -0.1385
15281TIP3   OH267333   1.782   2.026  15.207  0.5206 -0.6730 -0.3501
15281TIP3    H167334   1.776   2.118  15.179  0.6551 -0.3988  0.4956
15281TIP3    H267335   1.788   1.977  15.125 -0.5038 -0.0038 -0.8522
15282TIP3   OH267336   2.587   3.111  16.647  0.2105 -0.1900 -0.0402
15282TIP3    H167337   2.540   3.193  16.657 -0.5248 -0.4965 -0.8446
15282TIP3    H267338   2.525   3.054  16.601  0.8779 -1.0424  0.1009
15283TIP3   OH267339   4.043   6.313  15.477  0.2311  0.1573  0.0865
15283TIP3    H167340   4.001   6.278  15.398  1.3136  0.6050 -0.7243
15283TIP3    H267341   3.973   6.354  15.526 -0.2857  0.9120 -1.2349
15284TIP3   OH267342   2.851   4.305   5.139  0.0771  0.4151  0.0831
15284TIP3    H167343   2.916   4.375   5.132 -0.4500  1.0143  0.9745
15284TIP3    H267344   2.768   4.350   5.151 -0.2208 -0.3586  1.0715
15285TIP3   OH267345   6.469   0.014  11.609  0.2964  0.0365 -0.9899
15285TIP3    H167346   6.542   0.026  11.549  0.4431  0.9529 -0.6397
15285TIP3    H267347   6.491   0.067  11.686 -0.0931 -0.7631 -0.2995
15286TIP3   OH267348   6.662   3.194   0.908  0.0254 -0.0286 -0.6279
15286TIP3    H167349   6.669   3.202   1.003  3.2767 -1.6423 -0.5863
15286TIP3    H267350   6.742   3.236   0.875 -1.0248  0.4908 -2.6967
15287TIP3   OH267351   6.150   6.104   3.022  0.2725 -0.8074  0.3074
15287TIP3    H167352   6.070   6.107   2.970 -1.2869  0.6162  2.6370
15287TIP3    H267353   6.204   6.175   2.986 -0.5578 -0.1654  0.2944
15288TIP3   OH267354   0.205   6.319   2.377 -0.6678  0.3323 -0.1064
15288TIP3    H167355   0.293   6.285   2.366 -0.8392 -1.4384  2.7319
15288TIP3    H267356   0.161   6.301   2.294  0.7174 -1.8688 -0.4307
15289TIP3   OH267357   3.733   2.940   1.350 -0.4438 -0.4370 -0.3958
15289TIP3    H167358   3.761   2.990   1.273  1.2106 -1.0877 -0.2398
15289TIP3    H267359   3.664   2.882   1.316  0.0435 -0.4917 -1.3242
15290TIP3   OH267360   6.376   1.755  17.065 -0.1414  0.1304  0.7107
15290TIP3    H167361   6.438   1.744  16.993  1.4671 -1.2642  2.1950
15290TIP3    H267362   6.297   1.709  17.036 -0.8316  2.5149 -1.5072
15291TIP3   OH267363   2.062   3.784   5.516  0.5283  0.0735 -0.1399
15291TIP3    H167364   2.128   3.770   5.448 -0.5886  1.7894 -1.6411
15291TIP3    H267365   1.989   3.728   5.490 -0.1801  1.2644 -0.8038
15292TIP3   OH267366   5.945   4.356  13.020 -0.3038 -0.1263  0.3851
15292TIP3    H167367   5.860   4.346  12.975  0.6299  1.0339 -1.7928
15292TIP3    H267368   5.941   4.294  13.093 -3.0167 -0.1043  0.3595
15293TIP3   OH267369   3.617   2.773   2.980  0.0409  0.2970  0.3173
15293TIP3    H167370   3.657   2.707   3.037 -0.0161 -0.6012 -0.6497
15293TIP3    H267371   3.532   2.791   3.020 -1.2783 -2.4725 -0.9648
15294TIP3   OH267372   2.442   3.921   4.796  0.4774 -0.3512  0.3003
15294TIP3    H167373   2.371   3.895   4.736  0.1147 -1.5489  1.1987
15294TIP3    H267374   2.454   4.014   4.780 -0.8838 -0.2561 -0.3185
15295TIP3   OH267375   4.798   1.597  15.992 -0.2418  0.2746 -0.5411
15295TIP3    H167376   4.756   1.683  16.001 -0.2397  0.1265  1.1846
15295TIP3    H267377   4.800   1.561  16.081  1.6859 -0.6035 -0.8746
15296TIP3   OH267378   4.353   1.797   2.879  0.3018  0.5646 -0.0963
15296TIP3    H167379   4.263   1.765   2.879  0.3067  0.3865  2.0830
15296TIP3    H267380   4.355   1.865   2.812 -1.6893  1.1753  0.4026
15297TIP3   OH267381   2.269   6.187  17.033 -0.1083  0.9054  0.4485
15297TIP3    H167382   2.215   6.258  16.998  0.3847  1.4453  0.7585
15297TIP3    H267383   2.212   6.110  17.030  0.0318  0.8317 -1.8633
15298TIP3   OH267384   3.831   3.939   1.271 -0.0170  0.4337 -0.4346
15298TIP3    H167385   3.851   3.975   1.184  1.8137 -0.0368 -0.2328
15298TIP3    H267386   3.882   3.858   1.276  0.6927  0.9465  1.4534
15299TIP3   OH267387   3.213   6.438   3.484 -0.2327  0.5507  0.9256
15299TIP3    H167388   3.191   6.375   3.552  0.1701 -0.1105  0.4501
15299TIP3    H267389   3.205   6.389   3.402 -1.7625  1.6163  0.3987
15300TIP3   OH267390   1.810   5.206  13.568  0.1130  0.1681 -0.2454
15300TIP3    H167391   1.784   5.119  13.538 -1.3322  0.0889  1.1116
15300TIP3    H267392   1.905   5.206  13.563  0.2026 -1.8501  0.6440
15301TIP3   OH267393   4.153   4.348   0.368 -0.1346 -0.3172 -0.2395
15301TIP3    H167394   4.074   4.379   0.324  0.8876  1.1430 -1.1391
15301TIP3    H267395   4.160   4.402   0.446 -0.8033 -1.4791  0.6657
15302TIP3   OH267396   5.338   6.211  16.550 -0.7057  0.3645 -0.2710
15302TIP3    H167397   5.422   6.254  16.562 -1.5295  1.9339  0.0796
15302TIP3    H267398   5.352   6.153  16.475  0.6451  0.6816 -0.2932
15303TIP3   OH267399   1.040   4.038   2.669  0.1951  0.0849 -0.2116
15303TIP3    H167400   1.077   4.121   2.640  1.8975 -0.7406 -0.4926
15303TIP3    H267401   0.999   4.059   2.753  1.8658  0.9280  0.4376
15304TIP3   OH267402   6.457   4.366  13.235  0.6393 -0.3166 -0.1805
15304TIP3    H167403   6.370   4.355  13.196  1.7149  0.9396 -3.2064
15304TIP3    H267404   6.460   4.300  13.305 -2.6955 -0.3906  0.0561
15305TIP3   OH267405   5.704   1.954   0.531 -0.5685 -0.3767  0.0775
15305TIP3    H167406   5.778   1.961   0.591 -0.7766 -0.8627  0.3949
15305TIP3    H267407   5.641   1.900   0.577 -1.7575  1.2428  0.4246
15306TIP3   OH267408   1.311   2.750   4.290 -0.1020  0.0455 -0.3850
15306TIP3    H167409   1.381   2.747   4.224  0.6638  2.0598  0.2519
15306TIP3    H267410   1.323   2.834   4.333 -0.8028 -1.0398  2.0948
15307TIP3   OH267411   5.178   4.885  14.539  0.3603  0.2754  0.1511
15307TIP3    H167412   5.204   4.977  14.534 -1.8694  0.9499  0.1483
15307TIP3    H267413   5.244   4.845  14.596  0.4998  2.1957  1.4286
15308TIP3   OH267414   3.729   6.764   0.220 -0.1607 -0.1044 -0.0167
15308TIP3    H167415   3.639   6.745   0.193  0.0486 -0.1781 -0.6758
15308TIP3    H267416   3.723   6.776   0.315 -1.0374  0.8711 -0.1740
15309TIP3   OH267417   1.848   3.977   3.242 -0.7024 -0.0194 -0.3161
15309TIP3    H167418   1.870   3.985   3.149  1.3547  0.3576  0.1534
15309TIP3    H267419   1.868   4.063   3.279 -0.5384 -0.4523  0.6467
15310TIP3   OH267420   3.125   3.555   4.035  0.2460 -0.1305  0.0181
15310TIP3    H167421   3.137   3.550   4.130 -1.2862  2.9942  0.5141
15310TIP3    H267422   3.073   3.477   4.013 -1.8277  0.4873  2.2956
15311TIP3   OH267423   2.365   6.337   3.008 -0.1855 -0.5906 -0.0339
15311TIP3    H167424   2.329   6.424   2.988 -2.6910 -1.3538  0.8122
15311TIP3    H267425   2.400   6.346   3.096  1.3018  0.0013 -0.6443
15312TIP3   OH267426   6.820   3.486  13.273  0.5400 -0.0629  0.2123
15312TIP3    H167427   6.744   3.486  13.215 -0.7940 -2.0761  1.8118
15312TIP3    H267428   6.784   3.463  13.359  2.3844  2.8183  1.9514
15313TIP3   OH267429   4.302   4.613  14.548  0.4084 -0.1295  0.1484
15313TIP3    H167430   4.309   4.527  14.590  0.9229  0.1816  0.7228
15313TIP3    H267431   4.244   4.663  14.605 -0.5202 -0.3394 -0.6071
15314TIP3   OH267432   2.303   3.821  14.985 -0.1902  0.2248  0.7085
15314TIP3    H167433   2.234   3.834  15.050  0.4718  1.0721  1.2557
15314TIP3    H267434   2.293   3.894  14.924  0.1501  0.2860  0.7250
15315TIP3   OH267435   2.308   3.415  16.518  0.3217 -0.1328 -0.0643
15315TIP3    H167436   2.352   3.389  16.599  0.1594 -1.5823 -0.4246
15315TIP3    H267437   2.276   3.334  16.480  0.1325  0.5537 -1.4518
15316TIP3   OH267438   3.962   5.288  14.819  0.5444  0.5744 -0.2425
15316TIP3    H167439   3.953   5.307  14.725 -0.2148  1.6983  0.0430
15316TIP3    H267440   3.980   5.373  14.859  2.3056 -0.1042  0.4884
15317TIP3   OH267441   3.284   2.812  16.536  0.7469 -0.6246 -0.5513
15317TIP3    H167442   3.322   2.787  16.452  1.0539 -0.2754 -0.5166
15317TIP3    H267443   3.295   2.907  16.540  0.6950 -0.6367 -0.1316
15318TIP3   OH267444   0.003   2.836   5.116  0.9550  0.0816  0.5295
15318TIP3    H167445  -0.088   2.825   5.141  0.5194  0.4439 -0.8128
15318TIP3    H267446   0.007   2.803   5.026  1.4369  2.9209 -0.5846
15319TIP3   OH267447   1.345   0.821  13.669 -0.4377  0.2245  0.1510
15319TIP3    H167448   1.296   0.814  13.751 -1.3706  1.1919 -0.2940
15319TIP3    H267449   1.422   0.766  13.682 -0.9502 -0.2378  1.3907
15320TIP3   OH267450   0.680   1.117  13.754  0.4860  0.0655  0.2815
15320TIP3    H167451   0.605   1.160  13.713  1.7189  1.3668 -0.7443
15320TIP3    H267452   0.736   1.189  13.783  1.9383 -0.8211 -0.1667
15321TIP3   OH267453   0.321   1.582  12.715 -0.0279 -0.2959 -0.2284
15321TIP3    H167454   0.230   1.561  12.699  0.2835 -1.7455 -0.2462
15321TIP3    H267455   0.364   1.569  12.631  0.8094 -3.3779  0.5457
15322TIP3   OH267456   2.300   5.655  10.928 -0.3161  0.2746 -0.0307
15322TIP3    H167457   2.249   5.729  10.895 -0.9332 -0.7334 -1.4468
15322TIP3    H267458   2.283   5.584  10.865  2.4220 -0.2782 -0.2836
15323TIP3   OH267459   0.319   0.077   0.334  0.1415  0.1459  0.4988
15323TIP3    H167460   0.324   0.116   0.246 -1.5405 -0.3143  0.1641
15323TIP3    H267461   0.234   0.105   0.368 -1.1220 -3.0513  0.3013
15324TIP3   OH267462   1.525   3.814   1.731  0.8766 -0.1373  0.4531
15324TIP3    H167463   1.489   3.732   1.767 -0.8482  0.8109  1.0030
15324TIP3    H267464   1.486   3.821   1.644 -1.2763  1.4440  1.4674
15325TIP3   OH267465   6.839   3.288  12.049 -0.4148  0.0391  0.7170
15325TIP3    H167466   6.750   3.319  12.064 -0.1591  0.4181  1.5551
15325TIP3    H267467   6.830   3.221  11.982 -1.3462 -0.0004  0.8596
15326TIP3   OH267468   3.760   6.310  14.119 -0.4739  0.6173  0.2284
15326TIP3    H167469   3.841   6.294  14.069 -1.7492 -4.3869 -0.7875
15326TIP3    H267470   3.773   6.261  14.200 -2.1474  0.3225  0.3436
15327TIP3   OH267471   5.135   3.499  13.417  0.1439  0.4858  0.7584
15327TIP3    H167472   5.100   3.456  13.495 -0.8450 -1.3736 -0.6541
15327TIP3    H267473   5.185   3.431  13.372  0.1742  1.3354 -0.5495
15328TIP3   OH267474   4.097   1.172  12.154 -0.0356 -0.3173 -0.3775
15328TIP3    H167475   4.090   1.094  12.209 -3.3613 -0.7440 -1.1671
15328TIP3    H267476   4.112   1.138  12.066 -3.8637 -0.4606 -1.1593
15329TIP3   OH267477   5.764   4.516   4.332  0.1018  0.6504  0.0603
15329TIP3    H167478   5.802   4.601   4.309 -0.2431  0.8814  0.3388
15329TIP3    H267479   5.738   4.477   4.249  0.3302  0.7840 -0.0741
15330TIP3   OH267480   5.177   1.602   1.197 -0.0973 -0.6823 -0.4668
15330TIP3    H167481   5.133   1.637   1.119  0.5782  0.9469 -0.1670
15330TIP3    H267482   5.134   1.647   1.270  1.8446  0.7856 -0.1580
15331TIP3   OH267483   5.551   2.759  11.254 -0.0462  0.8187 -0.1839
15331TIP3    H167484   5.582   2.826  11.192  1.5416  1.2082  0.9648
15331TIP3    H267485   5.498   2.807  11.318  1.7659  1.1931  1.1125
15332TIP3   OH267486   5.434   3.799   2.314 -0.1463 -0.2572  0.1718
15332TIP3    H167487   5.410   3.727   2.255  1.1779 -0.4653 -0.1444
15332TIP3    H267488   5.363   3.802   2.378 -1.8601  0.2781 -1.6663
15333TIP3   OH267489   3.185   0.758  12.725  0.4564  0.5368 -0.5845
15333TIP3    H167490   3.280   0.744  12.716  0.0347 -2.4553 -1.6999
15333TIP3    H267491   3.165   0.728  12.814  0.4153 -0.1181 -0.8063
15334TIP3   OH267492   6.710   0.619  12.774 -0.3233 -0.2907 -0.1320
15334TIP3    H167493   6.731   0.685  12.708  0.5782 -0.4245  0.0032
15334TIP3    H267494   6.737   0.659  12.857  1.0574 -1.1426 -0.1391
15335TIP3   OH267495   5.924   6.006  13.160 -0.0854 -0.1909 -0.1007
15335TIP3    H167496   5.948   5.915  13.175  0.8179 -0.0472 -0.5924
15335TIP3    H267497   5.829   6.008  13.170  0.0160 -0.9435  1.1174
15336TIP3   OH267498   3.821   6.568   2.568 -0.5746  0.6535 -0.9010
15336TIP3    H167499   3.841   6.658   2.592  3.4211 -0.5721  1.2735
15336TIP3    H267500   3.818   6.521   2.652  1.4186 -1.8283 -2.0780
15337TIP3   OH267501   1.837   4.281  15.742 -0.2517  0.2325 -0.0421
15337TIP3    H167502   1.915   4.305  15.693 -1.0862  3.2731 -0.0840
15337TIP3    H267503   1.856   4.309  15.832 -1.0429  0.4454  0.0665
15338TIP3   OH267504   0.599   2.701  11.527  0.3279 -0.3309  1.0248
15338TIP3    H167505   0.645   2.767  11.580 -0.1626  0.6633  0.2393
15338TIP3    H267506   0.532   2.666  11.585 -0.7482  1.3381  0.8514
15339TIP3   OH267507   5.594   4.003  14.963 -0.3738  0.4603 -0.7605
15339TIP3    H167508   5.612   4.092  14.933 -0.1232  0.3809 -0.8468
15339TIP3    H267509   5.521   4.013  15.024  1.8622  1.2062  1.9993
15340TIP3   OH267510   0.613   0.713  10.469 -0.0318 -0.2959  0.8392
15340TIP3    H167511   0.546   0.648  10.490 -1.0566  0.4081 -0.1270
15340TIP3    H267512   0.565   0.794  10.458  1.0040  0.2601  0.2398
15341TIP3   OH267513   6.232   1.322   1.732 -0.5226 -0.3882  0.0122
15341TIP3    H167514   6.281   1.327   1.650  1.6432 -0.2931  1.2370
15341TIP3    H267515   6.232   1.411   1.766 -1.7319 -0.3519 -0.0469
15342TIP3   OH267516   2.653   1.941  13.043 -0.5750 -0.4056 -0.3163
15342TIP3    H167517   2.739   1.902  13.029  0.9153  1.8729  1.6897
15342TIP3    H267518   2.605   1.877  13.095  1.1558 -0.4102  1.3856
15343TIP3   OH267519   6.308   1.305  17.019  0.5740 -0.3070  0.1779
15343TIP3    H167520   6.357   1.257  17.086 -1.6241 -2.7087  0.2159
15343TIP3    H267521   6.270   1.379  17.067  2.2719  0.3352  0.6088
15344TIP3   OH267522   3.704   4.588   6.072  0.3535  0.4951  0.0497
15344TIP3    H167523   3.728   4.612   6.161  0.5576 -0.7813  0.3567
15344TIP3    H267524   3.651   4.509   6.082  0.5268  0.2346 -0.9705
15345TIP3   OH267525   0.096   0.777   5.775  0.4938  0.3482 -0.1272
15345TIP3    H167526   0.146   0.856   5.754 -0.4858  0.5805 -1.6509
15345TIP3    H267527   0.073   0.739   5.691 -0.7836 -0.4832  0.5644
15346TIP3   OH267528   1.335   5.675   2.082  0.0261 -0.0847 -0.2642
15346TIP3    H167529   1.396   5.747   2.062  0.0032  0.0719  0.2128
15346TIP3    H267530   1.374   5.631   2.158 -1.1972  0.9168  0.9899
15347TIP3   OH267531   5.230   6.429  13.864 -0.0416 -0.2534  0.2792
15347TIP3    H167532   5.136   6.417  13.852 -0.2667  2.1478 -0.8423
15347TIP3    H267533   5.245   6.410  13.956 -1.7046 -0.2442  0.5854
15348TIP3   OH267534   6.374   0.136   4.143  0.2263 -0.0577 -0.1780
15348TIP3    H167535   6.288   0.128   4.101  0.4501 -1.7714 -0.3799
15348TIP3    H267536   6.404   0.224   4.119 -1.8641  0.9749  0.7021
15349TIP3   OH267537   0.821   0.973   4.094  0.0017 -0.5675 -0.1388
15349TIP3    H167538   0.824   1.040   4.162  2.4500  0.7410 -1.3973
15349TIP3    H267539   0.733   0.981   4.056 -1.3821 -1.2530  2.6503
15350TIP3   OH267540   6.202   4.895  11.259  0.0428 -0.6692  0.0559
15350TIP3    H167541   6.204   4.906  11.164 -2.7068  1.0902  0.0912
15350TIP3    H267542   6.259   4.964  11.293 -0.0219 -0.4498 -0.2818
15351TIP3   OH267543   2.413   4.275  14.389  0.0847  0.5392 -0.0819
15351TIP3    H167544   2.438   4.207  14.326  0.1933  1.2434 -0.8297
15351TIP3    H267545   2.480   4.342  14.378 -1.1423  1.6902 -0.8611
15352TIP3   OH267546   2.062   6.037   0.044  0.0142  0.1180 -0.5546
15352TIP3    H167547   2.019   6.013  -0.038 -0.1505  0.5871 -0.6073
15352TIP3    H267548   2.071   6.132   0.040  1.2808  0.0126 -0.6486
15353TIP3   OH267549   5.055   2.134  16.702 -0.1957  0.6869 -0.2211
15353TIP3    H167550   5.107   2.134  16.783  0.4020  1.1128 -0.5935
15353TIP3    H267551   4.980   2.078  16.721 -0.0829  0.8170  0.6443
15354TIP3   OH267552   0.389   3.626  16.780  0.1412  0.4464  0.8461
15354TIP3    H167553   0.391   3.538  16.818 -0.6809  0.2795  0.5279
15354TIP3    H267554   0.478   3.641  16.749 -0.0210 -0.8480 -0.3684
15355TIP3   OH267555   6.176   4.829  14.879  0.0496  0.2312 -0.0202
15355TIP3    H167556   6.128   4.910  14.863  1.2755  0.7572 -1.2344
15355TIP3    H267557   6.171   4.781  14.796 -1.0163 -1.1610  0.7995
15356TIP3   OH267558   0.160   6.408   1.821 -0.0518 -0.6238  0.3446
15356TIP3    H167559   0.088   6.415   1.759 -0.6582 -2.0420  0.8454
15356TIP3    H267560   0.214   6.336   1.788 -0.0998 -1.0524  1.1519
15357TIP3   OH267561   1.840   6.675   4.729 -0.7225 -0.3885 -0.1919
15357TIP3    H167562   1.904   6.603   4.725 -3.3729 -2.8977 -1.2977
15357TIP3    H267563   1.874   6.741   4.669  1.8722 -0.5699  0.9282
15358TIP3   OH267564   1.822   3.791  15.271 -0.4257  0.5764  0.0379
15358TIP3    H167565   1.776   3.791  15.187 -0.4935  1.3865  0.0741
15358TIP3    H267566   1.757   3.760  15.334 -0.1057 -0.9661 -0.3333
15359TIP3   OH267567   3.116   5.077  11.113  0.6336 -0.3054  0.0330
15359TIP3    H167568   3.086   5.078  11.204  1.3488  0.9089  0.2813
15359TIP3    H267569   3.038   5.054  11.063 -0.3460  1.1286  0.8047
15360TIP3   OH267570   1.312   4.507  12.189 -0.5693  0.0539  0.4259
15360TIP3    H167571   1.305   4.484  12.096 -0.0532 -0.6515  0.5535
15360TIP3    H267572   1.383   4.571  12.193 -0.6005  0.0941  0.3317
15361TIP3   OH267573   4.425   6.489  16.955 -0.0709  0.0213  0.5125
15361TIP3    H167574   4.385   6.442  17.029  0.0143 -0.5207  0.2216
15361TIP3    H267575   4.414   6.429  16.881  1.2540 -0.1318  0.4206
15362TIP3   OH267576   4.905   3.794  11.891 -0.1128 -0.0919  0.2705
15362TIP3    H167577   4.875   3.735  11.960  0.9063  0.3078  1.0677
15362TIP3    H267578   4.886   3.882  11.924  0.2829  0.0980 -0.0014
15363TIP3   OH267579   2.430   3.902  16.537  0.4835 -0.4865  0.1292
15363TIP3    H167580   2.420   3.930  16.446  0.8059 -2.2743 -0.4971
15363TIP3    H267581   2.513   3.941  16.565  0.9257 -0.8044 -0.7072
15364TIP3   OH267582   4.913   5.754  11.808  0.5297  0.5177 -0.3034
15364TIP3    H167583   4.985   5.776  11.748  2.0573 -1.0527  0.8407
15364TIP3    H267584   4.868   5.837  11.823  0.6375  1.1195 -2.8660
15365TIP3   OH267585   3.351   1.948   1.487 -0.2196 -0.0658  0.0814
15365TIP3    H167586   3.286   1.880   1.504 -0.7104  0.2803 -0.3553
15365TIP3    H267587   3.333   2.016   1.552  0.0074 -0.1758  0.2587
15366TIP3   OH267588   3.618   6.166  11.623 -0.4633  0.1805 -0.5480
15366TIP3    H167589   3.610   6.077  11.590  1.1434 -0.0351 -0.4354
15366TIP3    H267590   3.540   6.179  11.678  1.1072 -2.5614  2.6275
15367TIP3   OH267591   2.460   0.792   1.482 -0.5202 -0.5356 -0.5216
15367TIP3    H167592   2.508   0.714   1.509  0.6050  0.8703  1.7503
15367TIP3    H267593   2.509   0.826   1.407  0.4434 -0.6393  0.0512
15368TIP3   OH267594   5.947   3.841  12.447  0.4515 -0.0618 -1.0158
15368TIP3    H167595   5.925   3.934  12.443 -2.5627 -0.3969  2.4479
15368TIP3    H267596   6.006   3.834  12.523 -2.4200 -1.2035  1.3198
15369TIP3   OH267597   5.133   2.128   0.584 -0.5011  0.6969 -0.0622
15369TIP3    H167598   5.139   2.123   0.489  1.0845  0.4279  0.0309
15369TIP3    H267599   5.043   2.101   0.604 -0.3211 -1.0227 -1.3597
15370TIP3   OH267600   4.907   0.752  13.732 -0.3886  0.0142 -0.0302
15370TIP3    H167601   4.957   0.706  13.665 -0.2427  0.5967 -0.3334
15370TIP3    H267602   4.955   0.736  13.813  0.0163  0.1509 -0.2371
15371TIP3   OH267603   0.370   4.660  16.117 -0.3273 -0.5865 -0.2114
15371TIP3    H167604   0.424   4.728  16.157 -0.3916 -0.6000 -0.0992
15371TIP3    H267605   0.291   4.658  16.171 -0.8289  0.0536 -0.9068
15372TIP3   OH267606   5.523   4.446  13.868  0.5667  0.6080  0.4082
15372TIP3    H167607   5.498   4.537  13.853 -0.9590 -0.0194 -1.3069
15372TIP3    H267608   5.441   4.400  13.884  0.8015 -1.0568 -2.4520
15373TIP3   OH267609   5.576   5.217  14.672  0.2304  0.6895  0.1166
15373TIP3    H167610   5.548   5.174  14.752  0.5603 -2.6068 -1.3682
15373TIP3    H267611   5.495   5.233  14.624  0.2390 -1.7035 -0.8314
15374TIP3   OH267612   6.416   5.451   0.049  0.6421  0.7653  0.0227
15374TIP3    H167613   6.372   5.368   0.068 -1.2012  1.6321 -0.2069
15374TIP3    H267614   6.487   5.428  -0.011  1.0832 -0.8154  1.0838
15375TIP3   OH267615   6.209   4.330  11.709  0.2326 -0.1465 -0.1000
15375TIP3    H167616   6.124   4.369  11.690 -0.6113 -1.5860  0.5445
15375TIP3    H267617   6.262   4.402  11.742 -1.2815  0.4648  1.1269
15376TIP3   OH267618   0.391   5.856  16.482 -0.0181  0.3334 -0.3659
15376TIP3    H167619   0.417   5.948  16.478  0.7532  0.1536  0.2662
15376TIP3    H267620   0.344   5.848  16.565 -0.9655  0.3680 -0.8892
15377TIP3   OH267621   2.349   6.559   1.771 -0.0604 -0.5306 -0.2313
15377TIP3    H167622   2.388   6.481   1.810  1.0271 -0.5673 -1.3329
15377TIP3    H267623   2.399   6.632   1.809  0.5423 -0.5297 -0.9883
15378TIP3   OH267624   6.546   3.326   2.322  0.1665  0.4685 -0.1985
15378TIP3    H167625   6.610   3.322   2.251  1.1337  0.8702  0.6228
15378TIP3    H267626   6.590   3.377   2.391 -0.6102 -0.1812  0.8056
15379TIP3   OH267627   3.339   1.748   4.301  0.2668  0.0637 -0.0125
15379TIP3    H167628   3.285   1.812   4.347 -0.1430  0.0126 -0.4155
15379TIP3    H267629   3.322   1.665   4.345  0.0327  0.0515 -0.1276
15380TIP3   OH267630   3.361   5.921   0.982  0.0380 -0.5562 -0.8644
15380TIP3    H167631   3.325   5.904   1.069  1.7335  2.8533  0.7269
15380TIP3    H267632   3.408   5.841   0.959 -0.8829 -1.7330  1.0841
15381TIP3   OH267633   4.845   2.555  14.640  0.2967  0.1709  0.2388
15381TIP3    H167634   4.804   2.589  14.720 -0.5222  2.1646 -0.9621
15381TIP3    H267635   4.935   2.536  14.665  0.0513  0.7229  1.6302
15382TIP3   OH267636   0.906   1.051  14.724  0.7036  0.3031  0.5488
15382TIP3    H167637   0.931   0.977  14.780  0.4686  0.4964  0.9108
15382TIP3    H267638   0.989   1.083  14.688  0.9475  0.7432  1.4960
15383TIP3   OH267639   2.545   4.886   5.068  0.6204 -0.4624 -0.1022
15383TIP3    H167640   2.528   4.907   4.976  1.0583  0.9008  0.1201
15383TIP3    H267641   2.637   4.906   5.081  0.3155  0.3795  0.8939
15384TIP3   OH267642   6.428   4.660   5.845 -0.5999  0.6892  0.3064
15384TIP3    H167643   6.491   4.678   5.914  1.3715 -0.0317 -1.2189
15384TIP3    H267644   6.343   4.662   5.889  0.5903 -0.1966  2.8386
15385TIP3   OH267645   1.815   0.358  14.617 -0.0407  0.5856  0.4734
15385TIP3    H167646   1.901   0.354  14.576  1.2457 -0.4350  3.0770
15385TIP3    H267647   1.777   0.440  14.586  1.6738  0.8541 -1.0373
15386TIP3   OH267648   2.487   2.058  12.585  0.7393 -0.7325  0.3423
15386TIP3    H167649   2.547   2.026  12.517  1.8986 -2.3962  2.0440
15386TIP3    H267650   2.485   2.153  12.572  1.4859 -0.9291 -1.5430
15387TIP3   OH267651   5.424   6.672  13.879 -0.5979 -0.1182  0.1849
15387TIP3    H167652   5.335   6.640  13.887 -0.2604 -1.2240 -0.3077
15387TIP3    H267653   5.479   6.594  13.883  0.4194  0.5985  1.3316
15388TIP3   OH267654   3.127   4.220  12.811  0.2052  0.3061  0.0105
15388TIP3    H167655   3.037   4.190  12.806  0.3982 -0.2753 -0.1208
15388TIP3    H267656   3.176   4.159  12.754  0.8231  0.0233  0.8216
15389TIP3   OH267657   3.051   0.699   4.970  0.3620 -0.0624  0.4667
15389TIP3    H167658   3.026   0.632   5.033  0.5140 -0.8928 -0.3342
15389TIP3    H267659   3.078   0.650   4.892  1.3817  0.9094  0.1900
15390TIP3   OH267660   4.940   0.276  16.782 -0.2225  0.1125  0.0771
15390TIP3    H167661   4.980   0.226  16.853  0.0555  0.9093  0.4877
15390TIP3    H267662   4.875   0.332  16.825 -1.4711 -0.8219 -0.5265
15391TIP3   OH267663   5.833   0.097  14.782 -0.6260  0.2023  0.1606
15391TIP3    H167664   5.818   0.148  14.861 -0.2131  1.7135 -0.6928
15391TIP3    H267665   5.888   0.153  14.727  1.4692 -1.9158 -0.0805
15392TIP3   OH267666   0.548   3.985   0.099 -0.3311 -0.7901  0.0135
15392TIP3    H167667   0.481   4.034   0.146 -2.8902 -3.5866 -0.3787
15392TIP3    H267668   0.630   4.014   0.138 -1.9101  1.0692  2.2812
15393TIP3   OH267669   1.561   2.780  11.348  0.2803  0.3274 -0.0758
15393TIP3    H167670   1.528   2.774  11.259 -1.0576  1.7994  0.2914
15393TIP3    H267671   1.543   2.694  11.386  2.0160 -0.7636 -1.5550
15394TIP3   OH267672   0.343   3.041   3.187 -0.5846 -0.3838  0.0079
15394TIP3    H167673   0.345   3.022   3.281 -1.5959 -0.2232  0.0669
15394TIP3    H267674   0.315   2.960   3.146  1.2900 -0.9249 -0.3158
15395TIP3   OH267675   5.609   4.262   0.315 -0.1341 -1.0519 -0.1457
15395TIP3    H167676   5.565   4.337   0.275  0.6078 -1.0402 -0.9682
15395TIP3    H267677   5.699   4.267   0.283  0.2602 -1.5540  0.8339
15396TIP3   OH267678   0.041   1.068   6.610 -0.1547  0.2881  0.7035
15396TIP3    H167679   0.053   0.992   6.667  0.3757 -0.6938 -0.6639
15396TIP3    H267680   0.128   1.084   6.573 -0.3554  1.3048  0.6427
15397TIP3   OH267681   3.826   5.978  17.054  0.3417  0.0626  0.3402
15397TIP3    H167682   3.815   6.066  17.090 -1.0355  0.5225 -1.0922
15397TIP3    H267683   3.764   5.974  16.981  0.7755 -1.9096  0.0219
15398TIP3   OH267684   0.159   2.612   3.204  0.8538  0.1442 -0.2319
15398TIP3    H167685   0.090   2.554   3.170 -1.1582 -0.5159  4.2077
15398TIP3    H267686   0.240   2.565   3.187 -0.2564 -1.4892 -1.3119
15399TIP3   OH267687   1.577   3.891   2.269  0.0869 -0.2123 -0.4574
15399TIP3    H167688   1.585   3.978   2.231  0.7932 -0.2835 -0.4700
15399TIP3    H267689   1.635   3.836   2.217 -0.9228 -0.8548 -0.9264
15400TIP3   OH267690   1.324   5.946  10.525  0.0583  0.2469 -0.0671
15400TIP3    H167691   1.298   6.027  10.569  1.4865  0.2521  0.8228
15400TIP3    H267692   1.412   5.928  10.557  0.5580 -0.5961 -1.7758
15401TIP3   OH267693   5.164   1.464  17.065 -0.3678  0.1689 -0.2053
15401TIP3    H167694   5.074   1.480  17.092 -0.8585 -0.8263 -1.1510
15401TIP3    H267695   5.181   1.374  17.092 -0.0104  0.0154 -0.9138
15402TIP3   OH267696   5.587   4.715   1.382 -0.1520 -0.4518 -0.4587
15402TIP3    H167697   5.590   4.621   1.397  1.8083 -0.2464  0.8497
15402TIP3    H267698   5.679   4.741   1.374 -0.6772  1.2340 -1.7745
15403TIP3   OH267699   1.661   3.504   3.653 -0.2678 -0.4503  0.1825
15403TIP3    H167700   1.655   3.600   3.653  0.4214 -0.3927  1.2254
15403TIP3    H267701   1.694   3.483   3.566 -0.3651  0.2643 -0.0397
15404TIP3   OH267702   2.016   2.446   4.856  0.0968 -0.4993  0.1482
15404TIP3    H167703   1.973   2.360   4.858 -1.3415  0.1672 -0.7530
15404TIP3    H267704   2.075   2.440   4.781  1.1711 -1.1985  1.0103
15405TIP3   OH267705   2.808   6.091  16.194 -0.0940  0.3524 -0.3072
15405TIP3    H167706   2.829   6.170  16.145  0.4393 -0.3625 -1.2637
15405TIP3    H267707   2.869   6.091  16.268  0.8355  0.1592 -1.0535
15406TIP3   OH267708   3.889   2.190   0.543  0.6214  0.1440 -0.0028
15406TIP3    H167709   3.865   2.136   0.468 -2.2871  0.9247  0.2485
15406TIP3    H267710   3.967   2.238   0.514 -0.7082  0.8351 -2.7668
15407TIP3   OH267711   5.212   0.658   5.803  0.2160 -0.4088 -0.0169
15407TIP3    H167712   5.241   0.686   5.890  1.4615 -0.5464 -0.3582
15407TIP3    H267713   5.266   0.708   5.743 -1.4726  0.5761 -0.7670
15408TIP3   OH267714   2.256   3.979  15.561  0.1356  0.5473 -0.0567
15408TIP3    H167715   2.246   3.884  15.555 -0.5795  0.5966  0.3121
15408TIP3    H267716   2.273   3.996  15.653 -1.4025  0.9066  0.1992
15409TIP3   OH267717   6.522   3.650  12.022  0.3249 -0.1732  0.1307
15409TIP3    H167718   6.587   3.655  12.092  0.5386  0.1721 -0.0957
15409TIP3    H267719   6.544   3.569  11.975 -0.7061 -1.2214  1.3375
15410TIP3   OH267720   1.414   6.141   3.708  0.4723 -0.4805 -0.7311
15410TIP3    H167721   1.372   6.165   3.791  0.5382 -1.5793 -0.3666
15410TIP3    H267722   1.341   6.128   3.648  0.4541  1.3116 -1.1572
15411TIP3   OH267723   4.530   5.942  15.920  0.3033  0.5988 -0.0153
15411TIP3    H167724   4.463   6.005  15.946 -0.0277  0.5256 -0.6702
15411TIP3    H267725   4.613   5.986  15.938  0.1032  1.9054 -1.9455
15412TIP3   OH267726   1.373   6.027  14.660  0.2269 -0.2584  0.5397
15412TIP3    H167727   1.439   5.982  14.712  0.8650 -0.6929 -0.6011
15412TIP3    H267728   1.291   5.984  14.682  0.4934 -0.4573  1.1499
15413TIP3   OH267729   3.771   3.609   4.593  0.2812  0.1668 -0.2461
15413TIP3    H167730   3.802   3.636   4.507  0.0242  0.6494 -0.1912
15413TIP3    H267731   3.689   3.656   4.605  0.8478  0.9550  0.7181
15414TIP3   OH267732   4.545   5.979   5.861  0.1430  0.0961 -1.1127
15414TIP3    H167733   4.628   5.955   5.901  0.5849  0.2434 -1.9274
15414TIP3    H267734   4.479   5.954   5.926  0.8416  0.4375 -0.2483
15415TIP3   OH267735   3.119   0.696  17.140  0.0261  0.0113 -0.0629
15415TIP3    H167736   3.089   0.694  17.049  0.6930 -1.0846 -0.2816
15415TIP3    H267737   3.044   0.728  17.189 -0.5064  0.1525 -0.9376
15416TIP3   OH267738   4.676   2.801   3.371 -0.2011 -0.2754 -0.4397
15416TIP3    H167739   4.721   2.719   3.349 -0.0482  0.3634 -2.7848
15416TIP3    H267740   4.732   2.843   3.437 -0.4347 -2.1384  1.0361
15417TIP3   OH267741   6.540   0.703  16.846  0.0595 -0.5299 -0.3001
15417TIP3    H167742   6.446   0.699  16.863 -0.2349  1.2448 -1.2541
15417TIP3    H267743   6.549   0.762  16.771  1.8250 -1.9906 -1.3217
15418TIP3   OH267744   3.472   3.653  15.564 -0.4872 -0.5506 -0.0115
15418TIP3    H167745   3.525   3.576  15.542  0.9242  0.8744 -2.0774
15418TIP3    H267746   3.509   3.723  15.509 -2.0970  1.4563  1.3206
15419TIP3   OH267747   2.528   6.001  10.646  0.0562 -0.6498 -0.1634
15419TIP3    H167748   2.534   5.909  10.622  1.1493 -0.9025  0.9681
15419TIP3    H267749   2.613   6.021  10.685 -0.4723  0.6006  0.3972
15420TIP3   OH267750   3.870   6.392  10.973 -0.0194  0.3962 -0.0425
15420TIP3    H167751   3.909   6.420  11.056  0.4313 -0.4131  0.0319
15420TIP3    H267752   3.944   6.368  10.918 -0.3641 -1.2803  0.1409
15421TIP3   OH267753   0.847   1.344  14.316  0.4597 -0.4248  0.0424
15421TIP3    H167754   0.845   1.323  14.410  2.8545 -0.6480  0.1008
15421TIP3    H267755   0.779   1.288  14.278 -1.4309  0.5835  1.7646
15422TIP3   OH267756   5.646   1.224  14.153  0.3956 -0.2675  0.0177
15422TIP3    H167757   5.731   1.212  14.112  0.5746 -0.0414  0.3220
15422TIP3    H267758   5.663   1.281  14.228 -0.0482 -0.0872 -0.0152
15423TIP3   OH267759   2.673   0.206   1.916  0.0590  0.5528 -0.1166
15423TIP3    H167760   2.593   0.257   1.919 -0.1366  0.2314  0.2599
15423TIP3    H267761   2.697   0.204   1.823  0.5478  2.0492 -0.0450
15424TIP3   OH267762   6.210   2.641   2.908  0.1169  0.1383 -0.0422
15424TIP3    H167763   6.265   2.602   2.976  0.6260  0.1797 -0.4306
15424TIP3    H267764   6.227   2.589   2.830 -1.2096 -0.5407  0.0776
15425TIP3   OH267765   3.130   0.374  16.191 -0.1934 -0.3077  0.3999
15425TIP3    H167766   3.225   0.387  16.182  0.1512  0.7245  3.9812
15425TIP3    H267767   3.097   0.459  16.218 -2.3726 -0.4338 -1.5882
15426TIP3   OH267768   4.820   2.783  11.682 -0.2056  0.4608  0.2296
15426TIP3    H167769   4.771   2.747  11.757  0.7820 -1.2291  0.1218
15426TIP3    H267770   4.911   2.780  11.710  0.1034  0.5643 -0.7457
15427TIP3   OH267771   6.698   0.159   4.016 -0.0799 -0.4331 -0.0541
15427TIP3    H167772   6.794   0.156   4.010 -0.0480  0.7731 -0.3548
15427TIP3    H267773   6.670   0.077   3.977  0.8533 -1.1333  0.6886
15428TIP3   OH267774   0.432   5.131  15.434 -0.2918  0.1295 -0.2224
15428TIP3    H167775   0.416   5.223  15.413  1.8344  0.4308 -0.7647
15428TIP3    H267776   0.375   5.083  15.374 -0.9717  1.0838 -0.3706
15429TIP3   OH267777   3.306   5.874   4.666  0.4949 -0.4695 -0.1888
15429TIP3    H167778   3.326   5.880   4.573  0.6627  0.4158 -0.1048
15429TIP3    H267779   3.348   5.793   4.694  1.6973 -0.0042 -0.5809
15430TIP3   OH267780   3.002   2.063   4.128 -0.0492 -0.1507  0.4145
15430TIP3    H167781   3.032   2.148   4.161  0.1699  0.1763 -0.5920
15430TIP3    H267782   3.047   1.999   4.183  0.6059  0.3740  0.5015
15431TIP3   OH267783   0.101   0.055  13.059  0.1877  0.2032  0.4040
15431TIP3    H167784   0.054  -0.017  13.101  0.4132 -0.5305 -0.5705
15431TIP3    H267785   0.169   0.079  13.122  1.2686 -1.6550  0.0281
15432TIP3   OH267786   0.732   6.444  11.944  0.2487 -0.6058 -0.1542
15432TIP3    H167787   0.763   6.362  11.983 -1.2459 -1.3989 -0.5833
15432TIP3    H267788   0.708   6.420  11.855 -0.9963  0.0975 -0.0256
15433TIP3   OH267789   0.837   5.850   3.657  0.2473 -0.0895  0.1672
15433TIP3    H167790   0.865   5.884   3.572 -1.4714  1.6262  0.2074
15433TIP3    H267791   0.774   5.781   3.637 -3.2853  2.9231 -0.2057
15434TIP3   OH267792   2.550   1.480   0.714  0.5970  0.1275  0.1701
15434TIP3    H167793   2.464   1.523   0.714  0.9720  0.8985  1.1169
15434TIP3    H267794   2.551   1.429   0.795  0.9545 -0.0406  0.0606
15435TIP3   OH267795   5.846   5.167  11.845  0.1510  0.0968 -0.0209
15435TIP3    H167796   5.834   5.158  11.751 -1.3494 -0.7667  0.2096
15435TIP3    H267797   5.850   5.261  11.860 -0.2090  0.2589 -0.8846
15436TIP3   OH267798   6.152   3.315   6.159 -0.1209 -0.4776  0.1821
15436TIP3    H167799   6.076   3.284   6.209 -1.8083 -1.8440 -2.9300
15436TIP3    H267800   6.174   3.241   6.102  1.5167  1.0361 -1.2514
15437TIP3   OH267801   3.228   2.894  12.067  0.2731 -0.0195 -0.4478
15437TIP3    H167802   3.280   2.814  12.079 -0.1460 -0.1878  0.2993
15437TIP3    H267803   3.175   2.876  11.989  0.0993 -0.5203 -0.2210
15438TIP3   OH267804   6.164   0.571   2.920 -0.3553  0.0673 -0.5323
15438TIP3    H167805   6.190   0.655   2.882 -2.4778  0.4092 -1.3807
15438TIP3    H267806   6.221   0.507   2.878  0.4553  0.9573 -0.8162
15439TIP3   OH267807   1.119   0.638   2.061 -0.1964 -0.4700  0.4250
15439TIP3    H167808   1.174   0.711   2.091 -1.5945  1.1164 -0.7332
15439TIP3    H267809   1.048   0.634   2.125 -1.5130  0.9085 -0.8933
15440TIP3   OH267810   3.074   5.472   4.678 -0.6038 -0.1342 -1.0584
15440TIP3    H167811   3.085   5.558   4.719 -2.5194 -0.1188 -0.5306
15440TIP3    H267812   3.020   5.422   4.738  2.1049 -2.4956 -0.3470
15441TIP3   OH267813   6.723   2.200   2.318  0.5757 -0.3183  0.0174
15441TIP3    H167814   6.714   2.229   2.408 -1.8846 -5.4887  1.8245
15441TIP3    H267815   6.642   2.228   2.275  0.2548 -0.6068  0.4225
15442TIP3   OH267816   4.181   2.628   4.972  0.0535  1.1144  0.6011
15442TIP3    H167817   4.154   2.537   4.956  1.2801  0.4173  2.2589
15442TIP3    H267818   4.113   2.663   5.029  1.6474 -0.1741  3.5195
15443TIP3   OH267819   6.608   6.800  13.046 -0.5190 -0.5855 -0.5715
15443TIP3    H167820   6.691   6.779  13.088 -0.8722  0.5941  0.7760
15443TIP3    H267821   6.550   6.727  13.069 -0.4211 -0.4370  0.1573
15444TIP3   OH267822   1.260   4.589   3.735 -0.0316 -0.8558  0.0648
15444TIP3    H167823   1.177   4.545   3.756 -0.3832  0.4350  1.6021
15444TIP3    H267824   1.289   4.548   3.653 -2.2905 -1.1955 -0.6287
15445TIP3   OH267825   3.391   6.407  13.522 -0.2156  0.4505 -0.2411
15445TIP3    H167826   3.472   6.429  13.476 -0.9819  0.9001 -1.4235
15445TIP3    H267827   3.331   6.479  13.500 -1.9221 -1.3811 -1.9530
15446TIP3   OH267828   4.719   2.419  15.096 -0.9910 -0.4367 -0.2762
15446TIP3    H167829   4.795   2.473  15.074 -1.7812  0.3663 -1.1472
15446TIP3    H267830   4.739   2.333  15.060 -0.4250 -0.2789 -0.3473
15447TIP3   OH267831   2.928   3.100  10.939 -0.7389 -0.0224 -0.2076
15447TIP3    H167832   2.988   3.092  10.865  0.6502 -2.4529  1.0757
15447TIP3    H267833   2.935   3.192  10.966  0.8872  0.2147 -1.3241
15448TIP3   OH267834   4.005   4.306   2.731 -0.2922  0.4949  0.8849
15448TIP3    H167835   3.955   4.230   2.700 -1.7041  2.0238 -0.8170
15448TIP3    H267836   4.096   4.280   2.722 -0.5605  0.4339 -3.9899
15449TIP3   OH267837   1.460   3.908   5.972  0.2079  0.1349  0.1082
15449TIP3    H167838   1.372   3.933   6.000  0.3164  0.0370  0.5412
15449TIP3    H267839   1.504   3.992   5.954  0.4850  0.2593  1.3015
15450TIP3   OH267840   3.750   6.625  16.888  0.7413  0.0475 -0.6887
15450TIP3    H167841   3.719   6.634  16.798  2.4746  1.0679 -1.2412
15450TIP3    H267842   3.828   6.680  16.891  1.8734 -1.5640  0.8850
15451TIP3   OH267843   3.228   6.168   0.057  0.1974 -0.0916 -0.1299
15451TIP3    H167844   3.251   6.260   0.047  0.1623 -0.0928 -0.2186
15451TIP3    H267845   3.294   6.121   0.005 -0.1408 -0.0826 -0.5667
15452TIP3   OH267846   5.041   4.446  12.375  0.1942 -0.0545  0.2368
15452TIP3    H167847   5.125   4.436  12.419  0.9950  0.9427 -0.9652
15452TIP3    H267848   5.026   4.541  12.375  0.1282 -0.0435 -1.4166
15453TIP3   OH267849   6.631   6.457   1.769 -0.0488 -0.5369 -0.7830
15453TIP3    H167850   6.650   6.435   1.678 -1.0790 -1.7341 -0.7365
15453TIP3    H267851   6.548   6.413   1.787 -0.1440  0.1600  0.5682
15454TIP3   OH267852   6.149   4.387   4.353  0.1155 -0.0786  0.1076
15454TIP3    H167853   6.139   4.472   4.309  0.9837  0.5279  1.0235
15454TIP3    H267854   6.103   4.399   4.436 -1.8097 -1.3232 -0.7204
15455TIP3   OH267855   6.168   2.536   3.691 -0.3311 -0.1855 -0.5540
15455TIP3    H167856   6.237   2.546   3.625 -1.3674  0.5037 -1.5682
15455TIP3    H267857   6.121   2.457   3.666 -1.1057  0.4069 -1.0355
15456TIP3   OH267858   5.337   3.985  17.039  0.1752 -0.2068 -0.0477
15456TIP3    H167859   5.354   3.981  16.945 -2.0096  0.9266 -0.5437
15456TIP3    H267860   5.411   4.034  17.075  0.4414  0.3676 -1.3392
15457TIP3   OH267861   1.841   1.060   0.665  0.0981  0.3302 -0.2936
15457TIP3    H167862   1.918   1.087   0.715 -0.0682  1.2565 -0.5145
15457TIP3    H267863   1.767   1.091   0.716 -0.1379 -0.4688 -0.1350
15458TIP3   OH267864   2.577   5.370  17.065 -0.0169  0.0315  0.2387
15458TIP3    H167865   2.556   5.354  17.157  1.2580  1.8579  0.9010
15458TIP3    H267866   2.547   5.291  17.019 -3.0987  0.1625  1.7885
15459TIP3   OH267867   4.682   1.388  14.044  0.1474  0.2590 -0.0365
15459TIP3    H167868   4.674   1.403  13.950  2.2133 -0.9239 -0.4442
15459TIP3    H267869   4.718   1.300  14.052  0.9515  0.7176  1.8330
15460TIP3   OH267870   4.162   3.485   1.436 -0.3255  0.0700 -0.2633
15460TIP3    H167871   4.157   3.465   1.529 -2.8468  1.5492  0.0172
15460TIP3    H267872   4.215   3.565   1.431  0.9668 -0.7699 -0.2779
15461TIP3   OH267873   4.874   6.223  15.995 -0.3216  0.1606 -0.3155
15461TIP3    H167874   4.912   6.302  15.955  0.7621 -0.0979  0.1486
15461TIP3    H267875   4.821   6.257  16.067 -0.8582  0.5246 -0.8690
15462TIP3   OH267876   1.711   5.666   1.976  0.0115 -0.2265  0.5495
15462TIP3    H167877   1.786   5.627   1.931 -1.8866  0.3375 -3.4709
15462TIP3    H267878   1.658   5.592   2.004  0.1054 -0.5856 -0.2160
15463TIP3   OH267879   5.064   4.686   5.745  0.1264 -0.0656  0.2059
15463TIP3    H167880   5.128   4.622   5.779 -0.8222 -0.1617  1.8936
15463TIP3    H267881   5.058   4.752   5.813 -0.9063  0.4233 -0.3404
15464TIP3   OH267882   1.403   0.059  16.579  0.3434 -0.8643  0.0409
15464TIP3    H167883   1.314   0.026  16.593 -0.7609  1.9148  0.3833
15464TIP3    H267884   1.433   0.084  16.666  0.3849  0.5794 -0.3587
15465TIP3   OH267885   2.837   3.338  12.207 -0.0057 -0.0377 -0.0428
15465TIP3    H167886   2.827   3.251  12.244  0.9240  0.6312  1.8957
15465TIP3    H267887   2.879   3.390  12.276  0.0177  1.7996 -1.3433
15466TIP3   OH267888   0.009   2.123  15.150  0.3406 -0.1388  0.3900
15466TIP3    H167889  -0.063   2.152  15.093  0.8044  0.9737  0.3386
15466TIP3    H267890  -0.007   2.029  15.163 -0.3971 -0.1827 -0.6683
15467TIP3   OH267891   4.611   0.938  14.658  0.1647 -0.3690  0.4836
15467TIP3    H167892   4.626   0.982  14.575 -1.1295  0.8399  0.8505
15467TIP3    H267893   4.575   0.853  14.634  0.6224 -0.3857 -0.1855
15468TIP3   OH267894   0.242   5.097   0.055  0.0951 -0.5650 -0.1171
15468TIP3    H167895   0.147   5.086   0.056  0.2798 -2.3176  0.7036
15468TIP3    H267896   0.266   5.106   0.147  0.6400  1.0693 -0.3803
15469TIP3   OH267897   6.151   6.418  15.776  0.4541 -0.6623  0.6415
15469TIP3    H167898   6.107   6.336  15.755  2.0087 -1.1962 -0.8212
15469TIP3    H267899   6.183   6.406  15.866  2.7013 -2.6950 -0.3308
15470TIP3   OH267900   6.283   3.327   3.019  0.1122 -0.5625  0.4583
15470TIP3    H167901   6.199   3.342   2.975 -0.3627 -0.0689  1.4989
15470TIP3    H267902   6.333   3.407   3.004 -0.2661 -0.1625  1.2633
15471TIP3   OH267903   6.076   2.595  11.719 -1.1819  0.6927 -0.0541
15471TIP3    H167904   6.149   2.623  11.664 -0.8397  0.9417  0.5173
15471TIP3    H267905   6.039   2.520  11.672 -1.1828  1.1771 -0.8477
15472TIP3   OH267906   4.831   4.410   2.385  0.3192  0.1201 -0.7410
15472TIP3    H167907   4.926   4.419   2.392  0.3987 -1.3108  1.0285
15472TIP3    H267908   4.796   4.497   2.407  1.2039  0.5818 -1.1440
15473TIP3   OH267909   5.673   2.830  14.768 -0.1171  0.4038 -0.4215
15473TIP3    H167910   5.672   2.750  14.717  0.7551  1.0050 -1.4185
15473TIP3    H267911   5.587   2.870  14.753 -0.3097 -0.0207 -0.4423
15474TIP3   OH267912   2.063   2.529  16.319  0.0788  1.0328  0.3072
15474TIP3    H167913   2.134   2.484  16.273 -0.9265 -0.6199  0.2795
15474TIP3    H267914   2.083   2.519  16.412 -0.5982 -0.3188  0.3276
15475TIP3   OH267915   4.853   6.717  11.579 -0.0370 -0.0388  0.4212
15475TIP3    H167916   4.820   6.785  11.638 -0.1329 -1.2605  1.8429
15475TIP3    H267917   4.775   6.683  11.535 -0.1586 -0.1001  0.6823
15476TIP3   OH267918   0.368   4.562   5.447  0.2712 -0.1529  0.4003
15476TIP3    H167919   0.339   4.497   5.383  0.3095 -1.6595  1.8459
15476TIP3    H267920   0.287   4.587   5.493  0.8173 -3.1279  3.3230
15477TIP3   OH267921   5.794   1.607   3.294 -0.0336  0.3024  0.0366
15477TIP3    H167922   5.845   1.548   3.238  1.1910  1.5519 -0.2241
15477TIP3    H267923   5.850   1.624   3.369 -0.4157  1.0331  0.1698
15478TIP3   OH267924   2.527   3.367  14.163  0.9001  0.6094  0.4766
15478TIP3    H167925   2.442   3.328  14.183  1.2635 -1.0582 -0.9551
15478TIP3    H267926   2.569   3.304  14.105  2.8061  1.7727  0.5075
15479TIP3   OH267927   3.917   4.817   3.667  0.0498 -0.5704 -0.3652
15479TIP3    H167928   4.011   4.801   3.663 -0.1018 -1.6777  0.1309
15479TIP3    H267929   3.909   4.912   3.674  1.1367 -0.4798 -0.2384
15480TIP3   OH267930   1.870   1.390  15.540 -0.0730  0.3488  0.1609
15480TIP3    H167931   1.953   1.343  15.550 -0.0881  0.0752 -0.8508
15480TIP3    H267932   1.821   1.337  15.477 -0.3410  1.3924 -0.5295
15481TIP3   OH267933   0.320   4.484  16.420 -0.3967  0.3147 -0.0845
15481TIP3    H167934   0.278   4.510  16.338  1.6205 -3.7771 -2.7620
15481TIP3    H267935   0.258   4.423  16.460 -0.0444 -0.1547 -0.2516
15482TIP3   OH267936   2.120   2.724  16.029  0.0858  0.0145  0.2329
15482TIP3    H167937   2.212   2.720  16.056  0.2701  3.3588  0.5086
15482TIP3    H267938   2.123   2.724  15.933  0.4082  0.4099  0.2400
15483TIP3   OH267939   6.720   3.516  14.571 -0.0991 -0.3202 -0.2531
15483TIP3    H167940   6.659   3.553  14.507  1.8907  0.2870 -1.9100
15483TIP3    H267941   6.714   3.574  14.647  0.8682  1.8357 -1.7265
15484TIP3   OH267942   5.599   5.167   6.194  0.0432  0.8523 -0.0422
15484TIP3    H167943   5.599   5.079   6.155  0.5723  0.4298  0.8691
15484TIP3    H267944   5.688   5.178   6.227 -0.4990  0.9757  1.4805
15485TIP3   OH267945   1.748   2.100  13.326 -0.0357 -0.4619  0.0206
15485TIP3    H167946   1.683   2.058  13.382 -2.6097  0.7146 -1.8781
15485TIP3    H267947   1.733   2.194  13.338  1.6771 -0.1426 -0.1199
15486TIP3   OH267948   4.130   2.798  16.640  0.4755  0.5266  0.0743
15486TIP3    H167949   4.042   2.817  16.609  0.2926 -1.4851 -0.7645
15486TIP3    H267950   4.177   2.881  16.631 -0.6240  0.9849 -1.9739
15487TIP3   OH267951   2.299   0.302  13.396 -0.3765  0.0316  0.1213
15487TIP3    H167952   2.350   0.232  13.437  1.8523  0.1479 -2.2262
15487TIP3    H267953   2.297   0.279  13.303  0.0065  2.7813 -0.6635
15488TIP3   OH267954   5.566   4.675   2.181 -0.1833 -0.2314  0.2386
15488TIP3    H167955   5.489   4.680   2.123 -0.2394 -0.7028  0.2690
15488TIP3    H267956   5.570   4.761   2.222 -0.8498 -0.2834  0.4250
15489TIP3   OH267957   2.275   5.013   4.160 -0.6856 -0.2708  0.3743
15489TIP3    H167958   2.277   4.933   4.213  3.2802 -0.4335  0.2898
15489TIP3    H267959   2.277   4.980   4.069  0.8907 -0.1675  0.3396
15490TIP3   OH267960   0.369   2.621   0.252  0.0151  0.2204  0.5964
15490TIP3    H167961   0.360   2.542   0.198  3.4865 -1.4256  2.0587
15490TIP3    H267962   0.335   2.595   0.338  0.2537  0.6422  0.8224
15491TIP3   OH267963   5.527   1.279  15.151 -0.1420  0.2050  0.3545
15491TIP3    H167964   5.520   1.188  15.120  2.0071  0.5934 -1.5351
15491TIP3    H267965   5.621   1.294  15.160 -0.1378  3.1289 -2.5565
15492TIP3   OH267966   4.539   2.632  12.420 -0.5997 -0.4402 -0.0753
15492TIP3    H167967   4.613   2.685  12.392 -1.9728  1.0005 -1.1436
15492TIP3    H267968   4.578   2.550  12.450  1.5417  0.9217  1.0581
15493TIP3   OH267969   0.052   2.481   0.686  0.9128  0.4975 -0.2676
15493TIP3    H167970  -0.023   2.539   0.700  0.3743 -0.2230 -0.0871
15493TIP3    H267971   0.123   2.521   0.736  0.5634  1.0336 -0.1976
15494TIP3   OH267972   5.871   5.802   5.915 -0.1083 -0.2028 -0.0857
15494TIP3    H167973   5.896   5.759   5.996 -1.5983 -0.2029  0.4085
15494TIP3    H267974   5.953   5.811   5.866  1.2055  1.5764  2.2222
15495TIP3   OH267975   6.273   2.555  14.122  0.2774 -0.0830 -0.0970
15495TIP3    H167976   6.267   2.467  14.160 -0.6442 -0.6103 -1.4019
15495TIP3    H267977   6.269   2.614  14.198  0.3525 -1.1480  0.7519
15496TIP3   OH267978   5.722   0.051  15.469 -0.1440 -0.1786 -0.1009
15496TIP3    H167979   5.711   0.051  15.374  1.0693 -1.5607 -0.2715
15496TIP3    H267980   5.744   0.142  15.491 -2.1078  0.5534 -0.8849
15497TIP3   OH267981   1.023   2.173  16.461  0.0702 -0.4726  0.2588
15497TIP3    H167982   1.064   2.232  16.525 -1.9357 -0.5246  1.7022
15497TIP3    H267983   0.993   2.232  16.391 -1.3685  0.1971  1.3898
15498TIP3   OH267984   5.789   0.159  16.970  0.0163 -0.0110  0.5714
15498TIP3    H167985   5.830   0.078  16.940  0.2709  0.4500 -0.3597
15498TIP3    H267986   5.695   0.138  16.976  0.1610 -0.5585  0.9943
15499TIP3   OH267987   5.315   1.229   1.083 -0.0349  0.1044  0.9145
15499TIP3    H167988   5.246   1.269   1.030  0.9609  0.0138 -0.5024
15499TIP3    H267989   5.274   1.152   1.121 -0.6171 -0.1948 -0.2622
15500TIP3   OH267990   2.183   3.633  12.843  0.3385  0.3969  0.7623
15500TIP3    H167991   2.158   3.722  12.819 -0.2772  0.2028  0.6844
15500TIP3    H267992   2.228   3.600  12.766 -1.1283 -0.0233  0.0614
15501TIP3   OH267993   6.537   3.324  14.949 -0.0891  0.2326  0.1615
15501TIP3    H167994   6.608   3.285  14.898  0.9552  0.7994  1.1403
15501TIP3    H267995   6.561   3.307  15.040 -0.4895  1.6503  0.5501
15502TIP3   OH267996   0.699   3.524  14.026  0.3248 -0.5260  0.0293
15502TIP3    H167997   0.772   3.510  13.966  1.0376 -0.3939  0.8380
15502TIP3    H267998   0.721   3.470  14.102 -0.0781  0.0461  0.5581
15503TIP3   OH267999   1.697   1.282  12.938  0.6949  0.2523  0.0967
15503TIP3    H168000   1.631   1.309  13.002 -0.6791  1.2265 -1.6319
15503TIP3    H268001   1.717   1.361  12.889  0.6526 -0.7032 -1.5513
15504TIP3   OH268002   1.855   5.511  14.059  0.0315 -0.1881 -0.9927
15504TIP3    H168003   1.896   5.551  13.982  0.6086 -0.3613 -0.7774
15504TIP3    H268004   1.928   5.487  14.116 -0.3371 -1.0178 -0.8523
15505TIP3   OH268005   4.255   0.398   2.400  0.3717  0.2193 -0.5621
15505TIP3    H168006   4.271   0.469   2.463  1.5292 -0.7068  0.2302
15505TIP3    H268007   4.248   0.319   2.454 -1.6657 -0.2079 -1.3697
15506TIP3   OH268008   6.538   2.621   5.079  0.2295 -0.8957 -0.0795
15506TIP3    H168009   6.559   2.673   5.157 -0.8233  0.7585 -0.8288
15506TIP3    H268010   6.552   2.681   5.006  0.2279 -2.0999 -1.1048
15507TIP3   OH268011   3.669   3.633  10.442 -0.5482 -0.0256 -0.7564
15507TIP3    H168012   3.690   3.670  10.528 -1.8590 -2.5387  0.8002
15507TIP3    H268013   3.587   3.675  10.417 -0.8569 -0.2221 -0.1027
15508TIP3   OH268014   6.364   6.310  13.332 -0.2604  0.1178 -0.0740
15508TIP3    H168015   6.377   6.357  13.249  0.9115  1.1102  0.6221
15508TIP3    H268016   6.293   6.249  13.314 -1.0007  1.2896 -1.4088
15509TIP3   OH268017   0.699   5.160   4.301  0.2228 -0.8285 -0.6663
15509TIP3    H168018   0.732   5.088   4.354 -0.3742 -0.7672 -0.1999
15509TIP3    H268019   0.633   5.203   4.356  0.7862  0.2659 -0.8263
15510TIP3   OH268020   3.781   3.466   3.679 -0.2379 -0.3749  0.1452
15510TIP3    H168021   3.840   3.529   3.637 -0.7284 -0.6731 -1.0313
15510TIP3    H268022   3.694   3.503   3.665 -0.5100 -1.1786 -0.3459
15511TIP3   OH268023   6.676   6.696   2.959  0.0730  0.5884  0.1028
15511TIP3    H168024   6.747   6.676   2.898  0.2400  0.1604  0.4265
15511TIP3    H268025   6.717   6.755   3.024 -0.4148  2.0178 -0.8436
15512TIP3   OH268026   2.691   1.296   4.046 -0.0972 -0.8344  0.2756
15512TIP3    H168027   2.741   1.374   4.069  0.0704 -0.9941  0.4633
15512TIP3    H268028   2.638   1.278   4.124 -2.3355  0.7661 -0.7766
15513TIP3   OH268029   3.857   3.406   4.785 -0.1352 -0.0351 -0.2112
15513TIP3    H168030   3.809   3.354   4.720  0.5605  0.5251 -1.2140
15513TIP3    H268031   3.939   3.360   4.796  0.1832  0.4358 -0.5524
15514TIP3   OH268032   6.411   6.146  16.738  0.2055  0.0633 -0.3246
15514TIP3    H168033   6.462   6.185  16.809 -0.0979  0.4627 -0.3297
15514TIP3    H268034   6.443   6.190  16.659 -0.9192  1.1223 -0.2130
15515TIP3   OH268035   2.594   5.940  13.742 -0.5842 -0.1492  0.3568
15515TIP3    H168036   2.575   6.025  13.782 -0.3882  0.3434 -0.5583
15515TIP3    H268037   2.543   5.939  13.661 -1.0542 -1.1655  0.6468
15516TIP3   OH268038   6.784   2.428  16.947 -0.1894  0.0199 -0.3301
15516TIP3    H168039   6.842   2.483  16.999 -0.3571 -0.3270  0.2387
15516TIP3    H268040   6.825   2.341  16.947 -0.9438 -0.3654  0.5253
15517TIP3   OH268041   5.560   4.198   6.161 -0.1241  0.1667 -0.0170
15517TIP3    H168042   5.538   4.201   6.254 -0.6891  1.7289 -0.1747
15517TIP3    H268043   5.544   4.287   6.129  1.4135  0.0317 -1.3133
15518TIP3   OH268044   4.465   2.753  12.852 -0.3367 -0.1249 -0.2725
15518TIP3    H168045   4.387   2.808  12.859 -0.9547 -0.8240 -1.2810
15518TIP3    H268046   4.474   2.713  12.938 -1.4436 -0.4671 -0.2995
15519TIP3   OH268047   3.117   2.375  11.287 -0.3735  0.2762 -0.4718
15519TIP3    H168048   3.081   2.412  11.206  1.2096 -0.0970 -1.3841
15519TIP3    H268049   3.150   2.451  11.335 -0.0295  0.3675 -0.8448
15520TIP3   OH268050   4.631   5.016  13.009  0.0101  0.1131 -0.1751
15520TIP3    H168051   4.548   5.061  13.023  0.4279  0.1194  3.0509
15520TIP3    H268052   4.668   5.007  13.097  2.2674 -2.0985 -1.2386
15521TIP3   OH268053   1.132   5.105   5.370 -0.3160 -0.7966 -0.2317
15521TIP3    H168054   1.118   5.199   5.380 -0.1331 -0.8075  0.1508
15521TIP3    H268055   1.192   5.098   5.296  0.0480 -0.5824  0.0384
15522TIP3   OH268056   3.781   5.381  13.416 -0.5210 -0.7147  0.3788
15522TIP3    H168057   3.803   5.309  13.357  1.3022  1.2243 -1.4921
15522TIP3    H268058   3.711   5.428  13.371  0.5518  0.4991 -0.1161
15523TIP3   OH268059   0.997   6.176   6.308 -0.1278 -0.1641  0.0570
15523TIP3    H168060   1.084   6.143   6.287 -0.1127 -0.8904  1.1410
15523TIP3    H268061   1.010   6.270   6.325  0.3523 -0.1736 -0.2382
15524TIP3   OH268062   4.171   0.503  12.682 -0.0943 -0.3566  0.2313
15524TIP3    H168063   4.136   0.414  12.672 -1.6827  0.2956 -0.2545
15524TIP3    H268064   4.126   0.555  12.615  0.1833  1.0010  1.0578
15525TIP3   OH268065   4.635   3.084  14.856  0.3476  0.3699  0.1557
15525TIP3    H168066   4.640   3.021  14.784  0.2305  1.0898 -0.5047
15525TIP3    H268067   4.550   3.068  14.897  0.8989 -0.8212  0.8882
15526TIP3   OH268068   1.314   6.061  12.817 -0.7696  0.0899  0.4798
15526TIP3    H168069   1.321   5.977  12.862 -0.9600 -0.7203 -0.9264
15526TIP3    H268070   1.220   6.076  12.807 -0.7311 -0.0139 -0.0982
15527TIP3   OH268071   3.156   0.026   4.825 -0.3864 -0.2472  0.5657
15527TIP3    H168072   3.197   0.109   4.849  1.0203 -0.9597  0.6754
15527TIP3    H268073   3.227  -0.038   4.825 -1.0893 -1.1084 -1.3269
15528TIP3   OH268074   6.347   6.579   2.005 -0.1744 -0.4048 -0.5381
15528TIP3    H168075   6.409   6.577   2.079 -1.4346  0.7104  0.6128
15528TIP3    H268076   6.341   6.488   1.976  0.5498 -0.8287  0.5595
15529TIP3   OH268077   2.497   5.871   3.897  0.7738 -0.0993 -0.1620
15529TIP3    H168078   2.562   5.831   3.839  1.5401 -1.3406  1.4763
15529TIP3    H268079   2.415   5.869   3.847  1.7282  0.4359 -1.8211
15530TIP3   OH268080   1.137   6.390   6.771 -0.0093  0.1392 -0.7734
15530TIP3    H168081   1.140   6.301   6.734  0.7850  0.3683 -1.2845
15530TIP3    H268082   1.160   6.447   6.697 -3.3011  1.0540 -1.2346
15531TIP3   OH268083   2.148   4.240   4.980  0.4414  0.2133  0.0964
15531TIP3    H168084   2.196   4.235   4.897 -0.3709  0.4710 -0.4041
15531TIP3    H268085   2.166   4.156   5.023  2.9380  1.0621  0.8506
15532TIP3   OH268086   1.957   2.917  14.153  0.0264 -0.1432 -0.0914
15532TIP3    H168087   2.022   2.899  14.085  1.0541  0.6851  0.6296
15532TIP3    H268088   2.004   2.903  14.235  0.4377  3.7379  0.5306
15533TIP3   OH268089   4.709   0.838   4.957  0.7081  0.3135 -0.0066
15533TIP3    H168090   4.719   0.786   4.878 -0.5563  1.8460 -1.2322
15533TIP3    H268091   4.695   0.773   5.027  1.6560 -1.0514 -1.0400
15534TIP3   OH268092   1.366   4.261   4.458  0.4483  0.5159 -0.0445
15534TIP3    H168093   1.348   4.281   4.367  1.7878  0.1892 -0.4005
15534TIP3    H268094   1.424   4.185   4.456  0.1864  0.2584  1.0910
15535TIP3   OH268095   0.722   1.844  13.792 -0.0923  0.1452 -0.9605
15535TIP3    H168096   0.779   1.918  13.769  1.1936 -1.1236 -2.0672
15535TIP3    H268097   0.708   1.854  13.886  0.2891  1.6212 -1.0308
15536TIP3   OH268098   2.325   3.800  12.125 -0.2046  0.1790 -0.4219
15536TIP3    H168099   2.279   3.806  12.041  1.3419  2.1760 -1.2194
15536TIP3    H268100   2.401   3.743  12.107 -1.0991 -1.2876  0.2896
15537TIP3   OH268101   0.258   4.868  10.493  0.0279  0.6793 -0.5157
15537TIP3    H168102   0.297   4.948  10.528 -2.1889  1.1688  1.0961
15537TIP3    H268103   0.165   4.877  10.514 -0.3910 -2.0215 -0.9316
15538TIP3   OH268104   5.175   1.430   4.090 -0.5045  1.0314 -0.1193
15538TIP3    H168105   5.169   1.501   4.026  0.8166  0.3984 -0.9903
15538TIP3    H268106   5.085   1.400   4.101 -0.7407  0.9369 -1.9594
15539TIP3   OH268107   2.594   4.917  16.761 -0.7665  0.8534 -0.4854
15539TIP3    H168108   2.583   4.981  16.832 -3.9504  0.9560 -0.9392
15539TIP3    H268109   2.601   4.971  16.682 -1.0655  0.6892 -0.6246
15540TIP3   OH268110   0.421   4.213  10.380 -0.2451  0.2024  0.4437
15540TIP3    H168111   0.415   4.118  10.366 -0.4912 -0.0105  1.8297
15540TIP3    H268112   0.485   4.222  10.451  0.2644  1.1288 -0.1203
15541TIP3   OH268113   3.633   0.544   5.119  0.2313  0.5827  0.1090
15541TIP3    H168114   3.697   0.610   5.091  0.2372  0.2239 -0.7338
15541TIP3    H268115   3.565   0.545   5.051 -0.3316  0.4941  0.6565
15542TIP3   OH268116   1.849   1.052   6.181 -0.0422 -0.6202 -0.4633
15542TIP3    H168117   1.840   1.085   6.270 -0.4370 -1.6649 -0.1012
15542TIP3    H268118   1.759   1.036   6.153 -0.0057  0.7891 -1.4921
15543TIP3   OH268119   2.117   5.673  13.640 -0.1100 -0.5095 -0.1807
15543TIP3    H168120   2.099   5.650  13.549 -0.8848 -0.0420 -0.1551
15543TIP3    H268121   2.127   5.768  13.639  1.2309 -0.6326  0.0137
15544TIP3   OH268122   2.787   3.711  12.756 -0.3256 -0.5354  0.1718
15544TIP3    H168123   2.847   3.637  12.771  1.4550  0.5601 -1.0413
15544TIP3    H268124   2.702   3.670  12.739  0.1406 -2.1894  1.4812
15545TIP3   OH268125   1.289   3.129   1.454  0.5496 -0.4867 -0.2220
15545TIP3    H168126   1.311   3.166   1.368 -1.9906  2.8828  0.3534
15545TIP3    H268127   1.255   3.204   1.503  1.1833 -2.4599  3.5055
15546TIP3   OH268128   1.000   3.346   0.549 -0.1709  0.3015  0.0970
15546TIP3    H168129   0.972   3.333   0.639 -0.7002 -1.7557 -0.3017
15546TIP3    H268130   1.094   3.363   0.555 -0.0739 -0.4887  1.0232
15547TIP3   OH268131   1.981   2.336   5.147  0.0764 -0.0012 -0.1757
15547TIP3    H168132   1.899   2.300   5.112  0.4321 -1.2099  0.2019
15547TIP3    H268133   1.955   2.378   5.229 -0.4546  1.2526 -0.9551
15548TIP3   OH268134   6.133   0.693  13.666  0.6823 -0.1291  0.2325
15548TIP3    H168135   6.186   0.699  13.586  0.3409  2.0063  0.1149
15548TIP3    H268136   6.053   0.742  13.645 -1.0746 -2.5938  0.6714
15549TIP3   OH268137   5.432   5.215  15.634  0.2457  0.6286 -0.2278
15549TIP3    H168138   5.473   5.277  15.694  0.6283 -0.7036  0.9273
15549TIP3    H268139   5.438   5.131  15.678  1.1562 -0.5495 -2.4359
15550TIP3   OH268140   5.845   3.345  16.469  0.1008  0.4425  0.3650
15550TIP3    H168141   5.896   3.361  16.389 -0.1624 -0.3731  0.0145
15550TIP3    H268142   5.873   3.413  16.530  1.0428  0.4698 -0.0806
15551TIP3   OH268143   5.922   3.660   3.238 -0.4873  0.0725 -0.2537
15551TIP3    H168144   5.867   3.628   3.167  0.3919 -0.1883 -0.8308
15551TIP3    H268145   5.884   3.745   3.262 -1.9262 -0.6885  0.2620
15552TIP3   OH268146   1.344   5.627  12.458  0.0441  0.3212  0.0288
15552TIP3    H168147   1.406   5.671  12.400  0.6053  0.6463  0.8540
15552TIP3    H268148   1.395   5.557  12.498  0.1911  1.2656  1.5338
15553TIP3   OH268149   5.417   2.453  11.799  0.7406  0.2907 -0.4850
15553TIP3    H168150   5.426   2.541  11.835 -0.1539  0.1619  0.0633
15553TIP3    H268151   5.347   2.461  11.734  0.5031 -0.0665 -0.2714
15554TIP3   OH268152   1.002   3.552  12.551 -0.8878  0.2719 -0.2730
15554TIP3    H168153   0.924   3.499  12.536 -0.5716 -0.1033 -0.5950
15554TIP3    H268154   1.005   3.563  12.646 -1.0247 -0.1858 -0.2127
15555TIP3   OH268155   0.384   1.982  10.461  0.1419  0.2365 -0.0217
15555TIP3    H168156   0.345   1.909  10.413  1.5439 -1.1616  0.8404
15555TIP3    H268157   0.479   1.969  10.450  0.5483 -0.1818  3.0160
15556TIP3   OH268158   2.662   5.299   4.152 -0.1316  0.3961  0.0289
15556TIP3    H168159   2.677   5.351   4.072  0.9382 -0.6679 -0.4859
15556TIP3    H268160   2.741   5.314   4.204  0.4101 -1.0748 -0.3411
15557TIP3   OH268161   3.166   2.240   5.371 -0.5709 -0.1882 -0.4432
15557TIP3    H168162   3.231   2.198   5.316 -0.1611 -0.3698  0.1690
15557TIP3    H268163   3.193   2.219   5.460 -1.9245 -0.9762 -0.1867
15558TIP3   OH268164   0.280   5.581  11.573 -0.5595 -0.6569  0.1171
15558TIP3    H168165   0.325   5.665  11.561 -0.1512 -0.8175  0.4964
15558TIP3    H268166   0.189   5.598  11.549 -0.2786 -0.3526 -0.7883
15559TIP3   OH268167   4.340   3.066   3.076 -0.1205  0.0620  0.1728
15559TIP3    H168168   4.267   3.092   3.132  0.4871 -1.1804  1.6067
15559TIP3    H268169   4.394   3.010   3.132  1.7055  0.5909 -0.9718
15560TIP3   OH268170   2.526   3.194   0.812  0.3172  0.1994 -0.0725
15560TIP3    H168171   2.547   3.256   0.881 -0.0005 -0.8505  1.0151
15560TIP3    H268172   2.593   3.207   0.745  2.5057 -0.7863  1.7759
15561TIP3   OH268173   5.852   1.125   1.824  0.0839  0.0358  0.3168
15561TIP3    H168174   5.903   1.185   1.769  0.5083  0.4878  1.1881
15561TIP3    H268175   5.917   1.064   1.859 -0.4287 -1.3744 -1.0871
15562TIP3   OH268176   0.418   2.324   0.168  0.1018 -0.3756  0.0625
15562TIP3    H168177   0.491   2.323   0.231  1.0844 -3.4826 -0.9654
15562TIP3    H268178   0.346   2.283   0.215 -0.3911  0.8243  0.3881
15563TIP3   OH268179   4.358   0.520   2.099  1.1762  0.3960  0.0106
15563TIP3    H168180   4.327   0.452   2.159  0.2935  1.6774  1.0590
15563TIP3    H268181   4.280   0.571   2.078  1.3324 -0.3826 -2.7763
15564TIP3   OH268182   6.465   0.722   4.279  0.2907 -0.2063 -0.2084
15564TIP3    H168183   6.464   0.627   4.277 -1.6070 -0.2172 -1.0041
15564TIP3    H268184   6.397   0.748   4.217 -0.5460  1.6346  1.3672
15565TIP3   OH268185   0.613   1.937  13.184 -0.2174 -0.5412 -0.4223
15565TIP3    H168186   0.636   1.987  13.106 -1.0150  0.5600  0.0264
15565TIP3    H268187   0.634   1.846  13.162 -0.2642 -0.2177 -1.8408
15566TIP3   OH268188   0.411   2.960   0.208 -0.3933  0.3174 -0.9101
15566TIP3    H168189   0.363   3.037   0.238  0.2092  0.8420 -1.2723
15566TIP3    H268190   0.400   2.896   0.279 -0.3963  0.9506 -0.3300
15567TIP3   OH268191   1.125   2.585  12.204  0.0536  0.1840  0.6377
15567TIP3    H168192   1.148   2.559  12.115 -1.3269  1.4602 -0.1402
15567TIP3    H268193   1.190   2.651  12.228  0.5154 -0.2680  0.6597
15568TIP3   OH268194   1.713   1.194   4.640  0.4452  0.5095 -0.3538
15568TIP3    H168195   1.780   1.245   4.686  0.1773  1.7406 -1.2984
15568TIP3    H268196   1.648   1.174   4.708  0.8576  0.8890  0.1651
15569TIP3   OH268197   4.971   1.028   2.968  0.3607 -0.2472  0.7084
15569TIP3    H168198   4.896   1.041   2.909  0.3989 -2.0592  0.1944
15569TIP3    H268199   4.977   1.110   3.018 -1.3526  0.3067  0.0818
15570TIP3   OH268200   6.427   1.368   3.942 -0.2645  0.6314  0.1297
15570TIP3    H168201   6.501   1.324   3.984 -0.8553  1.2546  1.9105
15570TIP3    H268202   6.438   1.349   3.849  0.1929 -2.2258  0.6642
15571TIP3   OH268203   0.462   5.255   4.139 -0.0475 -0.5380  0.6264
15571TIP3    H168204   0.449   5.285   4.229  1.2678  1.2782  0.2558
15571TIP3    H268205   0.511   5.325   4.097 -2.0108 -0.6099 -1.9907
15572TIP3   OH268206   3.766   3.904   0.491 -0.7193 -0.0438  0.2614
15572TIP3    H168207   3.781   3.994   0.461  0.0383 -0.0814  0.5031
15572TIP3    H268208   3.767   3.851   0.412 -2.9504  0.3607 -0.0863
15573TIP3   OH268209   0.536   1.591  11.420  0.2866 -0.0404 -0.2871
15573TIP3    H168210   0.448   1.617  11.394 -0.6049 -0.6976  1.8413
15573TIP3    H268211   0.527   1.567  11.513  2.7446  0.0609  0.0325
15574TIP3   OH268212   2.231   4.536   5.844  0.1989 -0.1523 -0.1566
15574TIP3    H168213   2.211   4.605   5.780 -0.1191 -0.0632  0.0373
15574TIP3    H268214   2.183   4.562   5.922 -1.3011 -1.4803 -0.5908
15575TIP3   OH268215   3.190   3.317  12.963  0.1652 -0.3353  0.0756
15575TIP3    H168216   3.261   3.332  12.901  0.2858 -3.0344 -0.5585
15575TIP3    H268217   3.206   3.380  13.034  1.0144  1.6347 -1.7437
15576TIP3   OH268218   5.090   6.369  12.739  0.3148 -0.2059 -0.1918
15576TIP3    H168219   5.080   6.463  12.724 -0.3087 -0.0118  1.2378
15576TIP3    H268220   5.043   6.353  12.821  3.1974 -1.1441  1.4280
15577TIP3   OH268221   2.128   4.135   6.608 -0.0732  0.4529  0.0274
15577TIP3    H168222   2.200   4.189   6.641  1.8042 -0.5647 -2.0708
15577TIP3    H268223   2.059   4.198   6.585  0.0889  1.4611  2.0630
15578TIP3   OH268224   5.661   5.616  11.292  0.2699 -0.3418 -0.0957
15578TIP3    H168225   5.716   5.613  11.213  1.4952 -0.4059  0.7322
15578TIP3    H268226   5.668   5.706  11.322 -1.4751  0.0948 -0.9106
15579TIP3   OH268227   5.447   4.430   3.903  0.7434  0.6083 -0.1271
15579TIP3    H168228   5.371   4.388   3.942  0.5247  0.5576 -0.6014
15579TIP3    H268229   5.411   4.491   3.839  1.0316  1.9870  0.9775
15580TIP3   OH268230   1.644   3.940   2.016 -0.0754 -0.0529 -0.3119
15580TIP3    H168231   1.650   4.035   2.019  0.2500 -0.0892  1.3829
15580TIP3    H268232   1.671   3.917   1.928  0.0860  1.4109 -0.6699
15581TIP3   OH268233   1.743   0.910   1.064  0.0263  0.0543  0.2859
15581TIP3    H168234   1.794   0.832   1.087  0.9304  0.7999  0.8753
15581TIP3    H268235   1.808   0.980   1.057 -0.7602  0.7433 -0.3314
15582TIP3   OH268236   0.345   2.055  11.680  0.5126 -0.1690  0.1591
15582TIP3    H168237   0.428   2.022  11.713 -0.2269 -0.9120  1.3768
15582TIP3    H268238   0.303   2.095  11.757 -0.7085 -0.8036 -0.1424
15583TIP3   OH268239   4.356   0.850   6.120 -0.2842 -0.3323  0.0567
15583TIP3    H168240   4.383   0.922   6.176  1.3042  1.3422 -2.6264
15583TIP3    H268241   4.261   0.861   6.111 -0.0689  1.5902 -0.3955
15584TIP3   OH268242   3.585   6.212   1.242  0.3875 -0.7013  0.1504
15584TIP3    H168243   3.555   6.168   1.321 -0.8704 -0.0538  0.0692
15584TIP3    H268244   3.528   6.179   1.172  1.6987 -1.5177 -0.5687
15585TIP3   OH268245   4.089   0.094  13.562 -0.9715 -0.2831 -0.3232
15585TIP3    H168246   4.160   0.121  13.504 -0.6773 -3.0061 -1.3476
15585TIP3    H268247   4.076   0.170  13.620  1.5431  0.9648 -1.2389
15586TIP3   OH268248   6.156   6.315   3.541 -0.1687 -0.3032  0.4301
15586TIP3    H168249   6.237   6.357   3.568 -0.0146 -0.2083 -0.1528
15586TIP3    H268250   6.151   6.234   3.592 -0.3016  0.2573  1.3219
15587TIP3   OH268251   2.768   0.848  15.614  0.1501 -0.4952 -0.2739
15587TIP3    H168252   2.758   0.816  15.524  0.6407  1.3084 -1.0236
15587TIP3    H268253   2.690   0.818  15.660  0.7717 -3.0789 -0.7476
15588TIP3   OH268254   3.404   0.205   6.413  0.2901 -0.6260  0.5329
15588TIP3    H168255   3.401   0.301   6.421 -0.1246 -0.6785  1.1036
15588TIP3    H268256   3.458   0.177   6.487  0.0551 -0.8556  0.6194
15589TIP3   OH268257   3.280   5.813  12.572 -0.1191 -0.1266 -0.4411
15589TIP3    H168258   3.211   5.749  12.553  1.3419 -2.7174  2.0913
15589TIP3    H268259   3.241   5.870  12.639 -1.4499  1.8674 -2.7498
15590TIP3   OH268260   4.835   2.019   1.608  0.4286  0.1867  0.4967
15590TIP3    H168261   4.888   1.941   1.623  0.3664 -0.1090 -0.6906
15590TIP3    H268262   4.895   2.081   1.567  0.0536  0.1224 -0.1592
15591TIP3   OH268263   5.358   6.377   4.410  0.7678 -0.3208 -0.1543
15591TIP3    H168264   5.433   6.405   4.462  0.6459  1.1505 -0.7106
15591TIP3    H268265   5.382   6.290   4.377  1.2026 -0.9107  1.6072
15592TIP3   OH268266   4.660   4.143  15.949  0.2157 -0.6538 -0.4010
15592TIP3    H168267   4.696   4.232  15.949 -1.0004 -0.1078 -2.1993
15592TIP3    H268268   4.584   4.149  16.007  1.2321 -1.0541  1.0250
15593TIP3   OH268269   3.152   2.885  11.083 -0.7425  0.2891  0.3211
15593TIP3    H168270   3.111   2.798  11.074 -0.9597  0.5532 -1.9953
15593TIP3    H268271   3.078   2.946  11.077 -0.4589  0.6595  0.6063
15594TIP3   OH268272   2.528   0.174  11.666  0.2206 -0.5412  0.6027
15594TIP3    H168273   2.624   0.182  11.666  0.3859 -1.9196 -1.1353
15594TIP3    H268274   2.502   0.201  11.579 -0.5729 -3.6157 -0.2192
15595TIP3   OH268275   5.967   6.275   5.648  0.4793  0.0576  0.2806
15595TIP3    H168276   6.000   6.296   5.735  0.3754 -1.7479  0.7843
15595TIP3    H268277   5.875   6.250   5.662  0.6342 -0.8458 -0.2496
15596TIP3   OH268278   6.790   0.203  16.578  0.2242  0.0703 -0.2470
15596TIP3    H168279   6.785   0.214  16.673  1.0470  0.9833 -0.2933
15596TIP3    H268280   6.728   0.267  16.543  1.2999  1.0814 -0.3649
15597TIP3   OH268281   4.798   2.516  12.101  0.0616  0.0535 -0.2228
15597TIP3    H168282   4.783   2.485  12.190  0.4239  0.7846  0.0966
15597TIP3    H268283   4.885   2.556  12.103  0.2791 -0.3503 -1.0231
15598TIP3   OH268284   5.299   3.430  16.387  0.1753 -0.0420  0.2196
15598TIP3    H168285   5.240   3.431  16.462  1.0937 -2.2008  1.0444
15598TIP3    H268286   5.353   3.352  16.399  0.6773 -0.2195 -2.4498
15599TIP3   OH268287   2.897   0.129   5.109  0.3606  0.1191  0.5797
15599TIP3    H168288   2.943   0.082   5.179 -0.0729 -0.5851  0.3992
15599TIP3    H268289   2.923   0.083   5.029 -0.9709 -0.5687  0.5113
15600TIP3   OH268290   0.786   1.657   5.610  0.0426  0.6159 -0.4446
15600TIP3    H168291   0.778   1.562   5.611 -1.6681  0.7301 -1.0479
15600TIP3    H268292   0.804   1.679   5.518  0.0891  0.9010 -0.3700
15601TIP3   OH268293   2.415   6.609  15.488  0.1244 -0.3438  0.3250
15601TIP3    H168294   2.484   6.659  15.531  0.5593 -1.6966  1.2637
15601TIP3    H268295   2.342   6.611  15.551 -1.7406  3.1460 -1.6357
15602TIP3   OH268296   4.439   3.275  15.434  0.1019 -1.0302 -0.7441
15602TIP3    H168297   4.523   3.240  15.407  0.1815 -1.1605 -0.3331
15602TIP3    H268298   4.390   3.200  15.468 -0.5587 -1.1377 -1.8819
15603TIP3   OH268299   5.147   5.894   2.620  0.7647  0.3104  0.2907
15603TIP3    H168300   5.117   5.830   2.684 -0.2226 -0.0496 -0.5043
15603TIP3    H268301   5.069   5.917   2.570  1.4444  0.8231 -0.5721
15604TIP3   OH268302   1.521   2.790   6.244 -0.3967 -0.1801 -0.0865
15604TIP3    H168303   1.493   2.705   6.277  1.7218 -1.4948 -1.4224
15604TIP3    H268304   1.555   2.835   6.321  0.3011 -1.3631  0.3262
15605TIP3   OH268305   6.592   6.124   5.976 -0.5604 -0.6405 -0.0297
15605TIP3    H168306   6.627   6.136   6.064 -0.5898 -0.2062 -0.0771
15605TIP3    H268307   6.580   6.213   5.942 -0.7070 -0.8027 -0.4087
15606TIP3   OH268308   5.164   1.750   1.955  0.5670  0.2346 -0.0739
15606TIP3    H168309   5.105   1.739   2.029  1.3915  0.1020  0.5786
15606TIP3    H268310   5.159   1.666   1.909 -1.4310  0.9580 -1.3262
15607TIP3   OH268311   3.682   5.046   5.495  0.2447 -0.0308 -0.5986
15607TIP3    H168312   3.720   5.112   5.554  3.7717 -2.7379  0.5297
15607TIP3    H268313   3.667   4.970   5.552 -1.9153 -0.9003 -2.1937
15608TIP3   OH268314   4.670   4.472  15.594 -0.6126 -0.6380 -0.4340
15608TIP3    H168315   4.658   4.504  15.683 -2.7354 -1.3692 -0.3759
15608TIP3    H268316   4.764   4.470  15.580 -0.2987  2.0318  0.8193
15609TIP3   OH268317   4.558   3.765  11.028 -0.4710 -0.2637 -0.3289
15609TIP3    H168318   4.485   3.793  10.973 -0.8802 -0.3450  0.1705
15609TIP3    H268319   4.568   3.672  11.009 -0.2357 -0.1620 -0.6987
15610TIP3   OH268320   1.491   2.206   2.365  0.2893 -0.0173  0.0056
15610TIP3    H168321   1.542   2.151   2.306  2.1145  1.1278  0.3997
15610TIP3    H268322   1.431   2.146   2.409  0.3614 -1.2220 -1.4492
15611TIP3   OH268323   2.268   5.496  15.669 -0.3639 -0.3171  0.3532
15611TIP3    H168324   2.279   5.547  15.750 -1.0038 -0.3937  0.4949
15611TIP3    H268325   2.184   5.451  15.681 -0.9069  0.3724 -0.7310
15612TIP3   OH268326   4.996   0.856   5.330  0.2190 -0.6232  0.2438
15612TIP3    H168327   4.997   0.846   5.235  0.6404 -0.3780  0.2213
15612TIP3    H268328   4.982   0.767   5.364 -1.1453 -0.5516 -0.0667
15613TIP3   OH268329   5.986   5.270   1.345 -0.0816 -0.2478 -0.8491
15613TIP3    H168330   6.014   5.346   1.295  0.6908 -0.1382 -0.2797
15613TIP3    H268331   5.895   5.288   1.368 -0.2734 -0.0582 -1.7340
15614TIP3   OH268332   1.144   1.088   0.157 -0.0032  0.3332  0.8634
15614TIP3    H168333   1.064   1.084   0.210 -1.5905 -0.3363 -1.4163
15614TIP3    H268334   1.140   1.173   0.113  2.1105  1.5871  2.8636
15615TIP3   OH268335   6.772   4.319  11.516 -0.7264 -0.2053 -0.3746
15615TIP3    H168336   6.850   4.313  11.571 -0.0138  1.0031 -1.1926
15615TIP3    H268337   6.740   4.409  11.528 -1.2140 -0.2746 -1.0429
15616TIP3   OH268338   0.283   6.393  13.818  0.1116  0.3784  0.1255
15616TIP3    H168339   0.216   6.459  13.836  1.1571  1.3829  0.3874
15616TIP3    H268340   0.362   6.426  13.861  1.0079 -0.3478 -0.9164
15617TIP3   OH268341   0.372   2.174   5.306 -0.4012  0.5101 -0.2904
15617TIP3    H168342   0.290   2.131   5.331 -0.8586  1.4866 -0.0748
15617TIP3    H268343   0.366   2.261   5.344 -0.8361  1.8363 -3.1519
15618TIP3   OH268344   5.733   6.275   4.226 -0.2217  0.3601 -0.2889
15618TIP3    H168345   5.747   6.310   4.139  0.7174  0.8948  0.0701
15618TIP3    H268346   5.780   6.334   4.285 -0.9865  0.1214  0.6088
15619TIP3   OH268347   3.985   5.261  16.896 -0.4688  0.4520 -1.0264
15619TIP3    H168348   3.948   5.306  16.972  0.1861 -0.8416  0.1058
15619TIP3    H268349   3.968   5.320  16.823 -2.0916  1.2407 -0.0733
15620TIP3   OH268350   3.028   5.993  11.805 -0.1581  0.2182 -0.5595
15620TIP3    H168351   2.970   6.068  11.816  0.5056  0.6264  0.2691
15620TIP3    H268352   3.076   6.010  11.724 -1.1782 -0.1186 -1.2462
15621TIP3   OH268353   5.556   1.858  10.241  0.4040  0.6619 -0.0834
15621TIP3    H168354   5.586   1.938  10.283  0.3614  0.1028  1.0450
15621TIP3    H268355   5.467   1.845  10.275  0.6169 -0.1568  0.1843
15622TIP3   OH268356   6.232   3.331   2.335  0.0824 -0.7373  0.0590
15622TIP3    H168357   6.236   3.263   2.268  0.8674 -0.3499 -0.2979
15622TIP3    H268358   6.234   3.283   2.418  2.2662 -1.1449 -0.1554
15623TIP3   OH268359   4.189   4.874  11.133 -0.2080 -0.6717  0.1307
15623TIP3    H168360   4.274   4.910  11.159 -0.7159 -0.5707  1.7889
15623TIP3    H268361   4.138   4.949  11.104  0.1570 -0.6863 -0.5518
15624TIP3   OH268362   6.296   3.192  14.941  0.8223  0.1507 -0.0168
15624TIP3    H168363   6.386   3.219  14.925  0.7050  0.8629  0.4695
15624TIP3    H268364   6.292   3.178  15.036  0.6810 -0.8481 -0.1637
15625TIP3   OH268365   2.049   4.588   6.050 -0.2184  0.1804 -0.0862
15625TIP3    H168366   1.980   4.549   5.997 -0.4167  0.4542 -0.0368
15625TIP3    H268367   2.051   4.534   6.129 -1.4235  1.0434  0.5804
15626TIP3   OH268368   5.611   3.409   4.946 -0.4173  0.2565  0.4440
15626TIP3    H168369   5.634   3.487   4.896 -0.2325  0.3146  0.6166
15626TIP3    H268370   5.649   3.424   5.033 -1.4017  0.5005  0.8448
15627TIP3   OH268371   5.099   0.006   3.348 -0.0530  0.4813  0.1031
15627TIP3    H168372   5.042  -0.038   3.286 -0.1001  0.4838  0.1448
15627TIP3    H268373   5.154   0.062   3.294  0.2275  0.1292  0.0191
15628TIP3   OH268374   1.039   1.987   3.992 -0.2703 -0.0953  0.1701
15628TIP3    H168375   0.988   2.065   3.971 -0.4589 -0.1306  0.5004
15628TIP3    H268376   0.991   1.946   4.064  1.5642  1.1950  2.2412
15629TIP3   OH268377   2.350   0.398   3.790  0.1232  0.0532 -0.1594
15629TIP3    H168378   2.355   0.333   3.860 -1.0060 -0.4424 -0.5229
15629TIP3    H268379   2.292   0.466   3.825  2.1936  1.4944  0.6779
15630TIP3   OH268380   4.859   2.433   2.914 -0.4457 -0.0021  0.4179
15630TIP3    H168381   4.877   2.339   2.908  0.5955  0.2649 -2.0721
15630TIP3    H268382   4.778   2.445   2.865  0.1456  0.5353 -0.4579
15631TIP3   OH268383   1.982   5.858  13.452  1.2737 -0.0904 -0.3746
15631TIP3    H168384   1.949   5.872  13.363  1.5759 -0.5759 -0.5692
15631TIP3    H268385   2.075   5.880  13.447  1.6102 -1.4659 -0.5325
15632TIP3   OH268386   5.257   3.261   1.185 -0.0740  0.2668 -0.0043
15632TIP3    H168387   5.171   3.296   1.163 -0.5109 -1.0437 -0.4351
15632TIP3    H268388   5.271   3.189   1.123  0.5299 -0.7131  1.2297
15633TIP3   OH268389   6.376   6.430  13.057  0.5402  0.3594  0.4638
15633TIP3    H168390   6.288   6.399  13.037  0.6957 -1.6017  2.4261
15633TIP3    H268391   6.433   6.385  12.994  0.1464  2.3259 -1.4138
15634TIP3   OH268392   6.570   2.376   1.028 -0.5258  0.0949 -0.0275
15634TIP3    H168393   6.630   2.336   1.091  0.0544  0.8780 -0.0696
15634TIP3    H268394   6.515   2.434   1.080 -0.4758  0.2506 -0.1457
15635TIP3   OH268395   3.421   1.503   0.624  0.4413  0.5429  0.4584
15635TIP3    H168396   3.347   1.527   0.568  1.3996  0.6090 -0.8235
15635TIP3    H268397   3.498   1.534   0.577  1.3096  0.3044  1.6781
15636TIP3   OH268398   3.229   2.324   4.427  0.0714  0.4206  0.1869
15636TIP3    H168399   3.233   2.418   4.446 -0.9608  0.3337  0.9025
15636TIP3    H268400   3.320   2.299   4.412  0.6593  1.0960  2.2692
15637TIP3   OH268401   0.181   5.524  14.540 -0.1387 -0.2469 -0.5671
15637TIP3    H168402   0.086   5.533  14.548 -0.3167 -1.1488 -1.4028
15637TIP3    H268403   0.214   5.534  14.629 -1.0326 -0.1030 -0.2416
15638TIP3   OH268404   5.083   0.960   0.670 -0.3537 -1.1964  0.1455
15638TIP3    H168405   5.007   0.968   0.727  1.5889  1.5770  2.6663
15638TIP3    H268406   5.066   1.021   0.598 -0.9577 -1.3706  0.1411
15639TIP3   OH268407   2.545   4.869  10.387 -0.0559 -0.3017 -0.3747
15639TIP3    H168408   2.544   4.784  10.430 -0.2636  0.0398  0.3097
15639TIP3    H268409   2.526   4.850  10.295  1.6811 -1.1784 -0.5851
15640TIP3   OH268410   6.177   3.013  15.707  0.0355 -0.0928  0.2009
15640TIP3    H168411   6.241   2.961  15.756  1.1633  1.5027  0.4902
15640TIP3    H268412   6.225   3.043  15.630 -0.5170  0.6972  0.1531
15641TIP3   OH268413   6.253   5.118  17.001 -0.2693 -0.4523 -0.8038
15641TIP3    H168414   6.179   5.084  16.950  0.0328 -1.2266 -0.7382
15641TIP3    H268415   6.323   5.128  16.937 -0.0476 -0.9361 -0.6427
15642TIP3   OH268416   0.378   4.389   1.355 -0.1102 -0.3930 -0.0613
15642TIP3    H168417   0.417   4.429   1.433 -0.4857  1.6019 -0.8286
15642TIP3    H268418   0.284   4.408   1.363 -0.1837 -0.4078 -0.8739
15643TIP3   OH268419   0.489   3.740  14.576  0.3494  0.1197 -0.2021
15643TIP3    H168420   0.537   3.817  14.545  1.0475 -0.3693 -0.3564
15643TIP3    H268421   0.422   3.726  14.509 -0.8677  1.5682  0.6531
15644TIP3   OH268422   5.252   3.590   5.775 -0.3434  0.5339 -0.1522
15644TIP3    H168423   5.304   3.541   5.839 -0.1170 -1.8785 -2.0290
15644TIP3    H268424   5.164   3.555   5.784 -0.1022 -0.5901 -1.7799
15645TIP3   OH268425   2.117   6.399  16.918  0.3134 -0.3159  0.1584
15645TIP3    H168426   2.177   6.472  16.932 -0.2787  0.6343 -1.8894
15645TIP3    H268427   2.124   6.380  16.824 -0.7285 -1.8524  0.3520
15646TIP3   OH268428   0.107   0.310   3.213  0.0641 -0.1572 -0.3912
15646TIP3    H168429   0.063   0.393   3.233  1.5198  1.0164 -1.7834
15646TIP3    H268430   0.065   0.246   3.271 -1.5624  1.4054  0.2487
15647TIP3   OH268431   1.376   1.730   1.976 -0.4748 -0.1735  0.1809
15647TIP3    H168432   1.437   1.715   1.903 -0.3941 -0.2666  0.2673
15647TIP3    H268433   1.315   1.795   1.942 -0.9614 -0.8491 -0.2844
15648TIP3   OH268434   5.758   0.603  11.433 -0.6063 -0.2280 -0.4361
15648TIP3    H168435   5.705   0.626  11.357 -1.8151  0.6076  0.5911
15648TIP3    H268436   5.780   0.511  11.421  2.1557  0.6719 -3.4219
15649TIP3   OH268437   5.084   1.566  11.059 -0.3064  0.2770 -0.1016
15649TIP3    H168438   5.135   1.567  10.978  0.7035  1.9960  0.5004
15649TIP3    H268439   4.997   1.536  11.032  0.5132 -0.9878 -1.4712
15650TIP3   OH268440   0.207   5.053   6.081 -0.1761  0.1013  0.5331
15650TIP3    H168441   0.146   5.001   6.028  2.2015 -0.4852 -1.8501
15650TIP3    H268442   0.269   4.988   6.116  2.9372  1.0737 -2.6105
15651TIP3   OH268443   2.062   0.260  16.640 -0.4741  0.7551 -0.5593
15651TIP3    H168444   1.997   0.219  16.697 -0.4676  0.5059 -0.7309
15651TIP3    H268445   2.145   0.216  16.662 -0.2355  1.4958  0.1019
15652TIP3   OH268446   6.463   0.838  12.131  0.5228  0.4687  0.1706
15652TIP3    H168447   6.370   0.820  12.121  0.7699 -0.4742 -0.5152
15652TIP3    H268448   6.496   0.766  12.185  1.5367 -1.3822 -2.6854
15653TIP3   OH268449   4.932   0.197   5.464  0.3516 -0.4112  0.5618
15653TIP3    H168450   4.905   0.260   5.531  1.8673  2.6189 -1.4584
15653TIP3    H268451   4.857   0.192   5.404  0.7176  0.6502 -0.0164
15654TIP3   OH268452   5.685   4.290  11.552  0.6408 -0.5310  0.0630
15654TIP3    H168453   5.740   4.364  11.525  0.6594 -0.1897  0.9915
15654TIP3    H268454   5.598   4.328  11.561  0.5951 -0.6880  0.2712
15655TIP3   OH268455   4.571   5.939  12.706 -0.1013 -0.0201 -0.0375
15655TIP3    H168456   4.634   5.957  12.776  0.2589  0.9070 -0.5911
15655TIP3    H268457   4.571   5.844  12.698  1.2703 -0.0394 -0.0544
15656TIP3   OH268458   3.814   4.080  14.232 -0.4519  0.4376  0.4809
15656TIP3    H168459   3.855   4.044  14.153  2.2671  2.8261  0.6217
15656TIP3    H268460   3.849   4.027  14.304  0.9332  1.2015  0.4134
15657TIP3   OH268461   0.471   3.362  16.925  0.1154 -0.0819 -0.1637
15657TIP3    H168462   0.549   3.364  16.869 -0.9687 -0.0464 -1.7208
15657TIP3    H268463   0.438   3.272  16.917  0.1332 -0.1697  0.6953
15658TIP3   OH268464   6.649   5.913  11.089  0.1557 -0.0884 -0.2994
15658TIP3    H168465   6.637   5.912  11.184  1.6538 -1.6649 -0.0687
15658TIP3    H268466   6.723   5.972  11.075  1.7584 -1.9608 -0.1481
15659TIP3   OH268467   3.705   4.022  13.741  0.4032  0.4048 -0.4548
15659TIP3    H168468   3.733   4.008  13.651  1.8736 -1.8256  0.2633
15659TIP3    H268469   3.713   3.936  13.782 -2.3601  0.8543  1.2755
15660TIP3   OH268470   0.288   5.277  12.457 -0.5361 -0.3242  0.0166
15660TIP3    H168471   0.294   5.302  12.549 -2.8060 -2.1652  0.7526
15660TIP3    H268472   0.198   5.297  12.433  0.3012  1.1636 -2.2050
15661TIP3   OH268473   6.368   6.451   2.705  0.1520 -0.2682  0.5271
15661TIP3    H168474   6.313   6.521   2.670  0.6370 -0.0449  0.1830
15661TIP3    H268475   6.457   6.487   2.701  0.5220 -1.2368 -0.5307
15662TIP3   OH268476   2.123   3.974  16.895  0.2625 -0.2212  0.2626
15662TIP3    H168477   2.119   3.987  16.990  1.6960 -1.2860  0.5095
15662TIP3    H268478   2.153   4.058  16.861  0.2113  0.0196  0.8037
15663TIP3   OH268479   1.431   4.190   6.226  0.2811 -0.0855 -0.0150
15663TIP3    H168480   1.360   4.179   6.290 -1.2917 -0.1778 -1.6873
15663TIP3    H268481   1.416   4.276   6.188  1.2585  0.0131 -0.2090
15664TIP3   OH268482   4.058   5.151  11.345 -0.5661 -0.1338  0.0570
15664TIP3    H168483   4.154   5.149  11.350 -0.6493 -0.6966  1.8499
15664TIP3    H268484   4.040   5.189  11.259  1.2674  0.6410 -0.0329
15665TIP3   OH268485   6.120   3.056   4.148 -0.1051  0.6950 -0.3130
15665TIP3    H168486   6.094   3.018   4.232  2.8232 -0.2266  0.2592
15665TIP3    H268487   6.143   2.981   4.093 -1.0921  1.3381 -1.7036
15666TIP3   OH268488   0.318   3.796  17.017 -0.3779 -0.4744  0.1926
15666TIP3    H168489   0.354   3.763  16.935  0.1391  2.1812 -0.7741
15666TIP3    H268490   0.387   3.782  17.082  0.3338 -0.0927 -0.4756
15667TIP3   OH268491   5.329   4.712  12.292  0.8633  0.1181 -0.0708
15667TIP3    H168492   5.248   4.761  12.300  0.0682 -0.8065 -1.8405
15667TIP3    H268493   5.326   4.674  12.204  2.0161 -2.0253  0.7255
15668TIP3   OH268494   6.638   5.912  15.726  0.2302  0.2857  0.4159
15668TIP3    H168495   6.667   5.828  15.692 -0.2624  0.9129 -1.7996
15668TIP3    H268496   6.546   5.899  15.748  0.5625 -0.1385  1.6122
15669TIP3   OH268497   6.490   0.839  13.943 -0.4424 -0.8084 -0.4390
15669TIP3    H168498   6.542   0.918  13.929  0.3475 -0.6200  2.8027
15669TIP3    H268499   6.400   0.865  13.923 -0.0899  0.6826 -0.1696
15670TIP3   OH268500   0.348   4.887   0.860 -0.3489 -0.1195 -0.4414
15670TIP3    H168501   0.344   4.820   0.793 -0.6971  0.0538 -0.6009
15670TIP3    H268502   0.400   4.958   0.821 -1.4666  0.4450 -0.9668
15671TIP3   OH268503   6.155   1.546  14.280  0.1000  0.3105  0.2557
15671TIP3    H168504   6.249   1.537  14.269  0.3078  0.2704  1.8471
15671TIP3    H268505   6.128   1.466  14.325 -1.0993 -0.7402 -2.1276
15672TIP3   OH268506   2.578   2.930   2.599  0.1066  0.1416  0.6466
15672TIP3    H168507   2.663   2.968   2.619  1.0326 -2.1649  1.3613
15672TIP3    H268508   2.518   2.972   2.662  1.0613  0.4473  1.3827
15673TIP3   OH268509   6.386   6.694  14.617 -0.4492 -0.2987  0.8555
15673TIP3    H168510   6.333   6.724  14.691  0.9595  1.2270  1.2951
15673TIP3    H268511   6.458   6.757  14.611  0.1446 -1.0783 -1.0687
15674TIP3   OH268512   5.258   4.987  10.849  0.4640  0.3198  0.1853
15674TIP3    H168513   5.288   4.955  10.764  1.1937 -0.8719  0.8686
15674TIP3    H268514   5.323   5.052  10.874  0.9223 -0.1986  0.3651
15675TIP3   OH268515   1.549   2.832   1.025  0.7857 -0.4718 -0.3757
15675TIP3    H168516   1.528   2.845   0.933  1.4452 -2.4593 -0.8474
15675TIP3    H268517   1.644   2.841   1.029  0.6124  1.6367  0.5300
15676TIP3   OH268518   4.240   0.750  13.941  0.2622 -0.2813 -0.2433
15676TIP3    H168519   4.237   0.706  13.856  0.5324 -0.2372 -0.2778
15676TIP3    H268520   4.201   0.836  13.925  0.1437 -0.3434 -0.2811
15677TIP3   OH268521   2.705   2.510   5.398  0.0375  0.1435  0.1171
15677TIP3    H168522   2.709   2.604   5.418 -0.8608 -0.1091  1.5797
15677TIP3    H268523   2.612   2.489   5.403  0.0427 -0.5310 -1.7736
15678TIP3   OH268524   2.624   3.165   3.066  0.1204  0.2611 -0.7457
15678TIP3    H168525   2.570   3.089   3.083 -0.5771  1.0731  0.9424
15678TIP3    H268526   2.713   3.136   3.085 -0.2334  0.0622  0.7462
15679TIP3   OH268527   0.921   5.899  16.731  0.4319  0.2204 -0.6484
15679TIP3    H168528   0.950   5.922  16.819  0.8877 -0.2803 -0.6610
15679TIP3    H268529   0.827   5.884  16.739  0.8211 -2.2086  0.2778
15680TIP3   OH268530   4.707   1.194   0.564  0.1696  0.1008 -0.0635
15680TIP3    H168531   4.738   1.284   0.558  0.5323 -0.0046  0.2192
15680TIP3    H268532   4.619   1.196   0.526 -0.1336  0.7274  0.6631
15681TIP3   OH268533   1.759   0.137  15.341 -0.3776  0.4251  0.6088
15681TIP3    H168534   1.780   0.059  15.392  1.9282  0.1201 -0.6756
15681TIP3    H268535   1.696   0.107  15.276  1.4866 -0.7735 -0.7384
15682TIP3   OH268536   0.692   2.782  10.864 -0.8961 -0.2451  0.2745
15682TIP3    H168537   0.640   2.861  10.878  0.6057  0.9706 -0.6669
15682TIP3    H268538   0.705   2.778  10.769  3.0510  1.1589  0.5968
15683TIP3   OH268539   2.755   2.363  15.384 -0.0293 -0.1355 -0.1903
15683TIP3    H168540   2.824   2.401  15.329  0.0305 -0.0183 -0.0334
15683TIP3    H268541   2.718   2.292  15.330 -0.9658  0.9160 -0.9662
15684TIP3   OH268542   4.360   3.818  10.846  0.4324 -0.0680 -0.4590
15684TIP3    H168543   4.294   3.764  10.889 -1.3111  1.4057 -1.1226
15684TIP3    H268544   4.343   3.807  10.752  1.4698 -0.0626 -0.6597
15685TIP3   OH268545   3.559   3.363  11.656 -0.3301  0.2241  0.5836
15685TIP3    H168546   3.635   3.420  11.653 -2.1171  2.7272  0.1537
15685TIP3    H268547   3.574   3.300  11.586  0.9242  1.1959 -0.0597
15686TIP3   OH268548   5.369   5.981   2.257  0.1945  0.4269  0.0197
15686TIP3    H168549   5.304   5.917   2.285 -0.1768  0.4808 -0.7140
15686TIP3    H268550   5.444   5.929   2.228 -0.1335  0.3144 -0.6418
15687TIP3   OH268551   2.629   6.493  15.717 -0.9771 -0.1907  0.2750
15687TIP3    H168552   2.641   6.406  15.756  0.1402  0.0486  0.5098
15687TIP3    H268553   2.639   6.480  15.623 -0.2124 -0.2416  0.3533
15688TIP3   OH268554   5.012   0.473  16.428 -0.1331 -0.1965 -0.3037
15688TIP3    H168555   5.103   0.459  16.452 -0.3323 -2.1224 -0.5179
15688TIP3    H268556   4.962   0.453  16.507 -0.4864 -1.6666 -0.8562
15689TIP3   OH268557   2.986   4.396   4.777 -0.4204  0.4966 -0.0077
15689TIP3    H168558   2.942   4.460   4.721 -0.1979  2.3793  1.8697
15689TIP3    H268559   2.928   4.320   4.776 -0.5154  0.5153 -2.5784
15690TIP3   OH268560   4.479   6.595  11.162 -0.5331 -0.1646  0.1343
15690TIP3    H168561   4.500   6.639  11.079  0.1125 -1.9233 -0.6676
15690TIP3    H268562   4.409   6.534  11.139 -1.0983  0.0821  1.1430
15691TIP3   OH268563   3.160   6.181  16.603  0.3069  0.2238 -0.0450
15691TIP3    H168564   3.228   6.243  16.632 -0.6713  1.1982  0.2387
15691TIP3    H268565   3.080   6.212  16.646 -0.2724 -1.0580 -0.1671
15692TIP3   OH268566   3.249   3.538   2.182  0.6173 -0.1705  0.6067
15692TIP3    H168567   3.315   3.511   2.246  1.0484  0.4149  0.4187
15692TIP3    H268568   3.237   3.460   2.127 -2.2944 -1.9382  3.3829
15693TIP3   OH268569   4.110   5.944   2.529  0.3875  0.1564  0.3378
15693TIP3    H168570   4.193   5.917   2.568  1.4221 -0.0564 -1.8714
15693TIP3    H268571   4.116   5.918   2.437 -1.9089  0.6473 -0.0273
15694TIP3   OH268572   3.619   4.187   0.319 -0.6113 -0.6146 -0.1039
15694TIP3    H168573   3.706   4.176   0.357 -0.6176 -0.3753 -0.0137
15694TIP3    H268574   3.601   4.281   0.328 -0.5085 -0.5116 -0.9301
15695TIP3   OH268575   1.620   3.053  16.422  0.5087  0.0702 -0.0903
15695TIP3    H168576   1.534   3.092  16.437  0.9079  1.3946 -0.9983
15695TIP3    H268577   1.660   3.046  16.509 -0.3540 -0.1873  0.2923
15696TIP3   OH268578   3.219   3.149  11.562  0.2874 -0.4524  0.7697
15696TIP3    H168579   3.313   3.134  11.553  0.7379  2.2841 -0.1180
15696TIP3    H268580   3.212   3.239  11.594 -2.0326 -0.8436  1.5623
15697TIP3   OH268581   5.924   4.392   1.892 -0.3046 -0.6331  0.0283
15697TIP3    H168582   5.961   4.397   1.804  0.0476 -0.7251  0.1671
15697TIP3    H268583   5.861   4.464   1.895 -0.0124 -0.3616 -0.1612
15698TIP3   OH268584   4.392   3.463  15.795  0.7263  0.0657  0.4117
15698TIP3    H168585   4.400   3.558  15.807 -0.2042  0.2517 -0.2916
15698TIP3    H268586   4.300   3.450  15.771  1.1404 -0.8717 -0.7606
15699TIP3   OH268587   4.234   0.128   4.361  0.5181 -0.3903 -0.0998
15699TIP3    H168588   4.231   0.146   4.455  0.8984  1.6821 -0.4533
15699TIP3    H268589   4.285   0.200   4.324 -3.4906  1.5787 -2.4679
15700TIP3   OH268590   0.027   2.231   1.860  0.3293 -0.7480 -0.1928
15700TIP3    H168591   0.115   2.195   1.866  0.0158 -1.3545  1.3706
15700TIP3    H268592  -0.022   2.186   1.929 -1.0773 -0.0752 -0.7139
15701TIP3   OH268593   4.866   3.249  14.843  0.4146  0.1108  0.2769
15701TIP3    H168594   4.776   3.215  14.846 -0.3119  1.8412 -0.5412
15701TIP3    H268595   4.903   3.213  14.762  0.1277  0.1233  0.1387
15702TIP3   OH268596   4.310   6.044  14.630  0.4608  0.3251 -0.7649
15702TIP3    H168597   4.299   6.136  14.651  0.3849  0.6143 -1.9938
15702TIP3    H268598   4.324   6.001  14.715  0.6065  1.4688 -0.1973
15703TIP3   OH268599   3.349   3.194   1.003 -0.0723  0.2365 -0.1666
15703TIP3    H168600   3.318   3.284   0.997 -0.0571  0.3226  0.8344
15703TIP3    H268601   3.422   3.198   1.066 -3.0807 -1.1686  3.8170
15704TIP3   OH268602   5.899   4.583   5.844 -0.5665 -0.1331  0.1378
15704TIP3    H168603   5.868   4.646   5.909  0.0125  0.1522  0.1413
15704TIP3    H268604   5.838   4.509   5.851 -1.1582  0.3601  0.2395
15705TIP3   OH268605   4.660   1.543   3.979  0.6517 -0.0449 -0.1432
15705TIP3    H168606   4.634   1.492   3.902  2.8502 -0.1135 -0.9164
15705TIP3    H268607   4.625   1.494   4.053 -1.9994  0.3127 -1.0481
15706TIP3   OH268608   5.430   5.902  12.066 -0.1016 -0.2466 -0.0230
15706TIP3    H168609   5.507   5.895  12.122 -1.7317 -2.2292  2.1747
15706TIP3    H268610   5.401   5.992  12.076  0.7810 -0.0364  0.7923
15707TIP3   OH268611   3.369   1.905   4.073 -0.1277 -0.7976 -0.4904
15707TIP3    H168612   3.343   1.847   4.144 -0.0305 -0.5588 -0.2622
15707TIP3    H268613   3.460   1.927   4.090 -0.3739  0.0103 -0.1714
15708TIP3   OH268614   6.313   2.648   4.611  0.0311  0.1465  0.5700
15708TIP3    H168615   6.375   2.586   4.572  0.3764  0.3831  0.7330
15708TIP3    H268616   6.264   2.595   4.675 -2.3422 -0.8820 -1.9310
15709TIP3   OH268617   4.800   6.534  11.007 -0.0329  0.1487 -0.2656
15709TIP3    H168618   4.764   6.449  10.981  1.8112 -0.5397 -0.7385
15709TIP3    H268619   4.788   6.589  10.930 -3.1537  1.0715  0.7102
15710TIP3   OH268620   0.165   4.818   3.419 -0.0632  0.8162 -0.0786
15710TIP3    H168621   0.141   4.755   3.486  0.5635  1.4572  0.7625
15710TIP3    H268622   0.081   4.849   3.384 -0.3781 -0.2133 -0.2678
15711TIP3   OH268623   0.373   3.230   1.283 -0.1322  0.3060  0.7623
15711TIP3    H168624   0.396   3.139   1.265 -2.5237 -0.2950  0.3646
15711TIP3    H268625   0.414   3.279   1.211  2.4629 -0.1671  1.7947
15712TIP3   OH268626   6.200   5.588  15.978  0.0393  0.4853 -0.3385
15712TIP3    H168627   6.202   5.680  16.004  0.9457  0.6767 -1.0382
15712TIP3    H268628   6.140   5.585  15.903 -0.7263  0.3251  0.2552
15713TIP3   OH268629   5.758   0.915  12.402  0.1087 -0.1011  0.0402
15713TIP3    H168630   5.719   0.841  12.356 -0.2093  0.3266 -0.3913
15713TIP3    H268631   5.740   0.898  12.495  0.2168 -0.6577 -0.0366
15714TIP3   OH268632   5.379   5.380  16.361 -0.4173 -0.5878  0.0247
15714TIP3    H168633   5.450   5.441  16.378 -0.7391 -0.4059  0.7289
15714TIP3    H268634   5.302   5.420  16.401 -0.4296 -1.9527  1.4558
15715TIP3   OH268635   4.581   3.624   3.739  0.0276 -0.0963 -0.1590
15715TIP3    H168636   4.613   3.550   3.792  1.1785  1.1928  1.0646
15715TIP3    H268637   4.604   3.601   3.649 -0.1746 -1.4795  0.1226
15716TIP3   OH268638   2.371   0.526   6.372 -0.0016 -0.2933  0.0431
15716TIP3    H168639   2.335   0.438   6.385 -0.8008  0.1305  0.7875
15716TIP3    H268640   2.309   0.569   6.313 -0.3200  0.1970  0.7310
15717TIP3   OH268641   3.366   6.251   6.396  0.6203  0.1694  0.1177
15717TIP3    H168642   3.326   6.335   6.415  1.2133  0.3506  0.5865
15717TIP3    H268643   3.324   6.190   6.457 -0.4484 -0.0692 -0.8116
15718TIP3   OH268644   1.590   5.291  11.362  0.0925  0.5083 -0.2783
15718TIP3    H168645   1.605   5.197  11.360  0.1198  0.5183 -0.5270
15718TIP3    H268646   1.579   5.316  11.271  0.6103  0.8286 -0.2570
15719TIP3   OH268647   1.258   4.106  12.504  0.2369 -0.1539  0.0941
15719TIP3    H168648   1.206   4.050  12.561 -1.1686  0.7470 -0.2600
15719TIP3    H268649   1.208   4.113  12.424  1.3622 -0.0026 -0.6257
15720TIP3   OH268650   2.461   2.544  13.986 -0.5657 -0.0948 -0.4028
15720TIP3    H168651   2.394   2.476  13.996  1.3583 -2.0576 -0.1214
15720TIP3    H268652   2.528   2.521  14.050  0.2915  1.9666 -0.4803
15721TIP3   OH268653   3.527   3.752  14.031 -0.8161 -0.2363  0.1758
15721TIP3    H168654   3.444   3.796  14.011 -0.4577  0.8785  1.0593
15721TIP3    H268655   3.502   3.678  14.086 -1.2476  0.0079  0.3138
15722TIP3   OH268656   2.661   1.940  12.357 -0.1824 -0.6914 -0.2847
15722TIP3    H168657   2.727   1.890  12.404 -0.9482 -0.3402  1.2123
15722TIP3    H268658   2.673   1.915  12.265  0.6855 -2.1621  0.2027
15723TIP3   OH268659   4.229   4.388   4.941  0.6455  0.2594  0.3345
15723TIP3    H168660   4.265   4.331   5.009 -1.2896 -1.2437  0.2010
15723TIP3    H268661   4.149   4.423   4.980 -0.7569 -0.9940 -1.2298
15724TIP3   OH268662   3.493   1.767  13.766 -0.4995  0.1936  0.4784
15724TIP3    H168663   3.442   1.842  13.798  0.7941  1.0271  0.6574
15724TIP3    H268664   3.517   1.720  13.846  0.0743  0.5184  0.5030
15725TIP3   OH268665   4.855   3.280   1.316 -0.1759  0.0355  0.0205
15725TIP3    H168666   4.811   3.365   1.320 -1.0937 -0.3597 -0.9926
15725TIP3    H268667   4.923   3.285   1.383 -0.6896  1.2898  0.4887
15726TIP3   OH268668   4.865   1.818  15.382 -0.8329  0.9419  0.2643
15726TIP3    H168669   4.801   1.748  15.371  0.2120  0.0321 -0.1948
15726TIP3    H268670   4.856   1.845  15.474  2.6286 -3.8266  2.4080
15727TIP3   OH268671   3.846   5.587  10.896 -0.3613  0.1876 -0.4123
15727TIP3    H168672   3.816   5.677  10.904 -1.9855 -0.4483  1.2483
15727TIP3    H268673   3.797   5.552  10.821 -1.3182  0.1083  0.2369
15728TIP3   OH268674   6.250   6.361   0.056  0.5760 -0.0634 -0.0076
15728TIP3    H168675   6.186   6.395  -0.006 -0.2303  0.1471  0.9177
15728TIP3    H268676   6.245   6.266   0.046 -1.1910 -0.1519  1.2841
15729TIP3   OH268677   0.415   1.661  15.405 -0.5128 -0.1367 -0.2080
15729TIP3    H168678   0.381   1.682  15.318 -0.7761  0.0167 -0.0715
15729TIP3    H268679   0.380   1.574  15.425 -1.2922  0.2505  0.1599
15730TIP3   OH268680   5.618   6.335  11.839 -0.2962 -0.6724 -0.2534
15730TIP3    H168681   5.575   6.283  11.771  2.1404 -1.7913 -1.0540
15730TIP3    H268682   5.655   6.270  11.899  1.3382  0.1543 -0.3219
15731TIP3   OH268683   0.628   1.146  15.864 -0.0446 -0.2167 -0.1739
15731TIP3    H168684   0.578   1.122  15.786  0.4410  0.0408 -0.5741
15731TIP3    H268685   0.580   1.107  15.937  0.0075 -1.2654 -0.6876
15732TIP3   OH268686   6.728   6.661   0.282  0.2560 -0.0619 -0.5944
15732TIP3    H168687   6.664   6.639   0.214 -0.6066 -0.4561  0.3233
15732TIP3    H268688   6.714   6.754   0.300 -0.7450 -0.3641  0.2803
15733TIP3   OH268689   5.393   2.914   3.209 -0.0820 -0.3139  0.1472
15733TIP3    H168690   5.449   2.848   3.250 -1.5077 -2.1949 -0.7557
15733TIP3    H268691   5.422   2.916   3.118 -0.5599 -0.2677 -0.0060
15734TIP3   OH268692   2.079   6.520   4.726  0.0502 -0.2791  0.3329
15734TIP3    H168693   2.142   6.465   4.773  0.7783 -0.8277 -1.2124
15734TIP3    H268694   2.102   6.508   4.634 -1.0773  1.0631 -0.1450
15735TIP3   OH268695   1.308   3.490   2.468  0.1286  0.0476 -0.5631
15735TIP3    H168696   1.251   3.564   2.488 -0.2446 -0.5646  0.7692
15735TIP3    H268697   1.249   3.420   2.441  0.2144 -0.6048  0.8718
15736TIP3   OH268698   2.930   3.067  17.192  0.2023 -0.5244  0.3658
15736TIP3    H168699   2.858   3.125  17.166  1.8170  1.4005 -0.0018
15736TIP3    H268700   2.886   2.990  17.230 -2.0524  0.0473 -0.9053
15737TIP3   OH268701   2.908   6.488  11.747  0.0965 -0.1394 -0.0381
15737TIP3    H168702   2.965   6.461  11.675  1.8976  2.2067  0.3900
15737TIP3    H268703   2.829   6.519  11.704  0.7161  0.2182 -0.9536
15738TIP3   OH268704   4.687   3.083   3.253  0.0667  0.0377  0.3308
15738TIP3    H168705   4.683   3.046   3.341  1.3919  0.3392  0.5372
15738TIP3    H268706   4.708   3.008   3.197  0.1505  0.0144  0.3930
15739TIP3   OH268707   6.777   4.862  16.367 -0.2274  0.2144  0.1702
15739TIP3    H168708   6.718   4.936  16.350 -0.3390  0.1505  0.2732
15739TIP3    H268709   6.806   4.875  16.457 -0.6059 -0.1149  0.3407
15740TIP3   OH268710   5.635   3.645   0.748 -0.1675 -0.6185 -0.0744
15740TIP3    H168711   5.588   3.621   0.828 -1.0072  0.7558 -0.1298
15740TIP3    H268712   5.589   3.722   0.715 -0.2659 -1.5363 -2.2615
15741TIP3   OH268713   6.158   3.732  13.392  0.7241 -0.0244 -0.0350
15741TIP3    H168714   6.191   3.643  13.399  0.6235 -0.1039 -0.5503
15741TIP3    H268715   6.115   3.748  13.476  0.9190 -0.3849  0.1378
15742TIP3   OH268716   5.602   5.188  16.272  0.6267 -0.5578 -0.1823
15742TIP3    H168717   5.537   5.257  16.289  0.0455 -0.8153 -1.2651
15742TIP3    H268718   5.551   5.108  16.266  1.2774 -1.0793  0.8510
15743TIP3   OH268719   2.410   4.355  13.118 -0.1204 -0.4514  0.4180
15743TIP3    H168720   2.329   4.385  13.076  0.6665  0.1441 -0.7384
15743TIP3    H268721   2.453   4.436  13.146 -1.0292 -0.8566  3.2655
15744TIP3   OH268722   5.002   6.477  14.972 -0.3513 -0.0906  0.2036
15744TIP3    H168723   5.092   6.507  14.984  0.3315 -1.7409 -0.4158
15744TIP3    H268724   5.011   6.393  14.926 -2.1193 -1.2543  1.8429
15745TIP3   OH268725   4.621   4.249   3.509 -0.0511 -0.5193  0.4621
15745TIP3    H168726   4.612   4.206   3.424  0.6484 -1.3735  0.8130
15745TIP3    H268727   4.709   4.285   3.508 -0.0945 -0.4057  0.7731
15746TIP3   OH268728   2.252   4.655   2.126  0.3260  0.1670 -0.0748
15746TIP3    H168729   2.343   4.650   2.154  0.2920  0.0548  0.0162
15746TIP3    H268730   2.236   4.574   2.078 -0.3239 -0.8188  1.7129
15747TIP3   OH268731   4.799   3.444  15.013  0.5055  0.8210  0.1619
15747TIP3    H168732   4.800   3.502  14.937 -0.8094 -0.5088 -0.9182
15747TIP3    H268733   4.831   3.360  14.979  0.0806  0.2621  1.1137
15748TIP3   OH268734   0.466   2.226  17.132 -1.0519 -0.5621 -0.1556
15748TIP3    H168735   0.458   2.281  17.209 -0.7133  0.5805 -0.9119
15748TIP3    H268736   0.559   2.206  17.127 -0.8901  0.2908 -0.8652
15749TIP3   OH268737   0.626   6.000   3.456  0.0394 -0.2953 -0.3332
15749TIP3    H168738   0.638   5.908   3.475  1.8952 -0.0509 -0.1814
15749TIP3    H268739   0.679   6.016   3.377  2.1580  1.2000  1.2703
15750TIP3   OH268740   1.309   0.142   3.999  0.0797  0.0790  0.1448
15750TIP3    H168741   1.260   0.222   3.981 -0.2735 -0.4755 -1.4612
15750TIP3    H268742   1.242   0.079   4.025  0.0229 -0.4162 -1.1480
15751TIP3   OH268743   4.729   3.331  10.849 -0.6429 -0.0762  0.5675
15751TIP3    H168744   4.666   3.283  10.903 -1.1317  0.0546  0.1124
15751TIP3    H268745   4.768   3.264  10.792 -1.3600  0.0640 -0.1014
15752TIP3   OH268746   3.606   0.781   2.708 -0.0396  0.5287  0.4244
15752TIP3    H168747   3.637   0.797   2.619 -0.1520 -0.3827  0.2074
15752TIP3    H268748   3.540   0.849   2.724 -0.8942 -0.0155 -0.6482
15753TIP3   OH268749   1.417   0.640   5.119 -0.2069 -0.4133 -0.1650
15753TIP3    H168750   1.376   0.636   5.033 -0.1980  1.7173 -0.3150
15753TIP3    H268751   1.494   0.695   5.107  1.0602 -1.8954  0.7606
15754TIP3   OH268752   4.556   6.008   5.219  0.2000 -0.1828  0.4560
15754TIP3    H168753   4.515   5.994   5.304 -2.7044 -2.0162 -1.0579
15754TIP3    H268754   4.626   5.943   5.214  0.5474  0.1018  1.4917
15755TIP3   OH268755   1.588   1.596   5.389 -0.4765 -0.3957 -0.6107
15755TIP3    H168756   1.571   1.513   5.344  0.6640 -2.4663  2.4361
15755TIP3    H268757   1.684   1.603   5.390 -0.5448  0.5557 -0.1339
15756TIP3   OH268758   2.513   4.738   3.992 -0.0282  0.0349 -0.8804
15756TIP3    H168759   2.500   4.813   4.050 -0.9491 -1.1774  0.5378
15756TIP3    H268760   2.524   4.777   3.905 -2.3027  1.7415 -0.4920
15757TIP3   OH268761   0.439   0.295  11.772  0.3367  0.5031 -0.6031
15757TIP3    H168762   0.447   0.284  11.677  1.9324 -0.4415 -0.3954
15757TIP3    H268763   0.451   0.207  11.808 -0.5276  0.8050  0.4740
15758TIP3   OH268764   1.409   1.100  11.899 -0.7378 -0.8420 -0.4342
15758TIP3    H168765   1.442   1.140  11.979 -0.2169 -1.4946 -0.3138
15758TIP3    H268766   1.410   1.006  11.917  2.0691 -1.2403 -2.1537
15759TIP3   OH268767   1.551   4.300   2.866  0.0251 -0.4631  0.6359
15759TIP3    H168768   1.548   4.366   2.797 -2.1304 -1.0716  0.0861
15759TIP3    H268769   1.644   4.294   2.889  0.5697  1.0144 -0.9611
15760TIP3   OH268770   4.300   0.991  14.941 -0.0296  0.2786 -0.7877
15760TIP3    H168771   4.237   1.016  15.009  0.3875  1.6032 -0.8592
15760TIP3    H268772   4.259   1.020  14.859  0.2827  0.3476 -0.9183
15761TIP3   OH268773   0.670   5.481   5.363 -0.1303 -0.1036 -0.4060
15761TIP3    H168774   0.689   5.428   5.440 -1.5386 -1.2334 -0.7867
15761TIP3    H268775   0.686   5.571   5.391 -0.5421 -0.4904  1.1900
15762TIP3   OH268776   3.683   0.266  13.943  0.2578  0.0858 -0.0050
15762TIP3    H168777   3.774   0.292  13.953  0.0346  0.9081 -0.0845
15762TIP3    H268778   3.664   0.215  14.022  0.8059 -0.1813 -0.0366
15763TIP3   OH268779   4.379   0.916   2.070  0.0780 -0.0197 -0.4049
15763TIP3    H168780   4.363   0.852   2.139 -0.2096 -0.1711 -0.6113
15763TIP3    H268781   4.415   0.993   2.115 -0.3044 -0.0413 -0.0649
15764TIP3   OH268782   2.262   1.030   2.579  0.2208  0.8457 -0.6713
15764TIP3    H168783   2.199   1.002   2.646  0.2086 -0.4334 -1.1794
15764TIP3    H268784   2.219   1.008   2.496  1.0874  0.5185 -1.0364
15765TIP3   OH268785   4.911   2.709   3.636  0.4485 -0.1849  0.0612
15765TIP3    H168786   5.004   2.722   3.653  0.8587 -0.7227 -1.5606
15765TIP3    H268787   4.880   2.793   3.603 -0.2340  0.7077  2.7126
15766TIP3   OH268788   0.475   0.482   1.689  0.5586  0.0515 -0.3833
15766TIP3    H168789   0.480   0.551   1.755  0.9087 -0.2359 -0.1058
15766TIP3    H268790   0.382   0.475   1.669  0.2940 -0.6732  0.9618
15767TIP3   OH268791   1.271   4.228  14.882  0.0803 -0.0008 -0.3604
15767TIP3    H168792   1.196   4.177  14.913  0.6223 -0.3612  0.3762
15767TIP3    H268793   1.240   4.319  14.880 -1.2250 -0.4177 -2.6767
15768TIP3   OH268794   0.551   1.047  14.947 -0.1763 -0.1206  0.1819
15768TIP3    H168795   0.477   0.994  14.978  1.2851 -1.1658  2.1331
15768TIP3    H268796   0.570   1.106  15.020  0.8920  0.1363 -0.2839
15769TIP3   OH268797   2.150   2.907  13.965 -0.2641  0.2097 -0.5826
15769TIP3    H168798   2.165   2.994  13.929  0.7713 -0.4750 -1.9025
15769TIP3    H268799   2.237   2.868  13.972 -0.6896 -0.6521  0.1718
15770TIP3   OH268800   4.416   6.131   5.465 -0.1275  0.3475 -0.2330
15770TIP3    H168801   4.332   6.086   5.468  0.1140 -0.2095 -1.3399
15770TIP3    H268802   4.474   6.078   5.520 -0.2645  0.2180 -0.2129
15771TIP3   OH268803   4.401   3.708  16.764  0.3396  0.1680  0.4945
15771TIP3    H168804   4.385   3.673  16.676  3.0869  0.8158 -0.3668
15771TIP3    H268805   4.320   3.755  16.786 -0.9563 -1.2184 -1.0301
15772TIP3   OH268806   2.811   0.810  11.192 -0.7026 -0.2758  0.1734
15772TIP3    H168807   2.755   0.863  11.136 -1.2033 -2.2460 -1.2866
15772TIP3    H268808   2.829   0.731  11.141  0.0245 -1.5274  2.2368
15773TIP3   OH268809   4.577   3.924  15.722 -0.3775  0.0161  0.2238
15773TIP3    H168810   4.592   3.839  15.765 -0.4477 -1.0723 -1.7663
15773TIP3    H268811   4.490   3.951  15.753 -0.2972 -0.5668  0.9954
15774TIP3   OH268812   0.035   1.640  15.257 -0.1186  0.8859  0.0142
15774TIP3    H168813   0.016   1.665  15.347 -0.0633 -1.8616  0.8632
15774TIP3    H268814   0.023   1.545  15.254  0.4051  0.7996 -2.7481
15775TIP3   OH268815   0.869   6.675  14.036 -0.1273  0.2137 -0.2046
15775TIP3    H168816   0.951   6.711  14.001 -0.1648  0.1334 -0.3763
15775TIP3    H268817   0.889   6.657  14.128  0.0771  0.1170 -0.2648
15776TIP3   OH268818   3.170   0.951   5.346 -0.0036 -0.4980  0.0208
15776TIP3    H168819   3.076   0.972   5.353  0.6627  2.9819  0.4109
15776TIP3    H268820   3.191   0.907   5.428 -1.2921 -1.5241 -0.1626
15777TIP3   OH268821   4.325   2.757  11.399 -0.1508  0.0452 -0.5154
15777TIP3    H168822   4.354   2.665  11.395 -0.5953 -0.0571 -2.3643
15777TIP3    H268823   4.253   2.756  11.461  0.0147 -0.8221 -0.3178
15778TIP3   OH268824   2.797   6.310   3.557 -0.6569 -0.9063  0.1507
15778TIP3    H168825   2.837   6.355   3.483  0.2489 -1.2172  0.4357
15778TIP3    H268826   2.828   6.220   3.550 -1.2088 -1.1238  0.4577
15779TIP3   OH268827   2.191   1.448  12.622  0.9263  0.0578  0.6544
15779TIP3    H168828   2.273   1.469  12.578  1.3693  1.2670  1.9644
15779TIP3    H268829   2.217   1.413  12.707  0.0866 -1.7614  0.2145
15780TIP3   OH268830   2.427   0.378  12.571  0.3114 -0.2639 -0.2319
15780TIP3    H168831   2.333   0.382  12.587  0.2450 -0.4396 -0.5735
15780TIP3    H268832   2.458   0.309  12.630  0.5549  1.1434  1.3751
15781TIP3   OH268833   4.576   2.907  15.626 -0.3962  0.1406  0.3086
15781TIP3    H168834   4.588   2.902  15.721  1.5039 -0.3117  0.0876
15781TIP3    H268835   4.504   2.969  15.614 -1.4718 -0.6839  2.0703
15782TIP3   OH268836   6.832   5.951   5.999  0.5335  0.2954  0.4141
15782TIP3    H168837   6.780   6.015   5.952  0.5891 -0.0280 -0.0981
15782TIP3    H268838   6.769   5.896   6.045  0.3662 -0.5338 -0.7643
15783TIP3   OH268839   3.681   4.428   6.729 -0.1730 -0.4284 -0.0560
15783TIP3    H168840   3.726   4.500   6.774  0.4443  0.0184 -1.3321
15783TIP3    H268841   3.650   4.467   6.647 -0.6763 -1.3843 -0.3325
15784TIP3   OH268842   6.363   5.672   3.364 -0.0555  0.0600 -0.0380
15784TIP3    H168843   6.373   5.762   3.335  0.3989 -0.2945 -1.0177
15784TIP3    H268844   6.444   5.654   3.413  2.3241 -1.3082 -3.9760
15785TIP3   OH268845   6.070   3.086  13.927  0.0612  0.1622  0.6799
15785TIP3    H168846   6.159   3.112  13.902  0.3083 -2.1253 -1.0960
15785TIP3    H268847   6.014   3.157  13.895  1.1016  0.9928  0.6444
15786TIP3   OH268848   3.385   0.805   4.755  0.3929  0.3264 -0.7495
15786TIP3    H168849   3.319   0.873   4.743  0.3383  0.3890 -0.1211
15786TIP3    H268850   3.393   0.795   4.850 -0.2496 -1.1499 -0.8088
15787TIP3   OH268851   5.484   5.980  15.132 -0.1821 -0.9432 -0.8218
15787TIP3    H168852   5.489   5.885  15.136  0.0325 -0.9030  1.1383
15787TIP3    H268853   5.420   6.004  15.200  1.8108  0.3838  0.7339
15788TIP3   OH268854   1.129   3.088   3.021  0.0461  0.2177 -0.5085
15788TIP3    H168855   1.215   3.128   3.004  0.6049 -0.9168 -0.4233
15788TIP3    H268856   1.145   2.994   3.018 -1.2287 -0.0147 -0.5962
15789TIP3   OH268857   5.350   1.751  14.343  0.8080  0.0831 -0.1193
15789TIP3    H168858   5.295   1.714  14.274  0.4300  2.9191 -1.5049
15789TIP3    H268859   5.291   1.766  14.416  0.7716 -1.0977  0.1031
15790TIP3   OH268860   2.977   2.296  10.765  0.7954  0.1180  0.1667
15790TIP3    H168861   3.017   2.268  10.847  2.6744  1.0592 -0.3700
15790TIP3    H268862   2.937   2.381  10.785 -1.2667 -0.9223  0.7588
15791TIP3   OH268863   1.440   0.945   0.795 -0.5231 -0.2329 -0.5163
15791TIP3    H168864   1.389   0.963   0.716  1.9997 -1.5601 -2.6043
15791TIP3    H268865   1.502   1.017   0.802 -1.2995  0.3436  0.8385
15792TIP3   OH268866   0.932   3.625   4.567  0.1348  0.0045 -0.2919
15792TIP3    H168867   0.968   3.576   4.642 -2.9811  0.5602  1.7690
15792TIP3    H268868   0.983   3.706   4.566  1.4565 -0.7843  0.0168
15793TIP3   OH268869   4.997   2.924  15.797  0.6097 -0.2200 -0.1771
15793TIP3    H168870   5.013   2.959  15.885  0.2920 -0.6016  0.0313
15793TIP3    H268871   4.919   2.869  15.807  0.4450 -0.0873 -0.7435
15794TIP3   OH268872   2.341   6.544  11.719 -0.1164 -0.8354 -0.1046
15794TIP3    H168873   2.307   6.634  11.715  0.6631 -0.5461 -0.6524
15794TIP3    H268874   2.338   6.515  11.628  1.7620 -0.5278 -0.2974
15795TIP3   OH268875   3.862   6.299   0.638  0.1491  0.6095 -0.5632
15795TIP3    H168876   3.871   6.351   0.558 -2.6668 -0.6256 -1.7833
15795TIP3    H268877   3.768   6.289   0.650  0.5532 -1.5098  1.4394
15796TIP3   OH268878   4.295   4.311  11.749 -0.0297 -0.0436  0.3911
15796TIP3    H168879   4.245   4.379  11.703 -0.5189 -0.3276  0.5027
15796TIP3    H268880   4.341   4.264  11.679 -1.1508 -0.7823  0.1304
15797TIP3   OH268881   3.883   3.000   6.414  0.0843 -0.3962 -0.3069
15797TIP3    H168882   3.940   3.058   6.465 -1.2305  0.0337  0.7456
15797TIP3    H268883   3.836   3.059   6.355 -0.2859 -0.5580 -0.1768
15798TIP3   OH268884   6.223   5.460   5.081 -0.2692 -0.2638 -0.7212
15798TIP3    H168885   6.134   5.455   5.116 -1.0501  0.0720 -2.5570
15798TIP3    H268886   6.215   5.431   4.990  1.5580 -0.4737 -0.8530
15799TIP3   OH268887   2.849   6.502   0.175  0.3577 -0.2098  0.9392
15799TIP3    H168888   2.808   6.415   0.182  0.0546  0.0096  2.2157
15799TIP3    H268889   2.790   6.559   0.225 -0.0533  0.9695 -0.8123
15800TIP3   OH268890   2.027   2.016   1.699  0.2536 -0.6052 -0.0001
15800TIP3    H168891   2.113   2.046   1.727 -0.3762  0.5950  0.7027
15800TIP3    H268892   2.006   2.068   1.622  1.0158 -2.3551 -1.4827
15801TIP3   OH268893   5.903   0.999   5.609  0.5395  0.1070  0.1864
15801TIP3    H168894   5.811   1.022   5.606  0.3543 -0.2712  1.8910
15801TIP3    H268895   5.945   1.057   5.545 -0.7023  1.0991  0.2476
15802TIP3   OH268896   5.224   5.871  11.088  0.8277 -0.9439 -0.9925
15802TIP3    H168897   5.297   5.869  11.025  0.0463 -1.1608 -1.9158
15802TIP3    H268898   5.174   5.949  11.064  2.1180  0.6754  1.2724
15803TIP3   OH268899   5.400   4.486   0.966 -0.1222  0.2297  0.0548
15803TIP3    H168900   5.305   4.494   0.962 -0.2484 -1.1428 -0.3869
15803TIP3    H268901   5.416   4.391   0.965  1.3322  0.4099 -2.2850
15804TIP3   OH268902   5.290   1.612  14.804  0.4255  0.4335 -0.0970
15804TIP3    H168903   5.347   1.560  14.860  1.2399  1.7814  0.3750
15804TIP3    H268904   5.226   1.651  14.864  0.3031  0.6007 -0.3325
15805TIP3   OH268905   2.605   4.403   5.143  0.0788 -0.4039  0.2225
15805TIP3    H168906   2.512   4.384   5.130 -0.4795  1.3409  1.3788
15805TIP3    H268907   2.607   4.495   5.167  2.2026 -0.2011 -0.5664
15806TIP3   OH268908   6.514   2.327  11.226  0.2975 -0.6080  0.0873
15806TIP3    H168909   6.449   2.268  11.188  1.0956 -0.8724 -0.9285
15806TIP3    H268910   6.595   2.276  11.227  1.1137  0.5868 -1.2252
15807TIP3   OH268911   4.701   1.214  16.382 -0.6955  0.4003  0.0370
15807TIP3    H168912   4.670   1.304  16.394 -2.4400 -0.0848 -0.5018
15807TIP3    H268913   4.640   1.176  16.319  1.1912 -0.6020 -1.2751
15808TIP3   OH268914   0.875   3.362   4.343  0.1263  0.4713 -0.0581
15808TIP3    H168915   0.833   3.412   4.274  0.2702  0.6590 -0.0102
15808TIP3    H268916   0.808   3.353   4.411  0.2531  1.0258  0.1480
15809TIP3   OH268917   6.296   6.435  10.892 -0.0594 -0.1770 -0.3508
15809TIP3    H168918   6.381   6.418  10.851  0.2658  2.2340 -0.8527
15809TIP3    H268919   6.274   6.525  10.865 -1.1246  0.5617  2.5613
15810TIP3   OH268920   0.731   6.796   5.191  0.8539 -0.0377  0.0834
15810TIP3    H168921   0.716   6.703   5.204  2.6088 -0.6355 -1.7863
15810TIP3    H268922   0.823   6.810   5.214  1.0919  0.8700 -1.3276
15811TIP3   OH268923   6.600   0.010   5.396  0.8389  0.1417  0.3473
15811TIP3    H168924   6.667  -0.030   5.341  2.0585  0.1883  1.7184
15811TIP3    H268925   6.517  -0.015   5.356  1.6668  0.4828 -1.6851
15812TIP3   OH268926   4.767   5.090  12.785 -0.2162  0.4023  0.1380
15812TIP3    H168927   4.721   5.067  12.865 -1.6816 -0.8952 -1.0359
15812TIP3    H268928   4.709   5.152  12.741  1.4133  2.5908  0.8746
15813TIP3   OH268929   0.448   1.071   1.527  0.1625  0.6638 -0.1494
15813TIP3    H168930   0.539   1.052   1.502  0.5957 -0.4406  1.9845
15813TIP3    H268931   0.411   0.985   1.548 -0.7916  1.2804  0.7761
15814TIP3   OH268932   0.990   6.834  12.263 -0.1467 -0.4177  0.1726
15814TIP3    H168933   0.985   6.914  12.210  1.1923 -0.2600  0.2517
15814TIP3    H268934   0.905   6.792  12.251 -0.3429  0.2767 -1.0538
15815TIP3   OH268935   0.482   3.025  15.161 -0.1525  0.1443 -0.4338
15815TIP3    H168936   0.544   2.997  15.228  0.8097  0.2484 -1.2492
15815TIP3    H268937   0.533   3.083  15.104 -0.9118 -0.0274 -1.3106
15816TIP3   OH268938   3.186   1.123   2.172 -0.2056 -0.1921  0.0550
15816TIP3    H168939   3.210   1.045   2.121  3.7578  0.5293  0.4884
15816TIP3    H268940   3.134   1.176   2.112  0.9353 -1.1355 -1.8805
15817TIP3   OH268941   4.249   2.379  15.278  0.3876  0.2915 -0.2535
15817TIP3    H168942   4.296   2.332  15.347  0.5729 -0.2604 -0.7485
15817TIP3    H268943   4.176   2.422  15.324  0.7564  0.2860  0.3481
15818TIP3   OH268944   0.888   1.723  15.397 -0.0720 -0.8029 -0.3594
15818TIP3    H168945   0.793   1.725  15.402 -0.1162  1.6019 -0.7594
15818TIP3    H268946   0.916   1.806  15.435  1.9102 -1.6371  0.1395
15819TIP3   OH268947   0.746   1.683   6.146  0.7438 -0.0701  0.0682
15819TIP3    H168948   0.672   1.629   6.174 -0.1550  0.0730 -1.9003
15819TIP3    H268949   0.818   1.658   6.205 -0.9159  0.0454  2.2724
15820TIP3   OH268950   1.895   6.104  11.783  0.3415  0.4049  0.6844
15820TIP3    H168951   1.931   6.073  11.866  0.8531 -0.1280  0.2706
15820TIP3    H268952   1.968   6.148  11.740  0.5446 -0.7630 -0.2023
15821TIP3   OH268953   0.965   4.447   1.062  0.9628  0.1496 -0.3786
15821TIP3    H168954   0.999   4.525   1.106  2.4235 -1.0021  0.6205
15821TIP3    H268955   0.941   4.477   0.974  1.2742  1.7587  0.0605
15822TIP3   OH268956   6.693   4.857  15.601 -0.1438 -0.1852  0.1645
15822TIP3    H168957   6.771   4.847  15.655  1.1827  0.1577 -1.5763
15822TIP3    H268958   6.724   4.837  15.512 -1.8890  0.6383 -0.6616
15823TIP3   OH268959   3.827   3.115   1.162  0.2748  0.0300  0.1709
15823TIP3    H168960   3.854   3.126   1.071  1.9055  0.0632  0.6293
15823TIP3    H268961   3.893   3.163   1.212  0.1634 -1.1065  1.4479
15824TIP3   OH268962   3.169   1.532   0.031  0.2895 -0.6431  0.1259
15824TIP3    H168963   3.199   1.484  -0.046 -1.1128 -0.6018 -0.4801
15824TIP3    H268964   3.246   1.537   0.088  1.0301 -1.7266 -0.7340
15825TIP3   OH268965   3.827   5.055  14.015  0.6021 -0.0629 -0.1402
15825TIP3    H168966   3.747   5.079  13.967  1.2931  3.2528  0.1295
15825TIP3    H268967   3.796   4.999  14.086 -1.2336 -0.2949 -1.0613
15826TIP3   OH268968   5.272   3.619  13.222  0.1262  0.4281  0.2230
15826TIP3    H168969   5.193   3.601  13.273 -0.2778 -0.1305 -0.5785
15826TIP3    H268970   5.341   3.573  13.269  0.0527  1.1729  1.1066
15827TIP3   OH268971   3.812   5.671   6.096  0.4492 -0.1438 -0.2423
15827TIP3    H168972   3.843   5.648   6.009  0.2731 -1.5158  0.0327
15827TIP3    H268973   3.720   5.643   6.097  0.1875  0.7004  0.0868
15828TIP3   OH268974   0.544   0.536  13.736 -0.1012 -0.2668  0.3359
15828TIP3    H168975   0.623   0.590  13.738  0.3456 -0.8601 -0.6490
15828TIP3    H268976   0.474   0.597  13.713  0.5722 -0.2461 -1.9036
15829TIP3   OH268977   6.049   5.511  16.425  0.2469  0.0797  0.0977
15829TIP3    H168978   6.066   5.595  16.467 -0.1231 -1.4387  3.5841
15829TIP3    H268979   6.124   5.456  16.448 -0.0439 -0.9124 -1.1867
15830TIP3   OH268980   3.280   1.123   0.953  0.9860 -0.2797  0.2495
15830TIP3    H168981   3.282   1.188   1.022 -1.3721  0.8768 -0.6710
15830TIP3    H268982   3.338   1.158   0.885  0.9436  0.0955  0.4057
15831TIP3   OH268983   6.449   2.009   1.345  0.1865 -0.0794 -0.0248
15831TIP3    H168984   6.365   1.983   1.382 -1.1752  1.8449 -1.5750
15831TIP3    H268985   6.429   2.038   1.256  2.9020 -1.9608 -1.4261
15832TIP3   OH268986   3.315   1.923   0.980  0.5647  0.3502 -0.8377
15832TIP3    H168987   3.346   1.967   0.900 -0.1613 -2.1901 -2.6519
15832TIP3    H268988   3.220   1.937   0.979  0.3909 -0.7896 -1.1760
15833TIP3   OH268989   0.160   2.341   5.424  0.3587  0.2323  0.0314
15833TIP3    H168990   0.089   2.311   5.481  1.2361 -1.6375  0.2077
15833TIP3    H268991   0.231   2.364   5.484  0.7768 -0.3291 -0.2488
15834TIP3   OH268992   5.024   6.404   4.106  0.2108 -0.3210 -0.4078
15834TIP3    H168993   4.960   6.379   4.039 -2.6603 -0.1158  2.0518
15834TIP3    H268994   5.007   6.496   4.124  1.9224  0.0280 -0.3285
15835TIP3   OH268995   1.360   4.646   1.107  0.0612  0.6101  0.7633
15835TIP3    H168996   1.328   4.611   1.190 -1.7622  0.4604  0.0417
15835TIP3    H268997   1.287   4.634   1.047  0.8280  2.0467 -0.5035
15836TIP3   OH268998   5.951   1.318   1.627 -0.4542  0.3625  0.3300
15836TIP3    H168999   5.915   1.401   1.656 -1.7129  0.4432 -1.3051
15836TIP3    H269000   6.042   1.319   1.656 -0.6006  2.0615  0.8039
15837TIP3   OH269001   2.908   2.002   4.736  0.3502 -0.2309 -0.1608
15837TIP3    H169002   2.833   2.061   4.740 -0.4739 -1.2955  0.4084
15837TIP3    H269003   2.984   2.060   4.747 -0.3103  0.9544 -1.4488
15838TIP3   OH269004   5.997   6.053  11.444 -0.1251  0.9936 -0.4373
15838TIP3    H169005   5.918   6.040  11.496 -0.2827  0.0843 -0.8866
15838TIP3    H269006   6.057   6.100  11.503 -0.7558  1.0989  0.1314
15839TIP3   OH269007   1.235   6.336  14.340  0.3287  0.3029 -0.0754
15839TIP3    H169008   1.289   6.261  14.366  0.2564  1.1576  2.8192
15839TIP3    H269009   1.288   6.380  14.273  1.3931 -1.0400 -0.1805
15840TIP3   OH269010   2.687   5.561   2.901 -0.0798  0.0659 -0.0640
15840TIP3    H169011   2.655   5.546   2.990  0.3149  1.6098  0.3618
15840TIP3    H269012   2.688   5.656   2.891  0.3341 -0.0683 -1.5636
15841TIP3   OH269013   4.053   2.541   1.067 -0.0038  0.2596 -0.3378
15841TIP3    H169014   4.117   2.548   0.996  0.6708 -1.9336 -0.0387
15841TIP3    H269015   4.020   2.452   1.061 -2.2896  1.0153  0.1984
15842TIP3   OH269016   3.782   5.543  11.726  0.3758  0.3657 -0.4796
15842TIP3    H169017   3.720   5.595  11.777 -0.3669 -1.0796  0.1363
15842TIP3    H269018   3.730   5.471  11.691  0.9712  1.0713 -2.9674
15843TIP3   OH269019   0.281   4.322  16.911 -0.0949  0.3356 -0.3554
15843TIP3    H169020   0.212   4.388  16.925 -0.8583 -0.4379 -0.3617
15843TIP3    H269021   0.243   4.261  16.849  1.3015  0.8629 -1.7786
15844TIP3   OH269022   4.171   6.810   5.561  0.0553  0.0884 -0.2680
15844TIP3    H169023   4.177   6.883   5.499  0.8885  0.5956  0.3716
15844TIP3    H269024   4.078   6.804   5.582  0.1547  2.5069  1.3926
15845TIP3   OH269025   3.028   1.941   5.706  0.1490  0.2060  0.3183
15845TIP3    H169026   3.101   1.903   5.656  0.8028  0.6907  0.8826
15845TIP3    H269027   3.035   2.035   5.690 -0.7186  0.2128 -0.0901
15846TIP3   OH269028   5.961   0.527   0.239  0.5367  0.2306 -0.6085
15846TIP3    H169029   5.886   0.585   0.256  0.8228  0.1577  1.1230
15846TIP3    H269030   5.940   0.447   0.288  2.7731  1.0839  1.9573
15847TIP3   OH269031   6.090   4.794   2.905 -0.3738  0.2792  0.5677
15847TIP3    H169032   6.144   4.763   2.977 -0.8794 -0.1885  0.7597
15847TIP3    H269033   6.091   4.889   2.914  1.1143  0.3348  0.0363
15848TIP3   OH269034   3.228   2.890   5.539  0.3154 -0.0491  0.3539
15848TIP3    H169035   3.281   2.861   5.614  1.0274 -0.7368 -0.4053
15848TIP3    H269036   3.261   2.977   5.518  2.0808 -0.9841 -0.9353
15849TIP3   OH269037   1.391   6.116  16.870 -0.3290  0.2078 -0.5987
15849TIP3    H169038   1.335   6.145  16.798  0.2097 -1.7356 -1.8718
15849TIP3    H269039   1.480   6.137  16.841 -0.2101  1.3350  0.4773
15850TIP3   OH269040   2.717   3.478   1.627 -0.7376  0.0911  0.2561
15850TIP3    H169041   2.711   3.393   1.582 -1.1392 -1.1320  2.5011
15850TIP3    H269042   2.637   3.524   1.601 -0.0343  0.2574 -1.7933
15851TIP3   OH269043   2.441   3.674   1.628  0.1949 -0.5303 -0.4769
15851TIP3    H169044   2.420   3.627   1.548 -2.0732 -2.0139  0.8921
15851TIP3    H269045   2.357   3.697   1.666  1.2189  1.7906  0.6021
15852TIP3   OH269046   1.709   0.453  16.556  0.1718 -0.2389  0.1165
15852TIP3    H169047   1.804   0.445  16.566 -0.1212 -1.1282  2.7420
15852TIP3    H269048   1.678   0.487  16.640 -1.9083 -0.3832 -0.5301
15853TIP3   OH269049   0.779   2.017  14.329 -0.6208  0.1981 -0.0485
15853TIP3    H169050   0.865   1.978  14.318 -0.9806 -0.7413  0.3552
15853TIP3    H269051   0.742   1.972  14.406 -1.4474  0.6094 -0.1973
15854TIP3   OH269052   0.955   2.279  14.088 -0.1777 -0.5545  0.0123
15854TIP3    H169053   0.902   2.270  14.009 -0.7004  0.2991  0.2498
15854TIP3    H269054   0.963   2.190  14.122 -1.0306 -0.7669 -0.3142
15855TIP3   OH269055   5.799   6.415  10.823  0.1442 -0.2853 -0.1297
15855TIP3    H169056   5.879   6.425  10.875  0.1651  0.9043 -0.3448
15855TIP3    H269057   5.746   6.352  10.871  1.3311 -1.3231 -0.1290
15856TIP3   OH269058   0.460   2.761   3.458 -0.6448 -0.4599  0.0728
15856TIP3    H169059   0.541   2.750   3.508 -0.1980 -1.0787 -0.7730
15856TIP3    H269060   0.432   2.672   3.438 -1.4257 -0.2450  0.1697
15857TIP3   OH269061   6.134   1.216   5.306 -0.2960 -0.4823  0.6274
15857TIP3    H169062   6.039   1.220   5.317 -0.6666 -2.5292 -1.1546
15857TIP3    H269063   6.165   1.165   5.380 -0.7518 -0.8994  0.5331
15858TIP3   OH269064   4.773   0.602  16.960  0.1915 -1.1319 -0.4907
15858TIP3    H169065   4.836   0.592  17.032 -0.3166 -0.0449  0.1306
15858TIP3    H269066   4.783   0.693  16.932 -2.0606 -0.4939  0.5670
15859TIP3   OH269067   3.920   2.746   3.407  0.6630  0.3594 -0.3906
15859TIP3    H169068   3.953   2.673   3.461  0.1146 -0.3688 -1.0159
15859TIP3    H269069   3.900   2.815   3.470  0.0342 -0.4731  0.3541
15860TIP3   OH269070   6.546   1.120   4.495 -0.6558 -0.6456 -0.2357
15860TIP3    H169071   6.626   1.083   4.458 -1.2202 -0.1133 -2.0737
15860TIP3    H269072   6.511   1.051   4.552  1.2167 -0.7823  0.8247
15861TIP3   OH269073   5.751   6.443   2.856  0.2100  0.1608  0.5718
15861TIP3    H169074   5.761   6.487   2.940  1.1820 -0.2249  0.6785
15861TIP3    H269075   5.752   6.514   2.791 -1.1700  0.5110  0.9009
15862TIP3   OH269076   3.764   3.692  11.099  0.2851 -0.2811 -0.2534
15862TIP3    H169077   3.759   3.742  11.181 -1.7284 -1.1682  0.2413
15862TIP3    H269078   3.793   3.755  11.034 -0.4770  1.0902  0.6859
15863TIP3   OH269079   5.004   5.663  14.752  0.0806 -0.0248  0.9267
15863TIP3    H169080   5.094   5.636  14.768  0.2425  0.3104  0.5895
15863TIP3    H269081   4.952   5.611  14.813  0.3102 -1.6535 -0.1960
15864TIP3   OH269082   1.049   3.656   0.563 -0.3009 -0.1441  0.3707
15864TIP3    H169083   0.959   3.651   0.597 -0.4558  0.0232 -0.0038
15864TIP3    H269084   1.104   3.635   0.638 -0.6923 -1.4520  0.3199
15865TIP3   OH269085   4.195   0.390   1.563 -0.3666  0.2060 -0.8603
15865TIP3    H169086   4.185   0.328   1.491  1.2481  0.4563 -1.3395
15865TIP3    H269087   4.193   0.336   1.642  1.4210 -0.5524 -1.2872
15866TIP3   OH269088   1.905   1.873   0.247 -0.1954  0.1229 -0.2928
15866TIP3    H169089   1.889   1.968   0.240 -1.2693  0.0935  1.4462
15866TIP3    H269090   1.822   1.833   0.224  0.9039 -0.5855 -3.5606
15867TIP3   OH269091   6.053   6.427   2.186 -0.3160  0.7177  0.1821
15867TIP3    H169092   6.149   6.424   2.182 -0.2896  1.7842 -0.2040
15867TIP3    H269093   6.025   6.357   2.126  0.2180  0.7680 -0.1316
15868TIP3   OH269094   3.742   4.771  16.218  0.5407 -0.0370 -0.1178
15868TIP3    H169095   3.659   4.755  16.263  0.1856 -0.2474 -0.8262
15868TIP3    H269096   3.727   4.851  16.168  0.8108 -0.0066 -0.1530
15869TIP3   OH269097   3.297   5.669   5.439  0.2719 -0.6540 -0.4235
15869TIP3    H169098   3.324   5.741   5.383 -0.0888 -1.9861 -2.4343
15869TIP3    H269099   3.212   5.642   5.404 -1.4992  0.3679  2.7334
15870TIP3   OH269100   6.072   0.283   2.685 -0.0906  0.7207 -0.0080
15870TIP3    H169101   6.101   0.339   2.613 -0.0969  1.7948  0.7902
15870TIP3    H269102   6.149   0.274   2.741 -0.1947  0.2261  0.0610
15871TIP3   OH269103   1.623   5.900   0.986 -0.1242 -0.1048  0.1882
15871TIP3    H169104   1.684   5.967   0.955 -0.3241  0.4680  1.0283
15871TIP3    H269105   1.591   5.932   1.070 -0.6094 -1.0136  0.3687
15872TIP3   OH269106   0.910   2.984   2.657  0.2400 -0.0348 -0.2306
15872TIP3    H169107   0.999   2.953   2.643  0.8023  1.7096 -0.8725
15872TIP3    H269108   0.920   3.070   2.697 -1.2395 -0.8937  2.1963
15873TIP3   OH269109   5.807   3.634  13.636 -0.4838 -0.1707 -0.4871
15873TIP3    H169110   5.783   3.578  13.710 -2.0711  0.4593 -0.4963
15873TIP3    H269111   5.728   3.638  13.583  0.3932  0.0367 -1.8192
15874TIP3   OH269112   2.791   0.923   1.356 -0.4025 -0.2471  0.6015
15874TIP3    H169113   2.792   0.836   1.316 -1.7514  0.5605 -1.3601
15874TIP3    H269114   2.809   0.907   1.448  0.0176 -2.5324  0.1877
15875TIP3   OH269115   6.571   4.869  16.938 -0.3580 -0.6971 -0.4316
15875TIP3    H169116   6.617   4.835  16.862 -2.1887  0.1396 -2.0194
15875TIP3    H269117   6.495   4.812  16.948 -1.2231  0.3860 -0.5445
15876TIP3   OH269118   1.832   3.171  17.100 -0.1985 -0.3924 -0.1657
15876TIP3    H169119   1.827   3.261  17.069 -1.1678 -0.8837 -1.4919
15876TIP3    H269120   1.839   3.180  17.195 -1.6142  1.0634 -0.1457
15877TIP3   OH269121   3.937   3.877   4.616  0.8378 -0.2374  0.2102
15877TIP3    H169122   4.014   3.932   4.602  0.1874  0.5322 -0.5111
15877TIP3    H269123   3.906   3.857   4.528  0.3565 -0.7308  0.4890
15878TIP3   OH269124   2.218   3.570  11.477 -0.2632 -0.2741  0.2496
15878TIP3    H169125   2.276   3.552  11.403  0.1300 -0.4503  0.5957
15878TIP3    H269126   2.158   3.637  11.445  1.2774  1.2746  0.4566
15879TIP3   OH269127   1.881   0.517   3.906 -0.0836 -0.6200 -0.0429
15879TIP3    H169128   1.830   0.598   3.920 -0.2188 -0.8391  0.8079
15879TIP3    H269129   1.832   0.470   3.839  0.1735  0.1512 -0.7876
15880TIP3   OH269130   6.194   2.406  14.562  0.2803 -0.1119  0.1919
15880TIP3    H169131   6.160   2.336  14.507 -0.9326  0.6349 -0.0452
15880TIP3    H269132   6.288   2.391  14.565  0.5173  0.2361 -2.7241
15881TIP3   OH269133   0.663   0.739  14.902  0.0237  0.2326  0.5350
15881TIP3    H169134   0.636   0.701  14.986 -0.9596  2.1149  1.1336
15881TIP3    H269135   0.622   0.826  14.901 -1.4362 -0.3481 -2.6528
15882TIP3   OH269136   6.631   3.049  11.726  0.6659 -0.6216 -0.3107
15882TIP3    H169137   6.696   3.036  11.796  0.0639 -0.0329  0.3737
15882TIP3    H269138   6.681   3.038  11.645  1.6691 -0.0241  0.2042
15883TIP3   OH269139   2.010   6.200   1.313 -0.3613 -0.4453 -0.0963
15883TIP3    H169140   1.934   6.203   1.370  0.4836  0.1412  1.0287
15883TIP3    H269141   2.056   6.120   1.337 -0.0639 -0.2589 -0.0375
15884TIP3   OH269142   3.351   2.371  12.105 -0.1096 -0.1348 -0.0531
15884TIP3    H169143   3.430   2.318  12.096 -0.7308 -0.9546 -0.8272
15884TIP3    H269144   3.292   2.317  12.158 -0.0122  0.6547  0.8927
15885TIP3   OH269145   6.156   1.103  14.315 -0.3613  0.9884  0.4046
15885TIP3    H169146   6.181   1.028  14.262 -0.9854  1.3931 -0.4878
15885TIP3    H269147   6.061   1.097  14.322 -0.1550 -0.7688  4.1028
15886TIP3   OH269148   2.442   3.590  11.278  0.1807 -0.4225  0.2918
15886TIP3    H169149   2.487   3.506  11.291  1.4120 -0.2288 -2.1482
15886TIP3    H269150   2.504   3.656  11.310  0.4211 -0.3037 -0.4122
15887TIP3   OH269151   3.869   2.051   3.534  0.2112  0.1581  0.1133
15887TIP3    H169152   3.880   2.005   3.617  1.1027  0.6764  0.2967
15887TIP3    H269153   3.897   1.987   3.468  0.2238  0.0006  0.2681
15888TIP3   OH269154   4.685   1.197  13.426 -0.6555 -0.1345  0.1917
15888TIP3    H169155   4.726   1.276  13.460  0.4805 -0.9314  0.7421
15888TIP3    H269156   4.657   1.220  13.337  1.8901  0.1812 -0.6036
15889TIP3   OH269157   0.968   3.198   4.943 -0.5750  0.0673 -0.1157
15889TIP3    H169158   0.997   3.175   5.032 -0.2149  0.2704 -0.1781
15889TIP3    H269159   1.048   3.193   4.890 -0.7761  0.0212 -0.4142
15890TIP3   OH269160   5.005   6.552   3.310 -0.3846  0.2539 -0.6871
15890TIP3    H169161   4.963   6.603   3.240 -1.7606 -1.4897 -1.1920
15890TIP3    H269162   4.967   6.587   3.391 -0.9870  0.3376 -0.9983
15891TIP3   OH269163   6.467   2.175   4.183 -0.4426  0.1165  0.1222
15891TIP3    H169164   6.439   2.125   4.106  1.1996  2.2991 -2.0615
15891TIP3    H269165   6.434   2.263   4.168  3.0345  1.5715 -0.1236
15892TIP3   OH269166   4.884   5.543   5.401 -0.1279  0.3884 -0.3667
15892TIP3    H169167   4.980   5.541   5.398 -0.0460  1.7734  0.5637
15892TIP3    H269168   4.864   5.579   5.487 -1.5155 -0.6354 -0.2390
15893TIP3   OH269169   6.034   0.720  14.580  0.7678 -0.2165  0.2374
15893TIP3    H169170   6.082   0.728  14.497 -0.9444  0.7396 -0.7084
15893TIP3    H269171   6.036   0.627  14.599  1.2364 -0.4564 -0.8608
15894TIP3   OH269172   6.397   5.857  14.440  0.5156 -0.2441  0.2060
15894TIP3    H169173   6.307   5.845  14.410  1.5628 -0.6620 -3.1470
15894TIP3    H269174   6.399   5.819  14.528 -2.6680  0.3168  0.6201
15895TIP3   OH269175   0.309   1.327   2.579  0.1168 -0.6046 -0.8315
15895TIP3    H169176   0.274   1.339   2.490 -0.0207 -1.6189 -0.9277
15895TIP3    H269177   0.251   1.262   2.619 -1.1710  1.4314  0.7920
15896TIP3   OH269178   4.880   5.115  13.450  0.0266 -0.1484 -0.1382
15896TIP3    H169179   4.961   5.154  13.483  0.4412 -2.5721  2.1094
15896TIP3    H269180   4.812   5.179  13.471  1.0314  0.8110  0.3036
15897TIP3   OH269181   3.586   4.712  11.982  0.3652 -0.0431  0.3155
15897TIP3    H169182   3.605   4.806  11.982  0.8423 -0.1397 -0.0517
15897TIP3    H269183   3.491   4.708  11.972  0.4652  0.3869 -0.9568
15898TIP3   OH269184   3.919   1.965  12.672 -0.1392  0.0678  0.0813
15898TIP3    H169185   3.985   1.902  12.642 -0.8432 -0.1431 -1.1299
15898TIP3    H269186   3.918   1.956  12.767 -1.4430 -3.1036 -0.0924
15899TIP3   OH269187   2.917   2.072   2.339  0.0054 -0.0135 -0.1412
15899TIP3    H169188   2.974   2.145   2.317 -0.5858  0.1227 -1.2699
15899TIP3    H269189   2.834   2.113   2.364 -0.0366 -0.2631  0.1383
15900TIP3   OH269190   2.481   4.164  17.188  0.1455 -0.0446 -0.0824
15900TIP3    H169191   2.413   4.184  17.253  0.2961 -0.6108  0.2575
15900TIP3    H269192   2.503   4.072  17.205  0.4716 -0.0753 -0.6752
15901TIP3   OH269193   1.494   0.298  13.267  0.6380 -0.0480  0.2057
15901TIP3    H169194   1.423   0.343  13.223  0.9026 -0.6775 -0.9092
15901TIP3    H269195   1.479   0.205  13.249  2.1934 -0.1443 -0.8200
15902TIP3   OH269196   6.356   0.938   0.719 -0.1153  0.2504  0.0489
15902TIP3    H169197   6.264   0.944   0.696 -0.2655 -0.8735  0.3035
15902TIP3    H269198   6.373   1.016   0.772 -0.6683  0.9505 -0.7829
15903TIP3   OH269199   1.792   4.251   2.925 -0.0960 -0.4861 -0.3636
15903TIP3    H169200   1.877   4.283   2.956  0.3751 -1.8393 -0.1951
15903TIP3    H269201   1.792   4.157   2.947 -1.4050 -0.6249 -0.8647
15904TIP3   OH269202   1.339   0.920  16.958 -0.3575  0.1749  0.5629
15904TIP3    H169203   1.405   0.852  16.954 -0.6414 -0.0612 -0.3941
15904TIP3    H269204   1.348   0.958  17.045  0.6439 -0.2386  0.6442
15905TIP3   OH269205   4.086   5.009  13.933 -0.8110 -0.6670  0.1147
15905TIP3    H169206   3.990   5.008  13.938 -0.7572 -0.5060  1.5943
15905TIP3    H269207   4.110   4.917  13.937 -0.9165 -0.8030 -1.4994
15906TIP3   OH269208   5.573   4.660  11.645 -0.1518 -0.0538 -0.5587
15906TIP3    H169209   5.655   4.633  11.602  0.1102  1.0751 -0.7957
15906TIP3    H269210   5.509   4.666  11.574  0.0596  0.9472 -0.6818
15907TIP3   OH269211   4.206   2.800  12.356  0.4598  0.1370  0.3166
15907TIP3    H169212   4.231   2.732  12.418  3.1452 -1.5060 -2.2904
15907TIP3    H269213   4.268   2.871  12.372 -0.2691  0.6689  0.8883
15908TIP3   OH269214   1.634   3.509  16.430  0.7347 -0.0964 -0.3159
15908TIP3    H169215   1.563   3.513  16.494  2.2392  1.7164  1.3570
15908TIP3    H269216   1.636   3.597  16.391 -0.8718 -1.4125 -3.8435
15909TIP3   OH269217   2.537   5.042   2.248 -0.3598 -0.3720  0.2429
15909TIP3    H169218   2.537   4.977   2.318  0.3295 -1.0206 -0.3478
15909TIP3    H269219   2.623   5.033   2.206 -0.2282  0.9544  0.1804
15910TIP3   OH269220   0.588   2.794   0.576  0.6923  0.3194 -0.0957
15910TIP3    H169221   0.563   2.706   0.605  0.0418  1.1616  2.0920
15910TIP3    H269222   0.507   2.844   0.580  1.3650  1.4085  0.2817
15911TIP3   OH269223   0.161   0.368  16.399 -0.0133 -0.3552 -0.4302
15911TIP3    H169224   0.128   0.284  16.431  0.6891 -1.0227 -1.3992
15911TIP3    H269225   0.095   0.432  16.427 -0.1105 -1.0824  1.1100
15912TIP3   OH269226   6.432   0.060   4.816  0.1930 -0.5737 -0.2667
15912TIP3    H169227   6.391   0.112   4.886 -0.1319  0.1457 -0.9797
15912TIP3    H269228   6.360   0.032   4.761  0.4257 -1.3612 -0.1795
15913TIP3   OH269229   1.703   6.273   3.236  0.3161 -0.3169  0.5306
15913TIP3    H169230   1.707   6.192   3.185  1.9513 -0.1362  0.3148
15913TIP3    H269231   1.719   6.342   3.171 -2.1382  0.3302  0.5014
15914TIP3   OH269232   1.540   5.452  15.596 -0.1508  0.2154  0.3995
15914TIP3    H169233   1.560   5.408  15.514 -0.8723  0.5337  0.0405
15914TIP3    H269234   1.587   5.535  15.592 -0.3526  0.3222  0.2100
15915TIP3   OH269235   5.799   1.248  15.179 -0.5571 -0.0802  0.1500
15915TIP3    H169236   5.854   1.292  15.243 -1.2997 -0.0830  0.7935
15915TIP3    H269237   5.785   1.160  15.215  1.4201 -1.1273 -1.4023
15916TIP3   OH269238   3.479   3.326   2.889  0.4852 -0.3609  0.1465
15916TIP3    H169239   3.553   3.311   2.830  1.9563 -2.0180  2.2872
15916TIP3    H269240   3.475   3.248   2.944 -3.4743 -0.7848 -0.4268
15917TIP3   OH269241   5.830   1.041  11.643 -0.3748 -0.1738  0.3748
15917TIP3    H169242   5.812   0.947  11.644 -0.7235 -0.1181  1.8480
15917TIP3    H269243   5.807   1.070  11.731  0.9763  1.0645  0.3427
15918TIP3   OH269244   5.665   5.384  14.118 -0.4809  0.2463 -0.2924
15918TIP3    H169245   5.721   5.462  14.115  1.1220 -0.7431  1.5624
15918TIP3    H269246   5.576   5.418  14.118  0.0866  1.9263 -2.2323
15919TIP3   OH269247   0.314   0.559  10.698 -0.2482 -0.1656 -0.2285
15919TIP3    H169248   0.274   0.506  10.628 -0.6243 -1.4434  0.9193
15919TIP3    H269249   0.378   0.501  10.739 -0.6414  0.2704  1.0520
15920TIP3   OH269250   4.717   2.799   2.654 -0.0698  0.4857 -0.0097
15920TIP3    H169251   4.785   2.862   2.678 -0.3579  1.2732 -1.1457
15920TIP3    H269252   4.638   2.853   2.640  0.1584  0.2261 -2.9866
15921TIP3   OH269253   6.477   2.764  16.873 -0.3640 -0.4378 -0.2605
15921TIP3    H169254   6.387   2.796  16.862 -0.1915  0.4262  0.7115
15921TIP3    H269255   6.530   2.822  16.819 -0.1054  0.6710  1.1437
15922TIP3   OH269256   0.393   4.937   6.236 -0.0609 -0.0701  0.4694
15922TIP3    H169257   0.474   4.895   6.208 -0.6786 -0.4244 -0.8448
15922TIP3    H269258   0.384   4.913   6.328  0.3052 -1.6881  0.1136
15923TIP3   OH269259   2.533   2.390   0.780 -0.5995  0.1252 -0.0333
15923TIP3    H169260   2.523   2.456   0.712  1.0043  1.0362  0.5432
15923TIP3    H269261   2.502   2.308   0.740 -2.2440  1.1231 -0.8984
15924TIP3   OH269262   1.563   4.721   5.628  0.0826  0.5857  0.1212
15924TIP3    H169263   1.552   4.682   5.714  0.0111  2.5566  1.0484
15924TIP3    H269264   1.475   4.743   5.600 -0.1426 -1.7813 -1.4021
15925TIP3   OH269265   4.801   4.753  14.339 -0.0511  0.3444 -0.0954
15925TIP3    H169266   4.764   4.767  14.426  1.1692 -0.3254  0.5596
15925TIP3    H269267   4.894   4.773  14.349  0.5738 -2.0046 -0.6227
15926TIP3   OH269268   6.100   5.239  12.799  0.2161 -0.3003  0.1523
15926TIP3    H169269   6.034   5.213  12.736 -0.1025  1.7365 -0.4254
15926TIP3    H269270   6.182   5.202  12.765  0.1814  1.3287 -1.9125
15927TIP3   OH269271   5.120   0.722  14.380 -0.5772 -0.2025 -0.4147
15927TIP3    H169272   5.137   0.758  14.467 -0.5243 -0.0476 -0.4888
15927TIP3    H269273   5.156   0.787  14.320 -0.0257 -0.6112 -0.5404
15928TIP3   OH269274   2.826   0.050  14.082 -0.2005  0.0546  0.0433
15928TIP3    H169275   2.813   0.037  14.176  0.7965  1.4125  0.3959
15928TIP3    H269276   2.918   0.075  14.073 -0.3628  0.2864 -1.2604
15929TIP3   OH269277   4.008   6.593   0.630  0.0310 -0.3044  0.8993
15929TIP3    H169278   4.029   6.670   0.577  0.1937 -0.4921  0.6857
15929TIP3    H269279   3.964   6.533   0.569  0.7178 -0.7510  0.8240
15930TIP3   OH269280   6.489   2.726  15.607  0.3418  0.2689  0.3788
15930TIP3    H169281   6.509   2.684  15.691 -1.3725  0.4555  0.9297
15930TIP3    H269282   6.420   2.671  15.570  0.9544  0.3023 -0.8395
15931TIP3   OH269283   1.123   1.027   0.823  0.3440 -0.6222  0.3472
15931TIP3    H169284   1.174   1.026   0.904  1.2411 -1.6789 -0.2084
15931TIP3    H269285   1.153   1.106   0.777  1.3026 -1.0855  0.1489
15932TIP3   OH269286   5.234   0.950  15.158 -0.4003  0.1501 -0.1419
15932TIP3    H169287   5.201   1.035  15.129  3.4475  1.1099 -2.3579
15932TIP3    H269288   5.284   0.969  15.237  0.3549 -0.0376 -0.5660
15933TIP3   OH269289   0.393   5.692   5.290 -0.5807  0.4059 -0.2432
15933TIP3    H169290   0.298   5.705   5.289 -0.6742 -0.1822  0.3637
15933TIP3    H269291   0.405   5.598   5.278 -0.1874  0.1104  2.0651
15934TIP3   OH269292   2.634   4.267  16.134 -0.2439  0.2830  0.2154
15934TIP3    H169293   2.726   4.249  16.118 -0.5758 -0.0683 -1.4042
15934TIP3    H269294   2.627   4.362  16.127 -0.3205  0.1781 -1.6395
15935TIP3   OH269295   3.344   6.282   3.804  0.5735 -0.2713  0.3458
15935TIP3    H169296   3.354   6.188   3.813 -0.2986 -0.4377 -0.2549
15935TIP3    H269297   3.290   6.293   3.725  0.6749  0.7268  0.3970
15936TIP3   OH269298   4.741   3.714   2.459  0.0491  0.0305 -0.6882
15936TIP3    H169299   4.825   3.758   2.476  0.5732 -0.5095 -1.7492
15936TIP3    H269300   4.716   3.675   2.542  0.0783  1.4716  0.0260
15937TIP3   OH269301   1.499   1.478  11.033  0.4526 -0.2153 -0.2333
15937TIP3    H169302   1.419   1.427  11.023  1.6102 -1.9193 -1.4882
15937TIP3    H269303   1.558   1.421  11.083  1.5372  0.1534 -1.0511
15938TIP3   OH269304   5.771   6.607  12.625  0.2493 -0.4633  0.4887
15938TIP3    H169305   5.766   6.518  12.590 -0.6169 -0.5571  0.8533
15938TIP3    H269306   5.708   6.610  12.696 -1.9880  1.2695 -1.3762
15939TIP3   OH269307   5.424   1.423   3.790 -0.1264  0.1628 -0.1012
15939TIP3    H169308   5.508   1.440   3.747 -0.5157 -1.9124 -1.8650
15939TIP3    H269309   5.394   1.510   3.819  2.9801  0.8764  1.4201
15940TIP3   OH269310   0.815   2.006   2.984 -0.4978 -0.0734 -0.4112
15940TIP3    H169311   0.737   1.998   2.928 -0.9882  1.3101  0.0210
15940TIP3    H269312   0.832   1.917   3.013 -3.3392 -0.1849  1.3384
15941TIP3   OH269313   5.234   4.373   5.083 -0.2403 -0.2935  0.4735
15941TIP3    H169314   5.314   4.415   5.115  0.1405 -0.4539 -0.2591
15941TIP3    H269315   5.163   4.428   5.116  0.1497 -0.3137  1.3798
15942TIP3   OH269316   3.439   4.846   2.530  0.9022 -0.1511 -0.6883
15942TIP3    H169317   3.353   4.867   2.566  1.1849 -0.6808  0.3337
15942TIP3    H269318   3.437   4.751   2.516  2.0688 -0.5894  1.5545
15943TIP3   OH269319   6.117   4.791   0.664  0.3887  0.4318  0.3676
15943TIP3    H169320   6.072   4.715   0.626  1.7022  0.1738 -0.7605
15943TIP3    H269321   6.110   4.859   0.596  0.3425  0.8936  0.8335
15944TIP3   OH269322   2.106   6.738  13.033 -0.2313 -0.0067 -0.6171
15944TIP3    H169323   2.039   6.670  13.029  0.0750 -0.5668  2.0488
15944TIP3    H269324   2.064   6.815  12.993 -1.3288 -1.1631 -1.7592
15945TIP3   OH269325   1.527   5.185  13.710 -0.6500 -0.0703 -0.4594
15945TIP3    H169326   1.437   5.174  13.741  0.6248 -0.5551  3.6036
15945TIP3    H269327   1.566   5.248  13.771  1.4809  1.1284 -2.8713
15946TIP3   OH269328   6.467   2.555  14.430 -0.0823  0.3201  0.4960
15946TIP3    H169329   6.494   2.645  14.451  0.1157  0.4905 -0.4623
15946TIP3    H269330   6.372   2.560  14.424  0.0511  1.2107 -2.6728
15947TIP3   OH269331   1.609   3.278  11.597 -0.5936 -0.0726  0.2278
15947TIP3    H169332   1.703   3.273  11.583 -0.4556  1.9640  0.0985
15947TIP3    H269333   1.599   3.288  11.692 -0.6932 -0.4786  0.2603
15948TIP3   OH269334   1.839   1.035  12.170  0.6659  0.3199  0.0240
15948TIP3    H169335   1.871   0.990  12.091 -1.4956  1.5772 -1.6824
15948TIP3    H269336   1.770   0.978  12.203 -0.0818  0.9315 -0.4464
15949TIP3   OH269337   1.403   3.440  11.177 -0.1747 -0.3186  0.4175
15949TIP3    H169338   1.464   3.367  11.177 -2.2536 -2.1751  1.1352
15949TIP3    H269339   1.343   3.422  11.249 -1.3777  1.5864 -0.0180
15950TIP3   OH269340   0.241   5.519  13.257 -0.0867  0.8613  0.0861
15950TIP3    H169341   0.210   5.487  13.172 -1.3327  2.6076 -0.1712
15950TIP3    H269342   0.162   5.532  13.308  0.6804 -0.8743  1.8475
15951TIP3   OH269343   5.046   0.295  11.031  0.5684 -0.0866 -0.1312
15951TIP3    H169344   5.117   0.351  11.061  0.9825 -1.5471  1.8564
15951TIP3    H269345   5.006   0.261  11.111 -2.2990  0.5210 -1.1771
15952TIP3   OH269346   0.106   1.966   3.800  0.1823  0.3825  0.2179
15952TIP3    H169347   0.129   1.946   3.891  0.3094 -0.8700 -0.0811
15952TIP3    H269348   0.129   2.059   3.790  0.4018  0.4726  1.3797
15953TIP3   OH269349   4.674   3.654  16.825 -0.2533 -0.4253  0.0043
15953TIP3    H169350   4.583   3.680  16.810  0.0326  0.6029 -0.0340
15953TIP3    H269351   4.725   3.707  16.763  0.5460  0.5470  1.4247
15954TIP3   OH269352   5.096   4.284   0.187  0.2357  0.2652  0.1991
15954TIP3    H169353   5.106   4.354   0.252  1.0863 -0.8120  1.2639
15954TIP3    H269354   5.172   4.228   0.199 -0.3652 -0.8002 -0.7012
15955TIP3   OH269355   6.715   0.106  14.286  0.7168 -0.4010 -0.3317
15955TIP3    H169356   6.795   0.127  14.238  1.7442 -2.0738  0.5729
15955TIP3    H269357   6.711   0.011  14.286 -0.9794 -0.3642  0.1718
15956TIP3   OH269358   4.934   6.341   4.574  0.5987 -0.1942  0.6931
15956TIP3    H169359   4.946   6.250   4.600 -0.9473 -0.5483  0.2593
15956TIP3    H269360   4.874   6.337   4.500  1.6907  1.0839 -0.3209
15957TIP3   OH269361   0.683   5.121   3.313  0.0929 -0.3091 -0.4937
15957TIP3    H169362   0.779   5.116   3.316  0.1112  0.4469  1.5313
15957TIP3    H269363   0.655   5.098   3.401 -1.4826  1.1597 -0.5579
15958TIP3   OH269364   3.338   6.654   0.327 -0.2541 -0.1575  0.3193
15958TIP3    H169365   3.351   6.718   0.397 -0.5644 -1.4705  1.6281
15958TIP3    H269366   3.426   6.622   0.308 -0.3697 -1.6802  2.0137
15959TIP3   OH269367   4.600   2.115  12.358 -0.0443  0.0649  0.3636
15959TIP3    H169368   4.609   2.175  12.284 -2.0392  0.1126  0.1105
15959TIP3    H269369   4.622   2.029  12.322 -0.9006  0.1026 -0.2684
15960TIP3   OH269370   6.053   1.421  13.241  0.5501 -0.8476 -0.2954
15960TIP3    H169371   6.086   1.444  13.154  1.8626 -0.9784  0.1550
15960TIP3    H269372   5.960   1.442  13.237  0.7831  0.0601 -1.4236
15961TIP3   OH269373   4.119   2.938   1.123  0.1847  0.4327 -0.1073
15961TIP3    H169374   4.185   2.868   1.118 -0.4582 -0.2633  0.6363
15961TIP3    H269375   4.040   2.899   1.086 -0.4716  0.3677  1.2684
15962TIP3   OH269376   6.571   1.317   1.087 -0.5212 -0.5407  0.1700
15962TIP3    H169377   6.605   1.366   1.012 -0.3539 -1.1389 -0.1564
15962TIP3    H269378   6.585   1.374   1.162  0.7254 -0.5483 -0.0308
15963TIP3   OH269379   5.277   2.155   1.537  0.4500 -0.7806 -0.2945
15963TIP3    H169380   5.323   2.146   1.454  1.2872  0.1907  0.0353
15963TIP3    H269381   5.341   2.197   1.595 -1.0243  1.1399  0.0290
15964TIP3   OH269382   6.584   3.005  15.686  0.2439 -0.3217 -0.3405
15964TIP3    H169383   6.581   2.983  15.779  2.9629 -0.7961 -0.2788
15964TIP3    H269384   6.547   2.928  15.642 -1.8063  0.2295  0.3124
15965TIP3   OH269385   3.135   5.281   0.625  0.5392  0.3264 -0.0654
15965TIP3    H169386   3.125   5.185   0.625  3.4493 -0.0740  1.4352
15965TIP3    H269387   3.226   5.295   0.599  0.8687  2.5535  2.0268
15966TIP3   OH269388   4.673   4.570  16.794  0.0750 -0.2682 -0.1700
15966TIP3    H169389   4.720   4.497  16.835 -1.1937 -1.5058 -0.8108
15966TIP3    H269390   4.584   4.536  16.781 -0.3389  1.1348 -1.2025
15967TIP3   OH269391   6.481   5.535  15.482 -0.8158 -0.3334  0.1177
15967TIP3    H169392   6.389   5.547  15.504 -0.8396  1.2096 -0.6528
15967TIP3    H269393   6.491   5.440  15.471 -1.9407 -0.6747  1.6527
15968TIP3   OH269394   3.025   2.572   3.525  0.1550  0.2959 -0.0081
15968TIP3    H169395   3.023   2.667   3.539 -0.1508  0.3783 -0.5824
15968TIP3    H269396   2.943   2.540   3.565 -0.0579  0.3580 -0.3925
15969TIP3   OH269397   1.663   6.064   3.073 -0.3241  0.4259 -0.2152
15969TIP3    H169398   1.595   6.127   3.050 -0.5836 -0.3002 -1.5710
15969TIP3    H269399   1.619   6.000   3.128 -0.4136  0.6528 -0.0222
15970TIP3   OH269400   6.013   4.264  13.264  0.2999 -0.3953  0.1360
15970TIP3    H169401   5.956   4.280  13.339 -0.4406 -1.8714 -0.0828
15970TIP3    H269402   6.086   4.325  13.276 -0.6493  0.5846  1.1353
15971TIP3   OH269403   5.012   3.469   2.133 -0.3236  0.4572 -0.3047
15971TIP3    H169404   4.981   3.379   2.139 -1.7218  0.7928 -1.7145
15971TIP3    H269405   5.081   3.476   2.199 -1.0302 -1.2887  0.6747
15972TIP3   OH269406   0.485   3.803  11.302 -0.1050 -0.0463 -0.0868
15972TIP3    H169407   0.545   3.763  11.239 -0.4620 -0.5911 -0.0889
15972TIP3    H269408   0.494   3.750  11.381 -0.9829 -0.4810 -0.2619
15973TIP3   OH269409   2.972   1.559   1.717 -0.2717  0.5676 -0.4443
15973TIP3    H169410   3.061   1.577   1.749  0.3336  2.0115 -2.6855
15973TIP3    H269411   2.957   1.468   1.739  1.7139  0.3337  0.1873
15974TIP3   OH269412   4.359   0.625  13.188 -0.3590  0.0003  0.3071
15974TIP3    H169413   4.355   0.718  13.167  1.9636  0.3082  0.8649
15974TIP3    H269414   4.337   0.580  13.107  0.5383  1.0756 -0.5639
15975TIP3   OH269415   6.480   5.600  14.232 -0.1079 -0.2933 -0.0029
15975TIP3    H169416   6.414   5.554  14.285 -0.8714  1.4504  0.6565
15975TIP3    H269417   6.429   5.643  14.163  0.4536  0.3091 -0.0496
15976TIP3   OH269418   5.485   2.601   2.863  0.1374 -0.4067  0.7252
15976TIP3    H169419   5.409   2.608   2.921  0.2089  0.9748  0.6949
15976TIP3    H269420   5.452   2.630   2.777  0.1734 -1.8821  0.1829
15977TIP3   OH269421   0.040   3.214  13.105 -0.1095  0.0691 -0.1037
15977TIP3    H169422   0.131   3.227  13.079  0.2423 -1.2032  0.3857
15977TIP3    H269423   0.013   3.299  13.141  0.1585  1.1194 -2.2498
15978TIP3   OH269424   0.076   6.205  13.028 -0.7002  0.3964  0.0219
15978TIP3    H169425   0.118   6.173  13.107  1.1236 -0.5402 -1.2479
15978TIP3    H269426   0.003   6.258  13.059 -1.2278 -1.5085  2.2837
15979TIP3   OH269427   0.811   3.776  13.443 -0.4390  0.0787  0.3069
15979TIP3    H169428   0.863   3.745  13.517 -0.8305 -1.1045  0.1082
15979TIP3    H269429   0.811   3.703  13.382 -0.9363  0.6862 -0.4364
15980TIP3   OH269430   1.072   0.817  14.461 -0.1551  0.4681  0.2792
15980TIP3    H169431   0.986   0.858  14.458  0.1674  1.1249 -0.4126
15980TIP3    H269432   1.057   0.727  14.432 -0.8251  0.1516  1.5489
15981TIP3   OH269433   0.036   0.535   1.506  0.7526 -0.4378  0.0700
15981TIP3    H169434   0.019   0.594   1.433  0.6258  1.0079  1.2337
15981TIP3    H269435  -0.016   0.457   1.486  0.2096  0.1884 -1.0536
15982TIP3   OH269436   5.286   3.272   4.366  0.4072 -0.0583 -0.1211
15982TIP3    H169437   5.277   3.368   4.370 -2.5173 -0.2546  0.7811
15982TIP3    H269438   5.196   3.241   4.359  1.2945 -2.7794 -0.3188
15983TIP3   OH269439   0.904   0.203  16.996 -0.0284  0.3374 -0.1128
15983TIP3    H169440   0.877   0.146  16.925  0.6333  0.6611 -0.6420
15983TIP3    H269441   0.951   0.275  16.953  1.4255 -0.0574  0.7142
15984TIP3   OH269442   0.629   5.462   4.000 -0.5037 -0.1566 -0.1296
15984TIP3    H169443   0.699   5.516   3.962 -0.9212  1.7443  1.5840
15984TIP3    H269444   0.549   5.495   3.960 -0.7368  0.3855  0.7431
15985TIP3   OH269445   6.573   2.370   3.199 -0.8044 -0.0117 -0.8424
15985TIP3    H169446   6.600   2.299   3.141  0.4846  0.6398 -1.0840
15985TIP3    H269447   6.544   2.326   3.279  0.4357 -0.8121 -0.7985
15986TIP3   OH269448   2.903   0.860   3.081 -0.1414  0.1034 -0.3700
15986TIP3    H169449   2.974   0.832   3.023  0.0762  3.4726 -1.9626
15986TIP3    H269450   2.943   0.926   3.138 -0.9339 -1.4511  2.1664
15987TIP3   OH269451   2.214   4.010  13.734  0.1491  0.4718 -0.5868
15987TIP3    H169452   2.264   4.083  13.772 -0.7253  1.5415 -1.4002
15987TIP3    H269453   2.228   3.937  13.794  0.4904  1.5098  0.6369
15988TIP3   OH269454   1.547   6.024  12.648  0.0760  0.2691 -0.1712
15988TIP3    H169455   1.485   6.042  12.720  0.7687  0.4738  0.3877
15988TIP3    H269456   1.569   5.931  12.659  0.1875  0.3024 -0.1098
15989TIP3   OH269457   1.878   6.594   4.083 -0.1169 -0.0968 -0.1601
15989TIP3    H169458   1.819   6.632   4.148  1.6963  0.6406  1.1387
15989TIP3    H269459   1.925   6.670   4.047  0.3791 -0.7047 -0.8137
15990TIP3   OH269460   3.391   3.611  17.085 -0.0947  0.8212  0.6988
15990TIP3    H169461   3.420   3.595  17.175 -0.4875  0.9877  0.8540
15990TIP3    H269462   3.308   3.657  17.094  0.0423  1.1597  0.2481
15991TIP3   OH269463   3.311   0.723   0.707  0.0774 -0.1664 -0.4572
15991TIP3    H169464   3.255   0.793   0.674 -0.4996 -0.7636 -0.7624
15991TIP3    H269465   3.308   0.732   0.803  1.1276  1.0817 -0.5190
15992TIP3   OH269466   1.770   3.787  13.794 -0.5370 -0.2563 -0.4777
15992TIP3    H169467   1.739   3.698  13.813  1.0289 -1.0713 -1.5376
15992TIP3    H269468   1.764   3.794  13.699 -2.6366  1.5880 -0.2825
15993TIP3   OH269469   2.700   4.392  11.819 -0.1477 -0.6315 -0.6331
15993TIP3    H169470   2.780   4.373  11.867 -0.0317  2.0619  0.4288
15993TIP3    H269471   2.730   4.436  11.740 -0.5229 -1.2559 -1.1275
15994TIP3   OH269472   6.389   1.601  16.758 -0.1081  0.0995 -0.6942
15994TIP3    H169473   6.349   1.683  16.731  0.7512  0.3331 -1.3144
15994TIP3    H269474   6.450   1.580  16.687  0.6711 -0.3662  0.0951
15995TIP3   OH269475   5.803   4.005   0.346 -0.4179  0.0238  0.5731
15995TIP3    H169476   5.852   3.952   0.283 -1.6775 -0.6414  0.1233
15995TIP3    H269477   5.852   4.088   0.351  0.2731 -0.3046 -0.4847
15996TIP3   OH269478   6.193   1.338  15.147 -0.3545  0.3513  0.1352
15996TIP3    H169479   6.272   1.339  15.092  0.7859 -1.0626  1.6471
15996TIP3    H269480   6.153   1.253  15.128 -0.4149  0.2161  0.8595
15997TIP3   OH269481   1.640   5.084   4.855 -0.1606  0.2881 -0.0183
15997TIP3    H169482   1.706   5.068   4.922  0.5170 -0.8855 -0.9319
15997TIP3    H269483   1.573   5.137   4.899 -0.6946 -2.0104  2.1362
15998TIP3   OH269484   1.502   2.609   4.713 -0.6569 -0.3972  0.2717
15998TIP3    H169485   1.485   2.694   4.754 -0.3229 -0.0257 -0.3314
15998TIP3    H269486   1.597   2.597   4.723 -0.7846 -0.9527  0.8285
15999TIP3   OH269487   2.104   5.529  14.202 -0.6011 -0.0262 -0.5472
15999TIP3    H169488   2.146   5.553  14.285 -0.3102 -1.2503 -0.3113
15999TIP3    H269489   2.176   5.512  14.142 -0.7692 -0.5523 -0.6136
16000TIP3   OH269490   6.737   2.675   0.749  0.1165 -0.0978 -0.3710
16000TIP3    H169491   6.660   2.705   0.798  0.9029  2.2250 -0.3942
16000TIP3    H269492   6.748   2.740   0.680  2.9953  0.6438  0.6275
16001TIP3   OH269493   1.958   4.472   5.234  0.0487  0.3793 -1.0515
16001TIP3    H169494   1.899   4.548   5.230 -1.2170 -0.4915  0.0509
16001TIP3    H269495   1.904   4.399   5.204  1.0715 -0.1991 -1.5220
16002TIP3   OH269496   2.817   3.418   5.100  0.4592  0.6361 -0.4048
16002TIP3    H169497   2.799   3.405   5.193  1.4172 -1.1901 -0.4219
16002TIP3    H269498   2.876   3.494   5.097 -0.4880  1.4177  0.3491
16003TIP3   OH269499   0.263   3.583   4.157 -0.4851  0.3473 -0.0458
16003TIP3    H169500   0.212   3.505   4.135 -2.5509  0.7137  2.7863
16003TIP3    H269501   0.199   3.643   4.196  1.4830  2.4473  0.1549
16004TIP3   OH269502   5.481   5.181  11.824  0.5212 -0.5866  0.2792
16004TIP3    H169503   5.493   5.147  11.735  0.3118 -1.4224  0.5603
16004TIP3    H269504   5.513   5.271  11.820 -0.0893 -0.4010 -0.8021
16005TIP3   OH269505   5.052   6.665  12.613 -0.1815 -0.2494  0.3389
16005TIP3    H169506   5.145   6.689  12.618  0.2356 -1.7798  0.2370
16005TIP3    H269507   5.006   6.749  12.619  1.1916  0.5181  0.6094
16006TIP3   OH269508   1.850   4.140  12.336  1.0564 -0.3494  0.0703
16006TIP3    H169509   1.846   4.138  12.240  2.9161 -0.9093 -0.0374
16006TIP3    H269510   1.943   4.142  12.356  0.7081 -0.5001  1.8921
16007TIP3   OH269511   1.912   1.613  14.700  0.3403  0.4836  0.0619
16007TIP3    H169512   1.939   1.534  14.654 -0.0222  1.2241 -1.4573
16007TIP3    H269513   1.984   1.631  14.761  1.8155  0.5961 -1.6298
16008TIP3   OH269514   2.729   5.374   0.219 -0.0129  0.0275  0.4337
16008TIP3    H169515   2.729   5.345   0.310  1.7683 -1.1042  0.1200
16008TIP3    H269516   2.808   5.336   0.181  0.0413  1.6327 -1.2307
16009TIP3   OH269517   5.557   2.486  15.448  0.2792 -0.1820  0.0860
16009TIP3    H169518   5.463   2.497  15.465  0.7367  1.1222  2.1362
16009TIP3    H269519   5.600   2.524  15.525  2.5262  0.3626 -1.3483
16010TIP3   OH269520   4.109   6.766  16.148  1.0905 -1.0106 -0.1039
16010TIP3    H169521   4.197   6.792  16.119  1.4857 -2.5395 -0.3389
16010TIP3    H269522   4.121   6.679  16.187  0.2395  0.0482  2.8318
16011TIP3   OH269523   2.827   1.173  12.331 -0.1710 -0.2160 -0.9039
16011TIP3    H169524   2.843   1.098  12.387 -1.5729 -1.3133 -1.8775
16011TIP3    H269525   2.910   1.189  12.286  0.5066 -0.3162  0.2639
16012TIP3   OH269526   2.791   4.932  14.192 -0.6294 -0.3947  0.2412
16012TIP3    H169527   2.729   4.969  14.129 -0.4935 -1.2580 -0.4128
16012TIP3    H269528   2.803   5.001  14.257 -2.9561 -0.5295  0.8803
16013TIP3   OH269529   1.522   4.756  15.568  0.3954 -0.1902 -0.0100
16013TIP3    H169530   1.502   4.670  15.607 -2.3135  0.0425 -0.6626
16013TIP3    H269531   1.555   4.808  15.641  1.2801 -1.5364  0.5807
16014TIP3   OH269532   4.146   0.739   5.197 -0.1797 -0.5114 -0.3265
16014TIP3    H169533   4.238   0.758   5.214 -0.5252  1.0857 -0.1432
16014TIP3    H269534   4.147   0.690   5.114  0.7220  1.0728 -1.2973
16015TIP3   OH269535   2.615   4.987  14.846 -0.4619 -0.4349 -0.1415
16015TIP3    H169536   2.589   5.036  14.767 -1.8423  1.5709  1.4568
16015TIP3    H269537   2.696   4.943  14.821  0.4384  2.0392 -1.9931
16016TIP3   OH269538   5.250   1.862  12.657 -0.9821 -0.3284 -0.0105
16016TIP3    H169539   5.336   1.853  12.698 -0.1803  0.1465 -1.5315
16016TIP3    H269540   5.188   1.858  12.731  0.2433 -1.7495  1.0186
16017TIP3   OH269541   5.820   5.088  17.140 -0.2523 -0.1272 -0.4019
16017TIP3    H169542   5.802   5.131  17.056 -1.4882  1.4070  0.5811
16017TIP3    H269543   5.737   5.047  17.164 -0.3642  0.7006  0.7268
16018TIP3   OH269544   3.408   3.787  14.595 -0.3814  0.8273 -0.1011
16018TIP3    H169545   3.383   3.872  14.633  1.4569  1.2904  0.1595
16018TIP3    H269546   3.479   3.808  14.534  1.2712 -0.7028  1.2171
16019TIP3   OH269547   6.191   2.553  16.211  0.1156 -0.4434 -0.3429
16019TIP3    H169548   6.193   2.459  16.228 -1.8371 -0.4906 -0.1848
16019TIP3    H269549   6.139   2.562  16.131  1.7526  0.4129 -1.3756
16020TIP3   OH269550   2.217   5.042  14.481 -0.0281 -0.2548 -0.0429
16020TIP3    H169551   2.225   5.134  14.504 -2.2093 -0.6268  2.7922
16020TIP3    H269552   2.239   5.038  14.388  1.0628  2.9216 -0.0403
16021TIP3   OH269553   5.870   3.879  16.384  0.2908  0.3341 -0.4600
16021TIP3    H169554   5.916   3.854  16.464  1.5673  2.9380 -0.2683
16021TIP3    H269555   5.873   3.801  16.329 -1.9092 -2.0399  2.4687
16022TIP3   OH269556   6.215   1.885   5.929  0.3515  0.4890  0.2864
16022TIP3    H169557   6.259   1.912   6.010 -0.6883 -0.7847  1.3137
16022TIP3    H269558   6.124   1.872   5.954  0.2651 -1.2997 -0.7567
16023TIP3   OH269559   5.050   5.284  15.574  0.0239  0.4485  0.5740
16023TIP3    H169560   4.960   5.318  15.574  0.7216  2.4888 -0.6206
16023TIP3    H269561   5.096   5.337  15.638  0.8446  0.8726 -0.3451
16024TIP3   OH269562   6.107   0.601   1.705  0.6348 -0.0793  0.0733
16024TIP3    H169563   6.074   0.684   1.670  1.3323 -0.1809 -0.8458
16024TIP3    H269564   6.076   0.600   1.796  0.1891  0.9492 -0.0515
16025TIP3   OH269565   1.455   6.570   3.381  0.2260 -0.3186  0.2426
16025TIP3    H169566   1.380   6.585   3.438 -2.2551 -0.7605 -2.6727
16025TIP3    H269567   1.468   6.654   3.336  0.6384 -0.6156 -0.2034
16026TIP3   OH269568   6.553   0.021  16.769  0.2009 -0.2222  0.6688
16026TIP3    H169569   6.566   0.113  16.747  1.9366 -0.6554 -0.3724
16026TIP3    H269570   6.598   0.009  16.852  0.4314 -0.2291  0.5445
16027TIP3   OH269571   3.105   1.026  11.180  0.0173 -0.1162 -0.4680
16027TIP3    H169572   3.171   1.091  11.155  0.4067 -0.4882 -0.4037
16027TIP3    H269573   3.057   1.009  11.100 -0.0490  0.2087 -0.4986
16028TIP3   OH269574   6.436   4.101  16.963  0.9690  0.2819 -0.5931
16028TIP3    H169575   6.508   4.051  16.924 -1.2022 -1.6181 -2.4622
16028TIP3    H269576   6.420   4.172  16.901 -0.2901 -0.7526 -1.5073
16029TIP3   OH269577   5.769   5.664  12.962 -0.2308  0.3385 -0.3499
16029TIP3    H169578   5.804   5.625  13.042  0.6344  0.9967 -0.3970
16029TIP3    H269579   5.677   5.681  12.982 -0.3994 -0.8315 -0.0086
16030TIP3   OH269580   3.297   1.666   4.943 -0.6429 -0.2664 -0.0294
16030TIP3    H169581   3.273   1.687   4.853 -1.5867 -1.1893 -0.0192
16030TIP3    H269582   3.313   1.571   4.941  1.1752 -0.0086  0.3902
16031TIP3   OH269583   3.110   3.308  10.461 -0.2230 -0.1887 -0.1870
16031TIP3    H169584   3.202   3.294  10.486 -0.1829 -0.3022 -0.3955
16031TIP3    H269585   3.112   3.317  10.366 -0.2598  1.2150 -0.0734
16032TIP3   OH269586   3.384   4.403  11.450  0.0338 -0.7794 -0.0713
16032TIP3    H169587   3.464   4.449  11.478  1.0000 -2.8392  0.7298
16032TIP3    H269588   3.408   4.362  11.367 -1.0178  0.5769 -1.0941
16033TIP3   OH269589   5.773   5.281   3.074  0.3693 -0.4735 -0.0175
16033TIP3    H169590   5.862   5.255   3.052  0.8251 -0.0711  1.2220
16033TIP3    H269591   5.725   5.199   3.084  0.9759 -0.7579  0.6889
16034TIP3   OH269592   3.487   4.090   1.926  0.8753 -0.2305  0.4241
16034TIP3    H169593   3.442   4.062   2.006  0.7625  1.0266  0.8155
16034TIP3    H269594   3.464   4.023   1.862  0.0894 -0.6827  1.1499
16035TIP3   OH269595   0.183   0.152  14.548 -0.4006 -0.4122  0.5741
16035TIP3    H169596   0.277   0.160  14.532 -0.3905 -1.7047 -0.1547
16035TIP3    H269597   0.162   0.062  14.523 -1.6285 -0.5062  1.8379
16036TIP3   OH269598   4.886   5.857  10.980 -0.0972 -0.0541 -0.0012
16036TIP3    H169599   4.904   5.848  11.074  1.2729 -1.5387 -0.3652
16036TIP3    H269600   4.884   5.952  10.965 -2.2046  0.2668  1.8277
16037TIP3   OH269601   4.853   2.190  12.609 -0.0675  0.3062  0.8090
16037TIP3    H169602   4.893   2.114  12.568 -3.5771 -0.7600 -0.9977
16037TIP3    H269603   4.818   2.158  12.692  0.5078  0.5851  1.1674
16038TIP3   OH269604   6.739   4.521  16.619 -1.0548  0.6904 -0.4201
16038TIP3    H169605   6.768   4.430  16.615 -2.2893 -0.0300  3.1621
16038TIP3    H269606   6.818   4.570  16.639 -0.5236  0.3411 -1.5508
16039TIP3   OH269607   5.250   3.201   5.838  0.4153 -0.4651  0.3896
16039TIP3    H169608   5.246   3.234   5.748  0.9475 -0.1855  0.4607
16039TIP3    H269609   5.276   3.278   5.890 -1.7439 -0.1271  1.0657
16040TIP3   OH269610   4.938   0.918  14.142  0.1582  0.2869  0.3144
16040TIP3    H169611   5.017   0.865  14.142 -0.3246 -0.4460  0.3299
16040TIP3    H269612   4.901   0.908  14.054 -1.4405 -1.7364  1.1337
16041TIP3   OH269613   1.588   4.892  14.622  0.3811  0.0928  0.1935
16041TIP3    H169614   1.596   4.929  14.534 -0.4467 -0.4720 -0.1368
16041TIP3    H269615   1.678   4.890  14.656  0.4439  2.5992  0.3392
16042TIP3   OH269616   4.646   6.655  16.968 -0.2144 -0.2204  0.2408
16042TIP3    H169617   4.678   6.581  16.916  0.9951 -0.7268  1.6348
16042TIP3    H269618   4.555   6.633  16.987  0.2449 -1.6121  1.0079
16043TIP3   OH269619   5.088   4.923  13.791  0.4387 -0.3405 -0.0185
16043TIP3    H169620   5.141   4.845  13.808  1.8758  0.5828 -0.0803
16043TIP3    H269621   5.089   4.933  13.696  0.1918 -0.2850 -0.0166
16044TIP3   OH269622   1.269   6.546   2.894 -0.5943 -0.0353 -0.4052
16044TIP3    H169623   1.176   6.567   2.887 -0.5420  0.2063 -0.4008
16044TIP3    H269624   1.272   6.453   2.913 -0.8232 -0.1511 -0.9258
16045TIP3   OH269625   2.556   5.731  10.648  0.2563 -0.4450 -0.0307
16045TIP3    H169626   2.560   5.719  10.743  0.7703 -2.5916 -0.2693
16045TIP3    H269627   2.642   5.703  10.617 -0.0008 -0.0335 -1.1598
16046TIP3   OH269628   0.472   5.618   6.692 -0.7095 -0.4126  0.1722
16046TIP3    H169629   0.502   5.651   6.777 -2.3791  0.8785  0.3038
16046TIP3    H269630   0.418   5.688   6.656 -0.0955 -0.9587 -1.9613
16047TIP3   OH269631   4.014   3.721  10.791 -0.2918  0.1276 -0.1362
16047TIP3    H169632   3.956   3.778  10.842 -1.7023 -1.2406 -0.1200
16047TIP3    H269633   3.966   3.704  10.710  0.5851 -0.1415 -0.6105
16048TIP3   OH269634   3.841   0.522  16.210  0.5401  0.1945  0.1609
16048TIP3    H169635   3.862   0.584  16.281  0.8717  0.6884 -0.3522
16048TIP3    H269636   3.827   0.439  16.254 -1.0965  0.8642  0.9981
16049TIP3   OH269637   4.066   1.534  16.261 -0.0837 -0.5077 -0.4926
16049TIP3    H169638   4.124   1.528  16.186 -0.0112 -3.5748 -0.3006
16049TIP3    H269639   3.983   1.565  16.225  0.8104  1.1552 -1.2274
16050TIP3   OH269640   6.316   5.398   1.465 -0.2344 -0.5973  0.0758
16050TIP3    H169641   6.372   5.335   1.420  2.7995  2.5075 -0.8800
16050TIP3    H269642   6.248   5.420   1.401 -2.1268 -3.5734  0.8561
16051TIP3   OH269643   5.931   4.280  16.388 -0.3141  0.0759  0.0841
16051TIP3    H169644   5.980   4.316  16.462  0.7034  0.1395 -0.5994
16051TIP3    H269645   5.981   4.308  16.311 -1.7666  0.6572 -0.6810
16052TIP3   OH269646   4.878   4.982   4.845 -0.2221 -0.3278 -0.0813
16052TIP3    H169647   4.786   4.975   4.821 -0.0619 -0.4574 -0.6730
16052TIP3    H269648   4.926   4.943   4.771  0.4610  2.4197 -1.2164
16053TIP3   OH269649   3.281   4.920  13.969  0.5761  0.2699  0.2257
16053TIP3    H169650   3.210   4.909  13.906  1.5252 -1.4226 -0.6048
16053TIP3    H269651   3.243   4.976  14.037 -1.5403 -0.4985 -0.2288
16054TIP3   OH269652   0.345   3.145  13.270  0.6864 -0.4617  0.1773
16054TIP3    H169653   0.311   3.202  13.200 -1.7889  0.2248  1.8022
16054TIP3    H269654   0.302   3.061  13.254  2.1043 -1.0867 -0.5394
16055TIP3   OH269655   1.271   2.004  17.026  0.2275  0.5446 -0.2640
16055TIP3    H169656   1.183   1.970  17.011  0.5312 -0.4575  0.1145
16055TIP3    H269657   1.300   2.037  16.941 -0.6594  1.2513 -0.2993
16056TIP3   OH269658   0.820   6.101   6.076 -0.4575  0.6786  0.1694
16056TIP3    H169659   0.879   6.084   6.150 -2.1022  1.3901  1.7280
16056TIP3    H269660   0.875   6.146   6.012  0.8349  0.8137  1.3064
16057TIP3   OH269661   0.075   3.972  11.119  0.4708 -0.2452  0.3758
16057TIP3    H169662   0.128   3.906  11.162  0.5835 -1.1159 -1.0447
16057TIP3    H269663   0.137   4.021  11.065  0.5170  1.5251  1.9280
16058TIP3   OH269664   2.578   2.735  16.991  0.0708 -0.1911  0.4536
16058TIP3    H169665   2.651   2.754  16.933 -0.1330  0.4131  0.3856
16058TIP3    H269666   2.504   2.718  16.933 -0.1322  0.4114  0.5238
16059TIP3   OH269667   3.847   2.914  10.486  0.1587 -0.1111 -0.1185
16059TIP3    H169668   3.809   2.915  10.398  0.1343  0.9076 -0.1045
16059TIP3    H269669   3.772   2.928  10.544  0.1937 -0.6584  0.0637
16060TIP3   OH269670   1.466   5.466   1.873  0.1184 -0.1142 -0.6219
16060TIP3    H169671   1.391   5.526   1.866 -0.4324 -0.8793 -1.4821
16060TIP3    H269672   1.479   5.434   1.784 -0.0880 -1.8694 -0.0548
16061TIP3   OH269673   3.975   5.284  12.258 -0.0775  0.2697  0.0931
16061TIP3    H169674   4.036   5.243  12.197 -0.4683 -0.4538  0.1776
16061TIP3    H269675   3.944   5.362  12.212  0.9279  0.6722  0.0656
16062TIP3   OH269676   4.340   0.379   4.638  0.1317 -0.5300 -0.2328
16062TIP3    H169677   4.331   0.474   4.632  0.3171 -0.6049 -2.3743
16062TIP3    H269678   4.434   0.364   4.647 -0.0337 -0.4851  2.2038
16063TIP3   OH269679   0.614   6.435   4.578  0.0788  0.0779  0.0088
16063TIP3    H169680   0.639   6.501   4.642  0.4814  0.1034 -0.1736
16063TIP3    H269681   0.521   6.419   4.595  0.3705 -0.5130  1.1374
16064TIP3   OH269682   0.646   5.722  16.131 -0.1693 -0.0803  0.9489
16064TIP3    H169683   0.590   5.678  16.195  0.0383  0.0401  1.2181
16064TIP3    H269684   0.603   5.806  16.115 -1.1498 -0.8002 -0.3892
16065TIP3   OH269685   6.191   2.270  16.260 -0.0755 -0.2619 -0.2506
16065TIP3    H169686   6.139   2.194  16.235 -1.5778  0.6274  0.0649
16065TIP3    H269687   6.177   2.279  16.354  0.0316  0.4472 -0.2975
16066TIP3   OH269688   4.549   5.478  11.138 -0.0386 -0.2894  0.0669
16066TIP3    H169689   4.493   5.529  11.078  0.2454  0.0161  0.0566
16066TIP3    H269690   4.508   5.488  11.224  0.1437  0.1508  0.1049
16067TIP3   OH269691   0.842   3.845   1.642 -0.0077 -0.7899  0.3425
16067TIP3    H169692   0.799   3.804   1.717  0.2192 -0.6376  0.5621
16067TIP3    H269693   0.934   3.821   1.652  0.3189  0.6348  1.0747
16068TIP3   OH269694   3.829   3.125   5.052 -0.7527 -1.2392  0.4808
16068TIP3    H169695   3.766   3.194   5.034  0.7283 -0.0990 -0.5561
16068TIP3    H269696   3.847   3.133   5.146 -0.8861 -0.4543  0.4471
16069TIP3   OH269697   6.636   0.688   3.344 -0.0398  0.0805  0.3224
16069TIP3    H169698   6.687   0.760   3.380 -1.6492  0.6065  1.6689
16069TIP3    H269699   6.594   0.724   3.266  0.7475 -0.0352 -0.1672
16070TIP3   OH269700   1.216   4.313   1.132 -0.0881 -0.5790 -0.5728
16070TIP3    H169701   1.286   4.329   1.068  1.4452  0.5722  1.2650
16070TIP3    H269702   1.144   4.369   1.102  0.0524 -1.1394 -2.0456
16071TIP3   OH269703   5.222   1.177   4.592  0.1473 -0.1396 -0.9918
16071TIP3    H169704   5.273   1.096   4.597 -1.1801 -0.9842 -0.8144
16071TIP3    H269705   5.287   1.246   4.607  0.7430 -1.2839  2.9440
16072TIP3   OH269706   6.262   2.815   0.257 -0.2656  0.2986  0.2128
16072TIP3    H169707   6.224   2.748   0.200  0.8430 -0.1944  0.0160
16072TIP3    H269708   6.329   2.858   0.203  0.9550 -0.3232  1.1596
16073TIP3   OH269709   2.531   2.916  15.025 -0.2546  0.4771  0.1497
16073TIP3    H169710   2.486   2.914  15.109  0.0055  1.0565  0.3104
16073TIP3    H269711   2.492   2.990  14.979 -1.8117 -0.9989 -1.0649
16074TIP3   OH269712   1.766   6.169  12.290  0.1487  0.8057 -0.4845
16074TIP3    H169713   1.755   6.264  12.281 -0.0951  1.1237  2.3149
16074TIP3    H269714   1.820   6.159  12.369 -2.9958 -1.4000  1.6072
16075TIP3   OH269715   0.951   3.053  15.913 -0.5320 -0.2025  0.4346
16075TIP3    H169716   0.988   3.124  15.860  1.1237  0.4796  2.3445
16075TIP3    H269717   0.871   3.090  15.951 -1.3452 -0.4603 -0.9659
16076TIP3   OH269718   5.319   3.513  12.727 -0.3884  0.6590  0.3439
16076TIP3    H169719   5.295   3.422  12.714 -1.1768  0.8541  0.4030
16076TIP3    H269720   5.395   3.527  12.671  0.2033 -0.2329  0.8986
16077TIP3   OH269721   0.683   6.249   5.089  0.0274 -0.5807 -0.2987
16077TIP3    H169722   0.610   6.305   5.114 -0.9665 -1.9097 -0.1483
16077TIP3    H269723   0.698   6.268   4.997  2.8381  3.3757  0.7061
16078TIP3   OH269724   5.901   4.302   5.668  0.3973  0.2325 -0.5016
16078TIP3    H169725   5.933   4.372   5.610 -1.3043  0.8783 -0.7036
16078TIP3    H269726   5.978   4.248   5.684  1.0363  0.2143 -3.1260
16079TIP3   OH269727   2.050   2.252  15.432  0.0425 -0.4558 -0.1206
16079TIP3    H169728   2.095   2.273  15.350  0.2976 -0.7407 -0.0551
16079TIP3    H269729   2.048   2.157  15.435  1.0474 -0.4711  0.7397
16080TIP3   OH269730   5.016   0.754   2.962 -0.3182 -0.4329 -0.0382
16080TIP3    H169731   4.995   0.841   2.998  0.7347 -0.2867  0.2583
16080TIP3    H269732   5.053   0.772   2.876  1.6144 -0.4224  0.7426
16081TIP3   OH269733   4.962   1.419   0.640 -0.3780  0.6670 -0.2466
16081TIP3    H169734   5.003   1.501   0.668 -0.7805  1.0624 -0.7900
16081TIP3    H269735   4.900   1.446   0.571  0.4417 -0.2392 -1.3765
16082TIP3   OH269736   3.885   2.945  15.414 -0.4746 -0.0869  0.0430
16082TIP3    H169737   3.834   2.949  15.495 -0.7831  0.2461 -0.1691
16082TIP3    H269738   3.880   2.853  15.388  3.7932 -1.5150  3.0758
16083TIP3   OH269739   4.235   4.844  16.567 -0.5464  0.4623  0.2541
16083TIP3    H169740   4.169   4.786  16.605 -0.3123  0.5400  0.7893
16083TIP3    H269741   4.184   4.911  16.521 -1.0081  2.2945  3.1972
16084TIP3   OH269742   2.243   0.700  14.052  0.3314  0.2526 -0.3837
16084TIP3    H169743   2.305   0.629  14.066 -1.8060 -2.1144 -1.9641
16084TIP3    H269744   2.245   0.716  13.958 -1.2762  0.1850 -0.4669
16085TIP3   OH269745   4.130   0.402  16.328  0.2282 -0.3586 -0.4434
16085TIP3    H169746   4.106   0.455  16.405 -1.0790  0.5670 -1.4410
16085TIP3    H269747   4.177   0.462  16.271 -0.8565 -0.3601 -1.3772
16086TIP3   OH269748   1.871   2.761   3.121 -0.0021  0.4767 -0.1196
16086TIP3    H169749   1.840   2.837   3.071  0.9864  1.5962  0.8722
16086TIP3    H269750   1.934   2.719   3.064 -0.7941  0.2001 -0.8074
16087TIP3   OH269751   1.284   4.483   0.285 -0.9263 -0.0162 -0.1241
16087TIP3    H169752   1.357   4.423   0.269 -1.4771 -0.6369 -0.3336
16087TIP3    H269753   1.284   4.541   0.209  0.2092  0.8907  0.5342
16088TIP3   OH269754   1.232   5.472  11.950 -0.4692 -0.1111  0.2990
16088TIP3    H169755   1.218   5.392  11.899 -1.3315  0.2635 -0.0682
16088TIP3    H269756   1.327   5.478  11.960 -0.2699 -0.1967 -1.2661
16089TIP3   OH269757   6.436   6.634  14.295  0.4644  0.1563 -0.0362
16089TIP3    H169758   6.518   6.654  14.340  0.8177 -0.7659 -0.2442
16089TIP3    H269759   6.377   6.705  14.319  0.9634  0.2149  1.0401
16090TIP3   OH269760   1.984   4.045  11.497 -0.0219 -0.0582  0.1254
16090TIP3    H169761   2.031   4.109  11.550  0.8239  0.1037 -0.7901
16090TIP3    H269762   2.032   4.043  11.414 -1.5006 -0.0617 -0.7641
16091TIP3   OH269763   3.175   1.226   4.186  0.6218  0.0756 -0.0660
16091TIP3    H169764   3.110   1.233   4.116  2.3254 -1.2339 -1.8850
16091TIP3    H269765   3.146   1.151   4.238  0.5319 -0.3694 -0.7355
16092TIP3   OH269766   4.056   0.357   6.200  0.4183  0.0419  0.9181
16092TIP3    H169767   4.038   0.271   6.161  1.6727  0.1972 -0.0638
16092TIP3    H269768   4.149   0.353   6.223  0.2708  0.8309  1.6792
16093TIP3   OH269769   0.928   5.161  17.147 -0.7394 -0.0952  0.5349
16093TIP3    H169770   0.910   5.249  17.180 -2.1063 -0.2348  0.2294
16093TIP3    H269771   0.864   5.147  17.077  0.1826 -0.9186 -0.1872
16094TIP3   OH269772   3.499   2.949   0.312 -0.3046  0.4121 -0.0977
16094TIP3    H169773   3.529   3.027   0.358  0.8287  0.0403 -0.1688
16094TIP3    H269774   3.408   2.967   0.289 -0.1689  1.5451  0.2312
16095TIP3   OH269775   3.674   5.607  15.623 -0.0538  0.2397  0.3289
16095TIP3    H169776   3.596   5.657  15.597  0.9649  1.7104 -0.0358
16095TIP3    H269777   3.740   5.674  15.644  0.7900 -0.9544  1.6976
16096TIP3   OH269778   0.811   1.254   5.245  0.2098  0.2135  0.0654
16096TIP3    H169779   0.790   1.346   5.264  3.4641  0.9075  0.9402
16096TIP3    H269780   0.751   1.230   5.176 -1.3962  2.7138  0.4491
16097TIP3   OH269781   6.559   1.536   2.620 -0.1818  0.6868 -0.0976
16097TIP3    H169782   6.562   1.539   2.715  2.0036  0.4217 -0.1150
16097TIP3    H269783   6.525   1.449   2.599  2.1948 -0.4298  0.4774
16098TIP3   OH269784   3.969   1.867  11.817 -0.1827  0.0022  0.0108
16098TIP3    H169785   3.979   1.772  11.809  0.9817  0.2865 -2.4528
16098TIP3    H269786   3.885   1.885  11.775 -1.0653 -0.0233  1.6695
16099TIP3   OH269787   0.549   0.083  14.885  0.5468 -0.4808  0.8913
16099TIP3    H169788   0.464   0.051  14.854  0.2921  1.2119 -0.2564
16099TIP3    H269789   0.593   0.004  14.918  0.4277 -2.3540 -2.8595
16100TIP3   OH269790   4.238   5.697  12.940  0.0127 -0.0332  0.3976
16100TIP3    H169791   4.168   5.751  12.976  0.8162  0.3599  1.4414
16100TIP3    H269792   4.199   5.611  12.927 -1.0747  0.5834 -0.5368
16101TIP3   OH269793   3.362   0.357   0.144 -0.3042 -0.3112 -0.4773
16101TIP3    H169794   3.313   0.390   0.068  0.0787 -0.3168 -0.7288
16101TIP3    H269795   3.317   0.276   0.167 -1.3945  0.4814  0.2881
16102TIP3   OH269796   0.512   5.124  12.459 -0.2310 -0.2150  0.1523
16102TIP3    H169797   0.422   5.155  12.473 -0.7793 -1.0046 -1.3180
16102TIP3    H269798   0.509   5.083  12.373  1.3567 -0.9945  0.4364
16103TIP3   OH269799   3.078   5.782   1.780 -0.1587 -0.2397 -0.6453
16103TIP3    H169800   3.024   5.808   1.706 -1.0598 -1.0063 -0.2844
16103TIP3    H269801   3.022   5.723   1.831  0.8619 -0.6993 -0.0112
16104TIP3   OH269802   3.157   3.187  14.513  0.0418 -0.1071  0.3172
16104TIP3    H169803   3.121   3.099  14.523 -1.8704  0.6699  0.8905
16104TIP3    H269804   3.089   3.234  14.464  0.5307  1.3202  0.9765
16105TIP3   OH269805   5.534   4.579   6.665 -0.0680 -0.0153  0.2923
16105TIP3    H169806   5.491   4.495   6.683 -0.5386  0.0386 -0.5580
16105TIP3    H269807   5.493   4.611   6.585  0.1595  1.0005  0.5665
16106TIP3   OH269808   0.920   2.867   3.382 -0.3682  0.3789 -0.1293
16106TIP3    H169809   0.898   2.882   3.290 -1.5123  1.4419  0.2851
16106TIP3    H269810   0.949   2.952   3.414 -2.8009  0.8046  1.1872
16107TIP3   OH269811   4.495   2.977   2.576  0.0599  0.0698 -0.3417
16107TIP3    H169812   4.456   2.920   2.511  0.9485  0.0843 -0.9060
16107TIP3    H269813   4.422   3.027   2.612 -0.4483  0.0273 -1.2923
16108TIP3   OH269814   1.953   4.767  12.774 -0.2186 -0.3186  0.3121
16108TIP3    H169815   2.036   4.736  12.737 -1.5132 -3.3990 -0.3625
16108TIP3    H269816   1.911   4.815  12.703  0.7760  0.9541  0.5456
16109TIP3   OH269817   2.863   2.251  11.444 -0.4307  0.0921  0.4549
16109TIP3    H169818   2.832   2.342  11.449  0.5270  0.5673 -1.2877
16109TIP3    H269819   2.957   2.258  11.427 -0.1083 -1.2573  1.5376
16110TIP3   OH269820   3.908   2.921  12.581 -0.4129 -0.0983  0.3405
16110TIP3    H169821   3.920   2.828  12.560  0.7152  0.3130 -0.9593
16110TIP3    H269822   3.855   2.955  12.509  0.4685  0.5757 -0.0143
16111TIP3   OH269823   4.901   4.294   3.476 -0.3523  0.1771  0.1995
16111TIP3    H169824   4.914   4.346   3.555 -0.4953 -0.2659  0.5152
16111TIP3    H269825   4.913   4.356   3.404 -3.1006  1.2855  0.5652
16112TIP3   OH269826   6.570   2.008  14.743 -0.5713 -0.3993 -0.1357
16112TIP3    H169827   6.617   2.005  14.660 -1.6922  0.4461 -0.8318
16112TIP3    H269828   6.479   1.987  14.721 -1.1719  1.1953  0.5965
16113TIP3   OH269829   4.007   6.070   1.951  0.2773  0.8787  0.6499
16113TIP3    H169830   4.039   5.984   1.978 -0.1252  0.4001 -0.3739
16113TIP3    H269831   4.085   6.125   1.951  1.5374 -0.5999 -3.1912
16114TIP3   OH269832   4.104   5.052   3.306 -0.0052  0.1225  0.7468
16114TIP3    H169833   4.058   5.057   3.390  0.1943  1.9065  0.7829
16114TIP3    H269834   4.196   5.063   3.329  0.1642 -0.4756  0.3835
16115TIP3   OH269835   4.985   0.824   5.063 -0.5754 -0.5810 -0.2575
16115TIP3    H169836   5.023   0.742   5.032 -0.6007 -0.3887 -0.8035
16115TIP3    H269837   4.913   0.842   5.003 -1.2586 -0.7137  0.5037
16116TIP3   OH269838   5.249   0.452  15.867 -0.2068  1.2386 -0.0380
16116TIP3    H169839   5.196   0.507  15.925 -0.7448 -1.2942  2.0427
16116TIP3    H269840   5.186   0.397  15.822  0.4082  1.4276 -1.1706
16117TIP3   OH269841   1.875   3.619   5.766 -0.8550 -0.2255  0.4352
16117TIP3    H169842   1.959   3.656   5.737 -0.0709  0.3283  3.1652
16117TIP3    H269843   1.864   3.652   5.855 -2.9669 -2.0068  0.8993
16118TIP3   OH269844   2.231   3.343  15.408 -0.8545  0.4066  0.1071
16118TIP3    H169845   2.287   3.267  15.392  1.8104  2.3197 -0.4939
16118TIP3    H269846   2.254   3.371  15.496  0.3561  2.0968 -0.6971
16119TIP3   OH269847   5.790   0.639   2.577 -0.0977 -0.2083 -0.3671
16119TIP3    H169848   5.754   0.596   2.654  1.4624 -1.6632 -0.3657
16119TIP3    H269849   5.885   0.639   2.592  0.2913 -0.8792 -2.4112
16120TIP3   OH269850   5.057   4.718  12.405  0.1375  0.3330 -0.4315
16120TIP3    H169851   5.049   4.706  12.500  0.9271  1.0442 -0.2621
16120TIP3    H269852   5.083   4.809  12.395  1.8813 -0.2121 -1.2305
16121TIP3   OH269853   2.418   6.465  16.531 -0.3267  0.0878  0.5014
16121TIP3    H169854   2.483   6.497  16.593 -0.3789  1.1217  0.0453
16121TIP3    H269855   2.341   6.445  16.585 -0.4216  1.1177  0.7688
16122TIP3   OH269856   1.640   2.949  15.839 -0.2470 -0.2964  0.0082
16122TIP3    H169857   1.560   2.961  15.890 -0.7694 -2.1708 -0.2900
16122TIP3    H269858   1.708   2.933  15.905 -0.4095 -0.1977  0.2011
16123TIP3   OH269859   4.020   6.467  12.502 -0.1883  0.1993  0.2544
16123TIP3    H169860   4.051   6.539  12.557 -1.1243  1.0549 -0.3019
16123TIP3    H269861   4.094   6.448  12.444 -0.1920  1.2945 -0.1495
16124TIP3   OH269862   6.398   3.191   5.543 -0.0637  0.0479 -0.0304
16124TIP3    H169863   6.348   3.172   5.623  1.6157 -1.3275  0.7640
16124TIP3    H269864   6.453   3.266   5.567  0.8395 -0.7108  0.3116
16125TIP3   OH269865   1.197   3.206  14.840  0.3414 -0.1614  0.1553
16125TIP3    H169866   1.220   3.115  14.859 -1.9850 -1.0078 -0.7592
16125TIP3    H269867   1.196   3.249  14.925  0.3473 -1.2909  0.7440
16126TIP3   OH269868   2.736   2.038  13.790  0.4337  0.2379 -0.1271
16126TIP3    H169869   2.814   2.089  13.808 -0.1651  1.6369 -1.2780
16126TIP3    H269870   2.716   2.055  13.697 -0.9289 -0.4910 -0.0038
16127TIP3   OH269871   4.079   6.521  17.040 -0.3069  0.0081 -0.1165
16127TIP3    H169872   4.009   6.457  17.031  0.9238 -1.1762 -2.3719
16127TIP3    H269873   4.148   6.475  17.089 -0.1070  0.2496 -0.1649
16128TIP3   OH269874   0.530   1.201  13.244  0.6627  0.0684 -0.2102
16128TIP3    H169875   0.529   1.109  13.272 -2.0552 -0.0915 -0.6069
16128TIP3    H269876   0.526   1.198  13.149 -2.2878  0.4828 -0.1938
16129TIP3   OH269877   2.758   3.423  13.971  0.2025  0.5096 -0.2978
16129TIP3    H169878   2.669   3.456  13.983  0.6305  1.1892  1.2241
16129TIP3    H269879   2.747   3.328  13.960 -0.6342  0.4293  1.0754
16130TIP3   OH269880   4.521   1.546  12.927  0.2421  0.3251 -0.1025
16130TIP3    H169881   4.446   1.579  12.878  0.8209  1.2268 -0.3937
16130TIP3    H269882   4.522   1.452  12.908 -1.2929  0.1335  0.5765
16131TIP3   OH269883   6.383   0.139   0.790 -0.6269 -0.2095  0.3070
16131TIP3    H169884   6.450   0.207   0.783 -1.3879  0.3956 -1.8450
16131TIP3    H269885   6.305   0.185   0.820 -0.8802 -0.3186 -0.1759
16132TIP3   OH269886   2.155   3.312   1.164 -0.2735  0.2757 -0.0577
16132TIP3    H169887   2.117   3.383   1.216  1.2936  2.0623 -1.1879
16132TIP3    H269888   2.138   3.338   1.073  1.4985 -0.0638 -0.5251
16133TIP3   OH269889   6.811   6.715  11.849 -0.0296  0.0845  0.2323
16133TIP3    H169890   6.865   6.794  11.859  0.5095 -0.4676  1.9254
16133TIP3    H269891   6.798   6.683  11.938 -1.6712 -0.8130 -0.2889
16134TIP3   OH269892   6.217   4.482   2.185 -0.8768 -0.3825  0.6871
16134TIP3    H169893   6.126   4.455   2.179 -1.0454 -0.3976  2.7193
16134TIP3    H269894   6.265   4.418   2.131 -2.2257  1.0428 -2.4678
16135TIP3   OH269895   1.138   3.143   3.891  0.1877 -0.0787 -0.1126
16135TIP3    H169896   1.178   3.155   3.805 -0.7247  1.1086 -0.4079
16135TIP3    H269897   1.045   3.131   3.872  0.3228 -2.6750  0.5541
16136TIP3   OH269898   6.042   2.390   2.972 -0.3129  0.2874  0.4302
16136TIP3    H169899   6.090   2.428   2.899 -0.4713  1.8628  1.0979
16136TIP3    H269900   6.081   2.431   3.050 -1.9083  0.6837  1.0590
16137TIP3   OH269901   6.421   0.101  12.106 -0.5381  0.6461 -0.2161
16137TIP3    H169902   6.428   0.082  12.199  1.9555  1.1503 -0.2353
16137TIP3    H269903   6.327   0.097  12.087 -0.8961 -2.2055  1.6870
16138TIP3   OH269904   2.419   3.231  16.060 -0.0489 -0.6731  0.2481
16138TIP3    H169905   2.514   3.232  16.074  0.2707 -1.8705 -1.4552
16138TIP3    H269906   2.401   3.143  16.026 -1.6233 -0.1443 -0.3691
16139TIP3   OH269907   4.412   1.069   2.935  0.2137  0.2938  0.9460
16139TIP3    H169908   4.437   1.130   2.866  0.2800 -1.8140 -0.9912
16139TIP3    H269909   4.316   1.075   2.939  0.2526  0.8499  1.0994
16140TIP3   OH269910   3.101   5.967  13.988  0.0193 -0.0735  0.2096
16140TIP3    H169911   3.103   6.061  13.972 -1.0565  0.2549  1.7242
16140TIP3    H269912   3.174   5.932  13.937  0.1281  1.4996 -0.7848
16141TIP3   OH269913   3.825   4.887  11.110 -0.8005 -0.4600 -0.6482
16141TIP3    H169914   3.883   4.948  11.063 -1.4378  0.6049 -0.1106
16141TIP3    H269915   3.844   4.802  11.072  0.9255 -0.1101 -0.6602
16142TIP3   OH269916   2.415   6.693  16.795 -0.2681 -0.0808 -0.5163
16142TIP3    H169917   2.498   6.703  16.841 -1.0808 -0.4594  1.1290
16142TIP3    H269918   2.355   6.656  16.861 -1.3605 -1.2077 -2.0448
16143TIP3   OH269919   3.604   5.724   4.946  0.6792  0.1647  0.1656
16143TIP3    H169920   3.620   5.787   4.876  1.5859  0.0460  0.2554
16143TIP3    H269921   3.612   5.774   5.027  0.4516  0.1298  0.2118
16144TIP3   OH269922   0.867   3.106   0.042 -0.4398  0.2845  0.2855
16144TIP3    H169923   0.834   3.166   0.108  0.1476 -0.4823  1.2929
16144TIP3    H269924   0.811   3.029   0.049  0.8065 -0.5786  1.2431
16145TIP3   OH269925   2.195   2.026   4.734 -1.1105  0.6270 -0.0252
16145TIP3    H169926   2.162   2.086   4.666 -1.1933 -0.3333 -0.8468
16145TIP3    H269927   2.189   2.077   4.814  3.7631  3.7799 -1.2303
16146TIP3   OH269928   3.795   1.151  16.941  0.5006  0.0137  0.0792
16146TIP3    H169929   3.874   1.201  16.923 -1.5441  5.0570  2.9671
16146TIP3    H269930   3.750   1.146  16.857  1.5607  1.7905 -0.6524
16147TIP3   OH269931   5.515   3.433  13.250  0.3952 -0.2638  0.0454
16147TIP3    H169932   5.473   3.368  13.194  1.9691 -0.8024 -0.5824
16147TIP3    H269933   5.558   3.381  13.318  0.8803  0.1870  0.0898
16148TIP3   OH269934   5.646   0.523   0.694 -0.0404  0.1003 -0.0796
16148TIP3    H169935   5.667   0.430   0.705  1.5955  0.4454 -0.0359
16148TIP3    H269936   5.647   0.558   0.783 -1.7075  0.0019  0.0260
16149TIP3   OH269937   3.912   2.348  14.561  0.1599 -0.2465 -0.4856
16149TIP3    H169938   3.851   2.401  14.613 -0.4594  0.0286 -1.4576
16149TIP3    H269939   3.996   2.358  14.605 -0.5983 -1.1289  1.2595
16150TIP3   OH269940   6.031   5.370  11.992  0.4359  0.0842  0.0378
16150TIP3    H169941   6.111   5.392  11.945  1.1190  1.2824  1.7219
16150TIP3    H269942   5.961   5.383  11.927  1.3718  1.4514 -0.7292
16151TIP3   OH269943   3.443   2.783   6.022 -1.0938  0.3542  0.1380
16151TIP3    H169944   3.417   2.836   6.097  0.0735  1.9029 -0.5059
16151TIP3    H269945   3.451   2.845   5.950  2.2965 -0.2796 -0.1817
16152TIP3   OH269946   6.843   1.335   3.642  0.4817  0.1023  0.4929
16152TIP3    H169947   6.768   1.280   3.619  0.2320  0.5695  0.1779
16152TIP3    H269948   6.810   1.391   3.713  0.7758 -0.2392  0.9077
16153TIP3   OH269949   5.457   3.139  14.442 -0.1729 -0.4141  0.1881
16153TIP3    H169950   5.423   3.189  14.368 -0.1838 -2.5860 -1.3734
16153TIP3    H269951   5.530   3.192  14.475 -0.6043  0.9410 -0.9371
16154TIP3   OH269952   0.516   1.244   3.903 -0.6178  0.4399 -0.0300
16154TIP3    H169953   0.460   1.280   3.834 -1.2797 -1.5184 -0.5973
16154TIP3    H269954   0.584   1.310   3.916 -1.9770  2.0348 -0.6717
16155TIP3   OH269955   4.116   4.210   6.858 -0.2300  0.2090  0.3772
16155TIP3    H169956   4.024   4.202   6.833 -0.1179 -0.2778  0.1071
16155TIP3    H269957   4.115   4.270   6.933 -0.9894 -1.2629  1.6002
16156TIP3   OH269958   6.732   4.072  17.121  0.1035 -0.2414 -0.2876
16156TIP3    H169959   6.667   4.004  17.108 -0.7885  0.7406 -1.1835
16156TIP3    H269960   6.685   4.142  17.166  0.4277  0.6314 -1.2728
16157TIP3   OH269961   6.560   6.289  16.911  0.0426 -0.4593  0.0794
16157TIP3    H169962   6.600   6.334  16.837 -0.7931 -0.3575 -0.3249
16157TIP3    H269963   6.633   6.246  16.955  0.4826 -1.0695 -1.1912
16158TIP3   OH269964   2.667   1.043   6.940  0.3695  0.0752 -0.4256
16158TIP3    H169965   2.604   1.112   6.963  0.4796  0.5105 -1.3729
16158TIP3    H269966   2.745   1.064   6.992 -0.3130 -0.6053  0.9359
16159TIP3   OH269967   4.984   2.307  11.432  0.0589 -0.6988 -0.4445
16159TIP3    H169968   5.040   2.385  11.428 -0.8328 -0.0773 -1.3037
16159TIP3    H269969   4.940   2.305  11.347 -1.7100 -0.7927  0.4447
16160TIP3   OH269970   3.543   0.155  16.105  0.0339  0.0132 -0.1413
16160TIP3    H169971   3.552   0.186  16.015 -1.7870 -1.2963 -0.8368
16160TIP3    H269972   3.602   0.080  16.111 -0.4222 -0.3839 -0.5136
16161TIP3   OH269973   3.429   5.421  11.180 -0.0848  0.5642 -0.2858
16161TIP3    H169974   3.522   5.399  11.178 -0.1869  0.1420 -0.8493
16161TIP3    H269975   3.388   5.349  11.227 -0.1465  0.6867 -0.1496
16162TIP3   OH269976   2.140   1.193  13.323  0.2921  0.4366 -0.3765
16162TIP3    H169977   2.205   1.197  13.393  1.9519 -1.6493 -1.6657
16162TIP3    H269978   2.158   1.271  13.270  1.3792  0.1964 -0.3894
16163TIP3   OH269979   0.362   2.582  11.877 -0.6782  0.1482 -0.1569
16163TIP3    H169980   0.350   2.669  11.915  0.2474  0.9988 -1.7356
16163TIP3    H269981   0.455   2.564  11.885 -0.9007 -0.8618  0.4286
16164TIP3   OH269982   3.360   5.318   1.910 -1.2618  0.1477 -0.0013
16164TIP3    H169983   3.338   5.226   1.896  0.4890 -0.0620 -1.7500
16164TIP3    H269984   3.282   5.365   1.882 -1.5527 -0.7443 -0.7659
16165TIP3   OH269985   2.900   3.333   4.577 -0.8015  0.1012  0.6061
16165TIP3    H169986   2.819   3.380   4.559 -1.3582 -1.6990 -2.1227
16165TIP3    H269987   2.877   3.272   4.647 -1.9914 -0.7861 -0.5300
16166TIP3   OH269988   3.504   2.461  13.494  0.6671 -0.3042 -0.3879
16166TIP3    H169989   3.581   2.452  13.439  0.5439  0.0360 -0.6171
16166TIP3    H269990   3.442   2.512  13.442 -0.1206 -1.4628 -0.6230
16167TIP3   OH269991   5.581   5.518   0.053  0.0381  0.2981  0.1527
16167TIP3    H169992   5.539   5.562   0.127 -0.2922  0.8198 -0.3334
16167TIP3    H269993   5.599   5.430   0.084 -1.1333  0.1567  0.4944
16168TIP3   OH269994   2.548   5.190   6.027 -0.1784  0.4247  1.0106
16168TIP3    H169995   2.626   5.156   5.983 -1.1183 -0.9756  0.3244
16168TIP3    H269996   2.563   5.284   6.033  1.8095  0.1258  1.4577
16169TIP3   OH269997   6.076   1.408  13.730  0.2228 -0.5989  0.1374
16169TIP3    H169998   6.047   1.408  13.821  0.2242 -1.0298  0.1392
16169TIP3    H269999   6.091   1.501  13.709  0.5811 -0.5324  0.6835
16170TIP3   OH270000   4.813   2.005  12.871 -0.3038 -0.1361 -0.3699
16170TIP3    H170001   4.798   2.059  12.949 -0.6292 -2.0680  0.9672
16170TIP3    H270002   4.734   1.951  12.864 -0.1308 -0.2264 -1.8733
16171TIP3   OH270003   1.963   1.175   4.939 -0.2611  0.6529  1.2132
16171TIP3    H170004   1.873   1.201   4.958 -0.7915  0.2270 -0.5615
16171TIP3    H270005   2.015   1.253   4.957 -1.4186  2.0040 -0.9307
16172TIP3   OH270006   3.629   3.447  15.483  0.0774  0.4723  0.0211
16172TIP3    H170007   3.714   3.492  15.480 -0.1170  0.8617 -2.8113
16172TIP3    H270008   3.652   3.355  15.491  0.8147  0.5538 -0.9195
16173TIP3   OH270009   5.311   0.438   2.101  0.3432 -0.1131  0.6503
16173TIP3    H170010   5.260   0.512   2.068 -0.4214 -0.5800  0.7618
16173TIP3    H270011   5.340   0.467   2.188  0.8363  0.4097  0.3219
16174TIP3   OH270012   3.991   3.270  14.466 -0.2140  0.2815  0.0327
16174TIP3    H170013   3.941   3.257  14.385 -0.0946 -3.3049  0.3738
16174TIP3    H270014   4.082   3.252  14.441 -0.2988 -1.8253  1.0738
16175TIP3   OH270015   5.052   4.182  15.529 -0.5554 -0.4374 -0.0371
16175TIP3    H170016   4.993   4.110  15.503 -0.0052 -0.3410 -1.7026
16175TIP3    H270017   5.038   4.249  15.462 -0.2913  0.5777  0.9111
16176TIP3   OH270018   5.692   0.699   5.748  0.2033  0.0415  0.6636
16176TIP3    H170019   5.777   0.674   5.784  0.3040 -1.5934 -0.5910
16176TIP3    H270020   5.630   0.640   5.792 -0.2393  0.9440  1.2678
16177TIP3   OH270021   4.639   3.936   0.885 -0.3183 -0.0615 -0.4766
16177TIP3    H170022   4.546   3.959   0.878 -1.3382 -3.2241  0.8008
16177TIP3    H270023   4.659   3.947   0.978  0.1089 -0.9631 -0.4542
16178TIP3   OH270024   5.415   6.465   2.082  0.3898 -0.2200  0.5482
16178TIP3    H170025   5.366   6.547   2.090 -1.4146 -1.0934 -0.8048
16178TIP3    H270026   5.377   6.408   2.150  0.5915 -0.4170  0.4957
16179TIP3   OH270027   5.106   2.889   4.154 -0.9536 -0.5326 -0.5484
16179TIP3    H170028   5.022   2.926   4.129 -1.1927 -1.0770 -0.5705
16179TIP3    H270029   5.106   2.801   4.114  0.2481  0.0075 -1.8089
16180TIP3   OH270030   5.419   3.438   0.848 -0.4883  0.3208  0.1431
16180TIP3    H170031   5.409   3.343   0.837  1.3966  0.3315 -2.8959
16180TIP3    H270032   5.363   3.476   0.780 -0.8767  1.3862  1.0366
16181TIP3   OH270033   3.272   5.381   4.143  0.3781 -0.6593  0.3517
16181TIP3    H170034   3.279   5.466   4.188 -2.5169 -0.5152  0.7023
16181TIP3    H270035   3.348   5.379   4.085  0.6300  2.1407  0.4283
16182TIP3   OH270036   5.892   6.646  15.350  0.1647  0.0248 -0.1281
16182TIP3    H170037   5.800   6.658  15.373  0.5528  0.0756  1.4553
16182TIP3    H270038   5.932   6.605  15.426  1.5783  0.5140 -0.5640
16183TIP3   OH270039   6.466   3.711  16.969 -0.3310  0.3115  0.7749
16183TIP3    H170040   6.461   3.685  17.061  1.2431 -2.2097  0.2589
16183TIP3    H270041   6.549   3.758  16.962 -1.1694  1.8860  0.8678
16184TIP3   OH270042   3.419   3.105  11.797  0.3433 -1.0921  0.0120
16184TIP3    H170043   3.453   3.193  11.782  1.4120 -1.5579 -0.4132
16184TIP3    H270044   3.327   3.110  11.770  0.7289 -0.4396 -1.2961
16185TIP3   OH270045   5.158   4.120  12.193  0.2881  0.3108 -0.3315
16185TIP3    H170046   5.230   4.089  12.248 -1.3392 -1.6948  0.8131
16185TIP3    H270047   5.149   4.213  12.215  3.5754  1.1413 -1.8389
16186TIP3   OH270048   2.955   5.387   6.036 -0.1913  0.0347  0.4232
16186TIP3    H170049   3.050   5.389   6.032 -0.1056 -1.0682  1.5360
16186TIP3    H270050   2.927   5.412   5.948  1.1111  0.6454  0.1670
16187TIP3   OH270051   5.457   3.008   2.512 -0.2583  0.3477 -0.3981
16187TIP3    H170052   5.489   2.929   2.555 -4.0161 -0.4190  1.5132
16187TIP3    H270053   5.405   2.976   2.439 -1.2626  1.0291 -0.0130
16188TIP3   OH270054   3.448   0.789  16.234 -0.0563  0.6130  0.0198
16188TIP3    H170055   3.523   0.730  16.227  0.0193  0.5584  1.0786
16188TIP3    H270056   3.451   0.841  16.154  1.4010  0.9353  0.2449
16189TIP3   OH270057   2.598   0.549  15.818 -0.1252 -0.2507  0.7167
16189TIP3    H170058   2.670   0.590  15.865  2.0011 -2.0876 -0.7687
16189TIP3    H270059   2.543   0.623  15.790  0.6879  1.1433  2.5564
16190TIP3   OH270060   5.764   1.928   1.365 -0.3295  0.0495  0.1759
16190TIP3    H170061   5.782   1.835   1.360 -0.7172 -0.0344  0.2894
16190TIP3    H270062   5.828   1.962   1.428 -0.5633 -0.2413  0.5738
16191TIP3   OH270063   6.346   5.487  12.205 -0.0328  0.9405  0.5474
16191TIP3    H170064   6.321   5.398  12.229  0.1153  1.0412  1.0874
16191TIP3    H270065   6.309   5.542  12.275  2.4430  1.0227  1.8809
16192TIP3   OH270066   0.834   5.596   3.887  0.4146  0.2379 -0.2249
16192TIP3    H170067   0.890   5.673   3.899  1.9561 -0.9623  0.7967
16192TIP3    H270068   0.869   5.553   3.809  1.1149 -0.6244  0.5325
16193TIP3   OH270069   1.248   5.723   4.505  0.5800  0.4014  0.0888
16193TIP3    H170070   1.243   5.629   4.517  0.0038  0.5146  0.8414
16193TIP3    H270071   1.160   5.748   4.475  0.2402  0.8688  1.3692
16194TIP3   OH270072   0.693   3.705  16.399 -0.2140 -0.0708  0.3027
16194TIP3    H170073   0.715   3.798  16.397 -0.0954 -0.0983  0.3252
16194TIP3    H270074   0.688   3.683  16.492  0.2508 -0.2013  0.3029
16195TIP3   OH270075   4.241   4.753   2.238 -0.0033 -0.7364  0.3591
16195TIP3    H170076   4.196   4.764   2.322 -0.2336 -0.4290  0.1961
16195TIP3    H270077   4.215   4.829   2.187  0.8386 -0.4602  0.3251
16196TIP3   OH270078   0.353   3.294   3.448  0.0241  0.2947 -0.2127
16196TIP3    H170079   0.314   3.312   3.534  0.9354  2.1818 -0.1534
16196TIP3    H270080   0.339   3.200   3.435 -0.1300 -0.0444  2.0081
16197TIP3   OH270081   5.241   0.722  15.343 -0.4141  0.3908  0.0659
16197TIP3    H170082   5.258   0.743  15.435 -0.8524  2.0941 -0.2012
16197TIP3    H270083   5.195   0.799  15.310 -0.5037 -0.3181 -1.5126
16198TIP3   OH270084   3.604   5.508   1.201  0.3448 -0.0143  0.0483
16198TIP3    H170085   3.594   5.424   1.246 -1.5532 -1.1585 -2.2990
16198TIP3    H270086   3.532   5.561   1.234 -0.4074 -0.4867 -0.7761
16199TIP3   OH270087   5.290   1.264  10.848  0.2231 -1.0507  0.3328
16199TIP3    H170088   5.381   1.269  10.878  0.5050 -2.7435 -0.1587
16199TIP3    H270089   5.291   1.311  10.764  0.1472  0.7824  1.3085
16200TIP3   OH270090   6.394   5.579   1.657 -0.0243  0.1971 -0.1028
16200TIP3    H170091   6.370   5.533   1.577  0.0774  1.4985 -0.9188
16200TIP3    H270092   6.453   5.519   1.703 -0.9681 -1.0174 -0.4509
16201TIP3   OH270093   6.806   2.258  15.826  0.0214  0.3950  1.1386
16201TIP3    H170094   6.802   2.354  15.826  0.8910  0.4940 -1.0093
16201TIP3    H270095   6.884   2.238  15.774 -1.5102 -1.4779 -0.6012
16202TIP3   OH270096   1.619   1.549  14.534 -0.2045 -0.1565 -0.1183
16202TIP3    H170097   1.708   1.573  14.562 -1.0020  0.8114  1.7659
16202TIP3    H270098   1.570   1.541  14.615 -1.7481 -1.1854 -1.1049
16203TIP3   OH270099   0.367   0.978   1.999 -0.4205  0.1675 -0.7622
16203TIP3    H170100   0.360   1.013   2.089 -0.6503  0.7221 -0.9872
16203TIP3    H270101   0.453   1.007   1.969 -0.4088  0.1165 -0.7773
16204TIP3   OH270102   5.101   0.028   0.920  0.4938 -0.1780  0.8566
16204TIP3    H170103   5.113   0.093   0.851 -2.2555  0.0054  0.4306
16204TIP3    H270104   5.105   0.078   1.002  2.8702 -0.2630  0.8636
16205TIP3   OH270105   1.742   4.039   5.432  0.0569  0.4907 -0.8035
16205TIP3    H170106   1.712   4.027   5.522 -0.9836  0.9064 -1.0753
16205TIP3    H270107   1.752   3.951   5.397  0.9880  0.3179 -0.1231
16206TIP3   OH270108   2.428   6.327   2.724 -0.1450 -0.4398  0.2253
16206TIP3    H170109   2.354   6.321   2.664 -0.0722 -2.3668  0.2863
16206TIP3    H270110   2.389   6.336   2.811 -0.2501  2.3550 -0.0209
16207TIP3   OH270111   1.269   2.898   1.593  0.6306 -0.1761 -0.3477
16207TIP3    H170112   1.246   2.964   1.527  0.7434  1.6432  1.3425
16207TIP3    H270113   1.225   2.927   1.673 -0.9144 -3.2431  0.0871
16208TIP3   OH270114   6.765   6.167   4.920  0.2004 -0.0402  0.0006
16208TIP3    H170115   6.725   6.254   4.926  1.0438  0.3889 -0.5263
16208TIP3    H270116   6.777   6.140   5.012 -1.6211 -0.3511  0.1846
16209TIP3   OH270117   1.732   5.834  13.767  0.3897 -0.0982  0.4518
16209TIP3    H170118   1.668   5.769  13.737 -0.6386  1.2955 -0.4527
16209TIP3    H270119   1.762   5.879  13.688  1.0909  0.5442  1.0566
16210TIP3   OH270120   4.541   3.128   5.759  0.7772 -0.1721  0.5023
16210TIP3    H170121   4.467   3.091   5.808  1.1823 -0.2522  1.0527
16210TIP3    H270122   4.550   3.217   5.792 -0.1642  0.4380 -0.7871
16211TIP3   OH270123   0.785   1.951   0.813  0.0575 -0.7242  0.1062
16211TIP3    H170124   0.808   2.039   0.841 -0.1621 -1.3311  2.4809
16211TIP3    H270125   0.692   1.943   0.833 -0.2902 -1.0049 -1.5423
16212TIP3   OH270126   1.901   6.574  14.674 -0.5002 -0.2019  0.3823
16212TIP3    H170127   1.920   6.518  14.599 -0.7425 -1.5220  1.2749
16212TIP3    H270128   1.925   6.521  14.750  0.6379  1.4540  1.2338
16213TIP3   OH270129   6.484   4.726  15.895  0.0919 -0.9046 -0.0805
16213TIP3    H170130   6.529   4.777  15.963  0.4637 -0.4126 -0.6786
16213TIP3    H270131   6.393   4.725  15.922 -0.1954  1.3249 -0.7530
16214TIP3   OH270132   6.218   4.326  13.498 -0.3323 -0.0727 -0.3327
16214TIP3    H170133   6.274   4.343  13.574  1.5263 -0.9288 -1.4322
16214TIP3    H270134   6.227   4.232  13.482  1.6847  0.4754 -3.2687
16215TIP3   OH270135   2.972   3.910  12.956  0.0598  0.0078  0.3053
16215TIP3    H170136   2.977   4.002  12.979 -2.7402 -0.2251  2.3645
16215TIP3    H270137   2.931   3.908  12.870 -0.0520  0.7131  0.3418
16216TIP3   OH270138   2.404   6.540  13.892  0.2425 -0.3904 -0.5904
16216TIP3    H170139   2.336   6.580  13.946  0.2575 -1.3886  0.1940
16216TIP3    H270140   2.486   6.573  13.929  0.2123 -0.0612 -0.8218
16217TIP3   OH270141   4.172   4.369   4.649 -0.4304 -0.1633  0.5496
16217TIP3    H170142   4.127   4.447   4.616 -0.2218 -0.3929 -0.2941
16217TIP3    H270143   4.166   4.377   4.744 -0.8477  0.6278  0.4679
16218TIP3   OH270144   6.135   1.064  13.687  0.6546  0.2461 -0.1428
16218TIP3    H170145   6.171   1.149  13.662  0.8964  0.7320  1.7024
16218TIP3    H270146   6.061   1.051  13.628 -0.0591  2.2627  0.2173
16219TIP3   OH270147   5.742   0.766  14.689 -0.0468 -0.2186  0.1020
16219TIP3    H170148   5.829   0.777  14.649  0.7191  0.8519  1.9270
16219TIP3    H270149   5.733   0.672  14.703  0.7042 -0.3684 -0.3734
16220TIP3   OH270150   2.965   0.300   0.019  0.3453 -0.2217 -0.1208
16220TIP3    H170151   2.937   0.387  -0.011  1.0542  0.3323  0.7682
16220TIP3    H270152   3.057   0.312   0.042  0.5914 -1.3460 -0.4701
16221TIP3   OH270153   0.939   5.574  10.631  0.6319 -0.4192 -0.1038
16221TIP3    H170154   0.923   5.649  10.689  0.3405 -0.5533 -0.0122
16221TIP3    H270155   1.019   5.534  10.666 -0.4809 -1.5248  1.2619
16222TIP3   OH270156   1.400   0.917  16.666 -0.2937  0.3047 -0.3132
16222TIP3    H170157   1.384   1.003  16.627  1.8549  2.0751  2.3461
16222TIP3    H270158   1.383   0.929  16.759  2.7540 -1.2948  0.5888
16223TIP3   OH270159   5.026   6.384  12.329 -0.2255 -0.2597 -0.0541
16223TIP3    H170160   4.991   6.346  12.409 -0.1632  0.6136  0.4036
16223TIP3    H270161   5.119   6.360  12.329 -0.0826  0.2783  0.4711
16224TIP3   OH270162   0.560   2.309   1.046  0.3296  0.0464 -0.2798
16224TIP3    H170163   0.486   2.248   1.054  0.3131 -0.0327 -0.9749
16224TIP3    H270164   0.549   2.369   1.120 -1.0571  0.6965 -0.9685
16225TIP3   OH270165   1.319   1.495  11.277  0.0717 -0.2000 -0.0463
16225TIP3    H170166   1.246   1.438  11.253  0.3378 -0.1694 -0.9720
16225TIP3    H270167   1.334   1.477  11.369 -0.5161 -0.8738 -0.0704
16226TIP3   OH270168   2.984   4.924   3.103  0.5553 -0.0550  0.3134
16226TIP3    H170169   3.055   4.860   3.095 -0.1508 -1.1358  2.1316
16226TIP3    H270170   2.984   4.970   3.019  0.9944 -2.5446 -1.1456
16227TIP3   OH270171   4.374   2.056   1.217  0.2203  0.1601  0.5917
16227TIP3    H170172   4.358   2.123   1.151 -0.7414  0.3026  0.9505
16227TIP3    H270173   4.382   2.104   1.299  0.4696 -0.0877  0.7136
16228TIP3   OH270174   4.986   4.542  10.420 -1.1213 -0.3717 -0.4062
16228TIP3    H170175   5.026   4.597  10.488 -2.1558 -0.3544  0.2162
16228TIP3    H270176   4.958   4.604  10.353  0.2803 -0.4235 -1.0896
16229TIP3   OH270177   6.193   4.544  13.751 -0.3436  0.6824  0.1434
16229TIP3    H170178   6.110   4.502  13.727  0.9411 -0.7859 -2.0466
16229TIP3    H270179   6.171   4.637  13.757 -2.2441  0.2852  0.1391
16230TIP3   OH270180   4.380   5.358  14.093  0.1320  0.4191 -0.2055
16230TIP3    H170181   4.342   5.270  14.102  0.1498  0.3989 -0.3266
16230TIP3    H270182   4.467   5.351  14.132 -0.2338  0.6340  0.6770
16231TIP3   OH270183   3.005   5.366   1.693  0.5047  0.2386  0.5280
16231TIP3    H170184   2.923   5.319   1.680 -0.4872  1.1954  2.8058
16231TIP3    H270185   3.073   5.302   1.669 -0.8645 -0.9587 -0.2989
16232TIP3   OH270186   2.529   3.996   1.598  0.0211  0.5898  0.5472
16232TIP3    H170187   2.585   3.919   1.587  0.3060  1.0390 -1.3967
16232TIP3    H270188   2.588   4.063   1.633  0.8391  1.1250 -1.6898
16233TIP3   OH270189   2.497   1.406   5.626  0.9543 -0.6643  0.0218
16233TIP3    H170190   2.508   1.315   5.597 -0.1237 -0.2820 -1.6975
16233TIP3    H270191   2.415   1.406   5.675  2.1255 -1.0410  2.1126
16234TIP3   OH270192   4.344   5.811  11.524 -0.4866  1.0545 -0.0696
16234TIP3    H170193   4.387   5.817  11.609  1.0082  0.4835 -0.7431
16234TIP3    H270194   4.391   5.874  11.469 -0.8154  0.7515 -0.7056
16235TIP3   OH270195   6.465   5.928  16.405  0.1967 -0.3373 -0.5321
16235TIP3    H170196   6.375   5.900  16.420 -0.3186  1.2244 -0.6360
16235TIP3    H270197   6.466   5.957  16.314  0.1545  1.9157  0.1273
16236TIP3   OH270198   6.258   4.229   1.421 -0.4405  0.7116 -0.6991
16236TIP3    H170199   6.313   4.159   1.385  0.3451  0.8253  0.2509
16236TIP3    H270200   6.287   4.308   1.375 -0.1914  0.6793 -0.6005
16237TIP3   OH270201   5.653   3.923   3.018 -0.1874 -0.6334  0.1352
16237TIP3    H170202   5.606   3.849   2.979 -0.4426 -0.0784 -0.6154
16237TIP3    H270203   5.729   3.936   2.962  1.6703 -2.3847  2.0798
16238TIP3   OH270204   1.140   5.234   5.014  0.2053 -0.0243 -0.4674
16238TIP3    H170205   1.212   5.206   5.070 -0.3557 -1.2383 -0.3352
16238TIP3    H270206   1.126   5.326   5.037 -1.2246 -0.9057  2.7969
16239TIP3   OH270207   2.574   1.054   0.650 -0.2442 -0.5900 -0.3198
16239TIP3    H170208   2.491   1.026   0.687 -0.0807 -1.5483 -0.6360
16239TIP3    H270209   2.559   1.143   0.620 -0.9864 -0.5575  0.1286
16240TIP3   OH270210   4.498   4.324   4.460  0.2067  0.3843  0.2652
16240TIP3    H170211   4.422   4.370   4.424 -0.8513 -0.7182  0.9771
16240TIP3    H270212   4.573   4.378   4.437 -0.2120 -0.5143 -4.2927
16241TIP3   OH270213   2.739   4.185   1.699  0.3191  0.4327 -0.3258
16241TIP3    H170214   2.734   4.252   1.631 -0.4997 -1.6250 -2.4553
16241TIP3    H270215   2.830   4.188   1.730  0.7372  1.3750 -1.5791
16242TIP3   OH270216   4.237   3.909   0.375 -0.7222  0.8088  0.2389
16242TIP3    H170217   4.325   3.947   0.371 -0.0481 -0.6856  0.2744
16242TIP3    H270218   4.194   3.956   0.447  0.1548  1.3287  0.4366
16243TIP3   OH270219   1.012   6.814   0.270  0.0665 -0.4666 -0.4890
16243TIP3    H170220   1.088   6.863   0.302  0.8609 -1.6399 -0.5138
16243TIP3    H270221   0.939   6.844   0.324  0.9590 -0.8514  0.9753
16244TIP3   OH270222   3.349   2.566  14.328  0.1805  0.2655  0.2751
16244TIP3    H170223   3.342   2.473  14.352  2.0379  0.3586  1.3179
16244TIP3    H270224   3.411   2.566  14.255 -1.1957  0.5607 -0.9599
16245TIP3   OH270225   2.409   3.186  11.247  0.0337 -0.3537 -0.2053
16245TIP3    H170226   2.461   3.246  11.300  0.9446  0.0938 -1.5541
16245TIP3    H270227   2.380   3.239  11.173 -0.0536 -1.2951 -0.8608
16246TIP3   OH270228   4.913   4.936   6.619 -0.0454 -0.3566 -0.0132
16246TIP3    H170229   4.855   4.885   6.675  0.0019  0.6020  0.9314
16246TIP3    H270230   4.975   4.872   6.584 -0.3733 -1.0461  0.6439
16247TIP3   OH270231   6.672   5.583   6.680  0.0706 -0.2345  0.6785
16247TIP3    H170232   6.601   5.523   6.655 -0.0528  0.7102 -1.4463
16247TIP3    H270233   6.649   5.613   6.768 -0.4487 -2.3953  1.3339
16248TIP3   OH270234   0.898   2.019   1.230 -0.0867  0.3579 -0.6365
16248TIP3    H170235   0.823   2.068   1.265  0.7683  0.2334  1.5497
16248TIP3    H270236   0.945   2.083   1.177 -1.0532  0.7952 -0.9946
16249TIP3   OH270237   5.541   4.183  13.712  0.2555 -0.1424  0.2502
16249TIP3    H170238   5.537   4.278  13.713  0.6401 -0.1281  0.5413
16249TIP3    H270239   5.489   4.157  13.635 -1.5355  0.2135  1.2722
16250TIP3   OH270240   4.321   1.028   4.407 -0.1223  0.4055  0.0450
16250TIP3    H170241   4.308   1.119   4.382  0.2323  0.2830 -0.6272
16250TIP3    H270242   4.359   0.987   4.329 -0.9261 -0.4776  0.0948
16251TIP3   OH270243   0.677   3.050  15.686  0.4008 -0.4603  0.6932
16251TIP3    H170244   0.693   3.138  15.719  0.2194  0.2458 -0.9783
16251TIP3    H270245   0.594   3.024  15.726  0.4636  0.1206  1.2126
16252TIP3   OH270246   0.183   4.481   4.201 -0.0197  0.3814 -0.4417
16252TIP3    H170247   0.253   4.468   4.266 -1.3175  0.1085  0.9508
16252TIP3    H270248   0.181   4.575   4.187 -0.6689  0.6325  1.0691
16253TIP3   OH270249   1.577   4.221  12.738  0.2903  0.1422 -0.1335
16253TIP3    H170250   1.640   4.267  12.683 -1.8679  0.6084 -2.3834
16253TIP3    H270251   1.611   4.231  12.827  2.2825  2.1093 -1.0256
16254TIP3   OH270252   3.405   3.391  14.018 -0.5646  0.2734  0.6559
16254TIP3    H170253   3.383   3.450  14.090  1.4167  1.0882  0.6753
16254TIP3    H270254   3.501   3.392  14.016 -0.5329 -1.3736 -0.6676
16255TIP3   OH270255   1.087   4.108  11.147  0.5823 -0.6384  0.1575
16255TIP3    H170256   1.060   4.056  11.071  0.5812  0.1173 -0.3644
16255TIP3    H270257   1.074   4.199  11.120  0.9559 -0.3514  0.9253
16256TIP3   OH270258   3.354   4.496  15.259  0.1005  0.0962 -0.0934
16256TIP3    H170259   3.261   4.489  15.234 -0.0787 -0.7758  0.7626
16256TIP3    H270260   3.400   4.506  15.175 -0.8179  1.3607 -0.4753
16257TIP3   OH270261   3.789   6.039   4.753 -0.4075  0.1788 -0.5090
16257TIP3    H170262   3.750   5.952   4.740  0.5188 -0.1932 -0.8546
16257TIP3    H270263   3.759   6.090   4.677 -0.1809 -0.1270 -0.8109
16258TIP3   OH270264   3.782   0.978  13.297 -0.3334 -0.1145 -0.1358
16258TIP3    H170265   3.832   0.905  13.262 -1.3514 -0.6292 -0.5650
16258TIP3    H270266   3.743   1.020  13.220 -1.4898 -0.4319  0.2500
16259TIP3   OH270267   1.963   5.256  12.245  0.1328  0.3806  0.5811
16259TIP3    H170268   2.038   5.253  12.186  0.8949 -0.2908  1.5459
16259TIP3    H270269   1.905   5.323  12.207  1.4795  1.3440  0.1362
16260TIP3   OH270270   4.494   3.229   4.715 -0.0226  0.0137 -0.3949
16260TIP3    H170271   4.518   3.321   4.705 -0.0986  0.1126  0.2629
16260TIP3    H270272   4.577   3.183   4.731 -0.0778  0.1103  0.2039
16261TIP3   OH270273   3.134   6.008   1.529 -0.2462 -0.1181  0.1595
16261TIP3    H170274   3.097   5.923   1.504 -0.9399  0.0358  0.6442
16261TIP3    H270275   3.142   6.002   1.624 -0.9404  0.6155  0.2687
16262TIP3   OH270276   4.204   4.748  12.158  0.0289  0.4599  0.1455
16262TIP3    H170277   4.167   4.733  12.071 -0.2782 -2.3092  0.6518
16262TIP3    H270278   4.182   4.668  12.207  1.0027  1.5410  2.4886
16263TIP3   OH270279   1.717   1.373  14.250  0.1397  0.1477  0.2647
16263TIP3    H170280   1.669   1.407  14.325 -0.1734  0.4478 -0.0677
16263TIP3    H270281   1.757   1.451  14.210  0.1118  0.0178 -0.0150
16264TIP3   OH270282   5.608   5.001   0.455  0.1995  0.3797  0.3857
16264TIP3    H170283   5.573   5.054   0.526  0.6498  1.0243  0.1379
16264TIP3    H270284   5.687   5.047   0.428 -0.0637  0.2519 -0.6557
16265TIP3   OH270285   3.046   4.183   5.287 -0.3837  0.1238 -0.4330
16265TIP3    H170286   2.997   4.197   5.368  1.3113  4.1777  0.1450
16265TIP3    H270287   2.990   4.217   5.218 -0.2284  0.4339 -0.4068
16266TIP3   OH270288   1.074   4.799  11.128 -0.0199 -0.4651 -0.5087
16266TIP3    H170289   1.059   4.759  11.213 -1.9775  0.2477 -0.4712
16266TIP3    H270290   0.995   4.781  11.078  0.7813 -0.2327 -1.9425
16267TIP3   OH270291   1.172   0.682  13.042  0.0454  0.1184  0.6259
16267TIP3    H170292   1.232   0.612  13.016 -1.0667 -0.5890 -0.0800
16267TIP3    H270293   1.196   0.700  13.133 -0.4952 -2.1029  1.2735
16268TIP3   OH270294   0.834   4.199  12.657  0.2900 -0.2241 -0.2862
16268TIP3    H170295   0.790   4.213  12.740  1.2328  2.3533 -0.1166
16268TIP3    H270296   0.927   4.208  12.678  0.6413 -1.0326 -1.3923
16269TIP3   OH270297   3.264   3.470   3.490  0.5074  0.3429  0.4279
16269TIP3    H170298   3.214   3.543   3.528  0.7544 -0.7843  3.1412
16269TIP3    H270299   3.208   3.436   3.421 -1.5050  0.5726  1.8426
16270TIP3   OH270300   3.029   0.102   6.671  0.0420  0.5282  0.1097
16270TIP3    H170301   3.066   0.190   6.678 -0.9633  1.0862 -1.2044
16270TIP3    H270302   3.102   0.048   6.641 -0.0871  1.5863 -2.3150
16271TIP3   OH270303   0.681   0.956  12.868 -0.0339  0.3082  0.0320
16271TIP3    H170304   0.661   0.877  12.917 -0.2793  1.3063  1.6336
16271TIP3    H270305   0.615   0.960  12.800 -0.2353 -0.6659  0.1609
16272TIP3   OH270306   2.255   3.771   3.738  0.1991  0.3330  0.1425
16272TIP3    H170307   2.186   3.834   3.717 -0.4608  0.1730  1.7420
16272TIP3    H270308   2.336   3.815   3.709 -0.2777  1.7654  0.8746
16273TIP3   OH270309   0.249   4.262  15.664 -0.3662  0.4368  0.2444
16273TIP3    H170310   0.209   4.175  15.668  1.9692 -0.8996 -2.1516
16273TIP3    H270311   0.275   4.281  15.755 -2.1485 -0.6638  1.0464
16274TIP3   OH270312   4.698   0.458  16.754  0.2594 -0.2835  0.4571
16274TIP3    H170313   4.764   0.493  16.695 -0.6084 -0.9819 -0.9703
16274TIP3    H270314   4.718   0.499  16.839  0.2955  2.3586 -0.7330
16275TIP3   OH270315   1.052   2.556   0.521  0.1311 -0.4408 -0.3753
16275TIP3    H170316   1.061   2.556   0.616  1.8259  0.8938 -0.4994
16275TIP3    H270317   1.001   2.634   0.501  0.5327 -0.2295 -0.6000
16276TIP3   OH270318   3.967   4.521   6.117  0.0545 -0.1915 -0.1611
16276TIP3    H170319   3.973   4.483   6.029 -0.9502  0.2685 -0.4402
16276TIP3    H270320   3.875   4.512   6.141  0.6736 -2.2471  1.7475
16277TIP3   OH270321   2.016   2.425   1.673  0.1488 -0.5141  0.3550
16277TIP3    H170322   2.089   2.477   1.706 -0.4440  0.3285  0.3576
16277TIP3    H270323   2.057   2.363   1.612  0.8394  0.0725  0.2069
16278TIP3   OH270324   5.602   5.184   1.152 -0.0779  0.1469 -0.2311
16278TIP3    H170325   5.578   5.122   1.221  0.4416  0.4274  0.2133
16278TIP3    H270326   5.654   5.251   1.197 -3.5671  2.9285  0.0965
16279TIP3   OH270327   2.471   1.128   4.827 -0.0616 -0.2408 -0.0032
16279TIP3    H170328   2.440   1.171   4.907 -0.8670 -0.5708 -0.1269
16279TIP3    H270329   2.391   1.107   4.779  0.3743 -0.9127 -0.4458
16280TIP3   OH270330   4.047   2.215   2.901 -0.4967 -0.2502  0.5127
16280TIP3    H170331   4.080   2.229   2.812 -0.7802  0.8196  0.5657
16280TIP3    H270332   3.973   2.274   2.909 -0.8268 -0.7478  1.2792
16281TIP3   OH270333   6.318   4.219   4.276 -0.3153  0.8218  0.2502
16281TIP3    H170334   6.270   4.291   4.317  0.3594  1.4223 -0.0003
16281TIP3    H270335   6.263   4.192   4.203 -0.3469  1.4063  0.0564
16282TIP3   OH270336   2.069   0.598   5.106 -0.4165 -0.4970 -0.1523
16282TIP3    H170337   2.149   0.634   5.069  0.2787 -1.4919  0.3390
16282TIP3    H270338   2.049   0.656   5.180 -0.3003 -0.0988 -0.4297
16283TIP3   OH270339   1.666   3.819   1.473 -0.2492  0.3488  0.3457
16283TIP3    H170340   1.590   3.877   1.466  0.2303  0.9856  0.2857
16283TIP3    H270341   1.735   3.864   1.425  0.2068 -0.1561  0.5155
16284TIP3   OH270342   4.244   5.588   4.129  0.1728 -0.4305  0.5772
16284TIP3    H170343   4.262   5.584   4.223  1.0527 -2.4236  0.3683
16284TIP3    H270344   4.330   5.586   4.088 -0.2222 -2.7815 -0.2995
16285TIP3   OH270345   1.213   0.298   2.872 -0.6860 -0.1019 -0.4003
16285TIP3    H170346   1.263   0.257   2.943  0.8376  0.4819 -1.1008
16285TIP3    H270347   1.241   0.389   2.872 -1.5637  0.1784 -0.9917
16286TIP3   OH270348   2.206   2.486   5.091  0.1823 -0.0973 -0.5356
16286TIP3    H170349   2.128   2.435   5.071 -1.0423  1.6317 -0.3995
16286TIP3    H270350   2.230   2.528   5.008  0.8842 -0.4800 -0.5386
16287TIP3   OH270351   0.438   1.657   3.758  1.0999 -0.2283 -0.6510
16287TIP3    H170352   0.376   1.605   3.706 -0.4001  1.5156 -0.7095
16287TIP3    H270353   0.447   1.739   3.710  0.2975  1.1138  1.3752
16288TIP3   OH270354   5.815   0.147  16.244 -0.0181  0.3294  0.0060
16288TIP3    H170355   5.853   0.061  16.228 -1.9487 -0.1161 -3.1750
16288TIP3    H270356   5.750   0.133  16.312 -0.8252 -0.9527 -0.9889
16289TIP3   OH270357   5.734   3.351  13.536 -0.1057 -0.1364 -0.7842
16289TIP3    H170358   5.810   3.294  13.543 -1.6834 -2.1377  2.0899
16289TIP3    H270359   5.691   3.344  13.621 -3.7705  0.4809 -2.3945
16290TIP3   OH270360   4.851   5.567  15.868 -0.5003  0.0716 -0.1475
16290TIP3    H170361   4.896   5.617  15.935  0.0123  0.1424 -0.5403
16290TIP3    H270362   4.853   5.623  15.790 -2.4878  0.6763  0.1878
16291TIP3   OH270363   6.251   6.740   0.793  0.2505 -0.7944  0.9441
16291TIP3    H170364   6.293   6.659   0.764  0.3680 -0.8392  1.2352
16291TIP3    H270365   6.319   6.807   0.783  0.1498 -0.7290  0.6919
16292TIP3   OH270366   2.562   1.396  13.195  0.2899 -0.0163  0.8164
16292TIP3    H170367   2.582   1.330  13.129  1.7137 -0.1923  1.3805
16292TIP3    H270368   2.471   1.418  13.180  0.4362 -0.4161 -0.8796
16293TIP3   OH270369   3.609   0.504  14.442 -0.1113 -0.2653  0.1738
16293TIP3    H170370   3.632   0.508  14.535  0.5640  0.6382 -0.0185
16293TIP3    H270371   3.603   0.596  14.415  0.2680 -0.5200 -0.8069
16294TIP3   OH270372   4.131   5.876   3.974 -0.1973  0.0233 -0.0952
16294TIP3    H170373   4.170   5.899   3.889  2.8564 -2.0421  0.5641
16294TIP3    H270374   4.150   5.782   3.983 -0.3300  0.2141  2.9103
16295TIP3   OH270375   2.559   1.333   3.654 -0.1587 -0.1418 -0.4095
16295TIP3    H170376   2.469   1.301   3.640 -0.9634  1.2591  1.1571
16295TIP3    H270377   2.555   1.425   3.630  0.9471 -0.1183 -0.5524
16296TIP3   OH270378   4.959   6.683   3.996  0.2617  0.2961 -0.9344
16296TIP3    H170379   4.981   6.631   3.919  0.5907  4.2725 -3.8793
16296TIP3    H270380   5.038   6.736   4.012 -0.6751  1.3324  0.4980
16297TIP3   OH270381   2.356   2.663  13.618 -0.2018 -0.1107  0.0839
16297TIP3    H170382   2.365   2.683  13.524  0.4957 -1.2188 -0.1077
16297TIP3    H270383   2.438   2.619  13.641 -0.0723  0.7528  1.3969
16298TIP3   OH270384   2.973   5.543  15.162 -0.0237  0.3812  0.2847
16298TIP3    H170385   2.916   5.517  15.089 -0.6849 -0.7957  1.1841
16298TIP3    H270386   3.061   5.519  15.133 -0.0105  1.7218 -0.8988
16299TIP3   OH270387   0.474   1.764   4.316 -0.3240  0.3220 -0.1906
16299TIP3    H170388   0.511   1.698   4.258 -2.3581  1.1090 -2.5746
16299TIP3    H270389   0.497   1.735   4.404  2.1000 -1.4520 -1.3100
16300TIP3   OH270390   1.377   5.218   5.585  0.5715  0.2362 -0.0463
16300TIP3    H170391   1.293   5.261   5.568  0.6650  0.5980  0.3810
16300TIP3    H270392   1.377   5.142   5.527  0.7919  1.2979 -1.4805
16301TIP3   OH270393   3.109   5.481   2.173 -0.4175  0.0183 -0.1613
16301TIP3    H170394   3.126   5.564   2.219 -1.6688 -0.3310  1.0166
16301TIP3    H270395   3.189   5.430   2.186 -0.1678  0.5213  0.3275
16302TIP3   OH270396   2.076   2.639   2.254 -0.4895 -0.2492  0.3815
16302TIP3    H170397   2.136   2.625   2.182 -0.9105  1.4082 -0.3255
16302TIP3    H270398   2.011   2.569   2.244  0.0653 -0.7022 -0.1683
16303TIP3   OH270399   5.279   3.596  15.488  0.2334  0.1332  0.0446
16303TIP3    H170400   5.288   3.501  15.493  0.6429  0.1185 -0.8161
16303TIP3    H270401   5.195   3.610  15.444 -0.2220  0.1872  0.9111
16304TIP3   OH270402   1.734   0.635  10.642  0.2222 -0.2101  0.7350
16304TIP3    H170403   1.810   0.689  10.619  1.5440 -0.0161  4.7037
16304TIP3    H270404   1.662   0.698  10.649  0.1427 -0.0629 -0.9521
16305TIP3   OH270405   6.079   6.545   4.743 -0.5622  0.0375 -0.1635
16305TIP3    H170406   6.149   6.569   4.683 -1.9808  0.4976 -1.6939
16305TIP3    H270407   6.103   6.588   4.826  1.1270 -0.1262 -0.5424
16306TIP3   OH270408   6.554   4.173  11.248  0.0636  0.3155 -0.1827
16306TIP3    H170409   6.493   4.099  11.250  0.7395 -0.4190 -2.9360
16306TIP3    H270410   6.526   4.225  11.172  1.1641  1.5011  0.1860
16307TIP3   OH270411   6.288   3.091  16.892  0.2982 -0.2570 -0.1837
16307TIP3    H170412   6.203   3.118  16.858  0.6723  0.6858 -0.4072
16307TIP3    H270413   6.268   3.041  16.971 -0.4514  0.2156 -0.0681
16308TIP3   OH270414   3.550   4.429  11.695  0.7118 -0.2345 -0.5332
16308TIP3    H170415   3.547   4.333  11.699 -0.7370 -0.1668  1.6686
16308TIP3    H270416   3.540   4.457  11.786  2.3477  2.0224 -0.9621
16309TIP3   OH270417   5.387   3.521  14.550  0.2345 -0.2376 -0.1277
16309TIP3    H170418   5.312   3.515  14.492 -1.2201 -1.7179  1.7538
16309TIP3    H270419   5.425   3.607  14.532 -1.4845  0.2704 -1.6198
16310TIP3   OH270420   6.501   3.194  10.781  0.2219  0.1961  0.8448
16310TIP3    H170421   6.504   3.227  10.691  0.1296 -1.1441  0.3184
16310TIP3    H270422   6.530   3.103  10.773  0.0617  0.0153  2.1580
16311TIP3   OH270423   1.232   1.097  14.869  0.4517  0.1702  0.0633
16311TIP3    H170424   1.194   1.098  14.780 -0.5714 -1.6121  0.4336
16311TIP3    H270425   1.266   1.186  14.881  0.8918  0.3734 -2.2221
16312TIP3   OH270426   2.894   2.747   4.053 -0.2037 -0.5746 -0.1636
16312TIP3    H170427   2.822   2.710   4.105  0.9205 -0.1133  1.8274
16312TIP3    H270428   2.900   2.838   4.081  1.0135 -0.5518 -0.4494
16313TIP3   OH270429   6.327   2.036   3.993 -0.3336 -0.4378  0.1903
16313TIP3    H170430   6.269   1.973   4.035 -0.2471 -0.5884  0.0876
16313TIP3    H270431   6.274   2.076   3.924 -0.4171 -0.3295  0.3176
16314TIP3   OH270432   4.365   6.609   3.498  0.0643  0.1964 -0.3590
16314TIP3    H170433   4.340   6.654   3.579 -0.5697  1.7765 -1.4023
16314TIP3    H270434   4.347   6.671   3.428  1.3354 -0.8348 -1.6878
16315TIP3   OH270435   4.196   5.855   1.703  0.1494  0.2122 -0.0887
16315TIP3    H170436   4.206   5.822   1.792  1.2885  0.6885 -0.0149
16315TIP3    H270437   4.177   5.778   1.650  1.8470 -0.4646  0.2223
16316TIP3   OH270438   1.603   1.126  16.340  0.1814 -0.1060 -0.1426
16316TIP3    H170439   1.666   1.091  16.277 -0.5316  0.2674 -1.1024
16316TIP3    H270440   1.518   1.097  16.307 -0.3306  1.4776 -0.3085
16317TIP3   OH270441   0.202   6.703   0.934 -0.6096 -0.3002 -0.1349
16317TIP3    H170442   0.294   6.684   0.952 -0.8657 -0.5776  0.9683
16317TIP3    H270443   0.188   6.670   0.845  0.4352  0.0517 -0.4450
16318TIP3   OH270444   0.961   6.103  11.532 -0.2114 -0.2647  0.4213
16318TIP3    H170445   0.987   6.025  11.483  1.1779  0.1608  0.4420
16318TIP3    H270446   0.904   6.069  11.602  0.3080 -1.2490  0.3868
16319TIP3   OH270447   3.518   2.046  13.291 -0.2804 -0.1729  0.4913
16319TIP3    H170448   3.579   2.119  13.294  1.6362 -1.3799 -2.6825
16319TIP3    H270449   3.538   1.994  13.368  0.7328  0.9247  0.9937
16320TIP3   OH270450   6.085   3.111  10.923 -0.2820 -0.4909  0.0639
16320TIP3    H170451   6.027   3.159  10.982 -0.9997  0.2566 -1.2155
16320TIP3    H270452   6.032   3.093  10.846  0.1702 -2.7934  0.2260
16321TIP3   OH270453   3.986   5.975  14.140  0.4983  0.1313  0.1256
16321TIP3    H170454   3.995   5.882  14.118  0.3046  0.2742 -0.5777
16321TIP3    H270455   4.030   6.021  14.068  0.7141  0.5866  0.5393
16322TIP3   OH270456   5.823   1.378  13.453  0.5213  0.0685  0.1387
16322TIP3    H170457   5.750   1.327  13.417  0.8350  0.4708 -1.1061
16322TIP3    H270458   5.782   1.457  13.488  0.2367 -0.2149  0.4523
16323TIP3   OH270459   3.949   2.742   5.428  0.1348 -0.1413 -0.2826
16323TIP3    H170460   3.925   2.833   5.443 -0.2038  0.1485 -2.2925
16323TIP3    H270461   3.913   2.695   5.503 -2.8670  0.8852 -0.9548
16324TIP3   OH270462   3.685   0.037  13.112 -0.0581 -0.2315  0.3086
16324TIP3    H170463   3.637   0.098  13.056  1.5687  0.9585  0.1013
16324TIP3    H270464   3.684   0.078  13.199 -0.1652 -0.6179  0.4876
16325TIP3   OH270465   2.900   6.548   2.350 -0.0704  0.2756 -0.3911
16325TIP3    H170466   2.876   6.538   2.442 -2.0241 -0.7541 -0.9598
16325TIP3    H270467   2.836   6.610   2.315 -1.5447 -1.8508 -1.7495
16326TIP3   OH270468   1.567   6.511   0.506  0.5600  0.2188  0.3132
16326TIP3    H170469   1.485   6.462   0.499  0.6066  0.2398 -0.4323
16326TIP3    H270470   1.599   6.518   0.416  2.2421 -1.2521  0.7384
16327TIP3   OH270471   5.102   6.495   2.877 -0.4050 -0.3224  0.0211
16327TIP3    H170472   5.149   6.414   2.860 -0.7703 -0.7484  0.9425
16327TIP3    H270473   5.013   6.480   2.845 -0.9821 -0.9829  1.7880
16328TIP3   OH270474   6.621   2.073   5.262  0.3951  0.4963 -0.3598
16328TIP3    H170475   6.631   1.981   5.236  0.7949  0.4431 -0.0417
16328TIP3    H270476   6.620   2.070   5.358 -1.7437  0.6112 -0.3395
16329TIP3   OH270477   3.304   0.005   3.632  0.5872 -0.4823  0.7644
16329TIP3    H170478   3.345   0.070   3.575 -0.0043  0.8767  1.8110
16329TIP3    H270479   3.323   0.036   3.721 -1.7927 -0.3313  1.2934
16330TIP3   OH270480   5.834   1.689   5.886 -0.0478 -0.6300  0.6546
16330TIP3    H170481   5.751   1.696   5.933 -0.0344  1.5106  0.4664
16330TIP3    H270482   5.899   1.719   5.948  0.4256 -1.1042  0.3929
16331TIP3   OH270483   2.083   2.038   3.756  0.1870 -0.2002 -0.0159
16331TIP3    H170484   2.065   1.959   3.807 -0.7657  0.6869  1.0653
16331TIP3    H270485   2.027   2.030   3.678 -1.1777  0.1641  0.8931
16332TIP3   OH270486   4.381   4.885  11.441  0.3696  0.2468 -0.3462
16332TIP3    H170487   4.411   4.880  11.350  0.3028  1.3956 -0.4480
16332TIP3    H270488   4.439   4.948  11.483  0.8048 -0.7439  0.5959
16333TIP3   OH270489   2.679   4.073  13.255 -0.2984  0.0651 -0.4364
16333TIP3    H170490   2.595   4.109  13.284 -1.2564 -0.8847 -1.9202
16333TIP3    H270491   2.686   3.989  13.301 -0.4006 -0.0817 -0.6881
16334TIP3   OH270492   5.543   3.539   5.515 -0.7583 -0.2346  0.5833
16334TIP3    H170493   5.569   3.545   5.423  0.4566  2.2770  1.0003
16334TIP3    H270494   5.607   3.480   5.554  0.1982  0.5436  0.2402
16335TIP3   OH270495   3.033   4.077  14.680  0.3774 -0.4706 -0.3576
16335TIP3    H170496   3.058   4.004  14.623  0.2678 -0.1843 -0.7733
16335TIP3    H270497   3.076   4.153  14.643 -0.6102 -0.0817 -0.7239
16336TIP3   OH270498   0.028   3.449  12.569  0.4183 -0.4850 -0.7687
16336TIP3    H170499   0.052   3.455  12.661 -2.1626 -1.0039  0.0252
16336TIP3    H270500  -0.018   3.532  12.551 -0.8762 -1.2145 -0.9568
16337TIP3   OH270501   2.689   0.883  12.853  0.3488 -0.1030  0.0110
16337TIP3    H170502   2.612   0.923  12.894  1.2932  1.3415  0.4250
16337TIP3    H270503   2.747   0.860  12.925  0.2841 -1.3063 -0.2920
16338TIP3   OH270504   0.670   1.583   5.861  0.0321 -0.3885  0.1424
16338TIP3    H170505   0.702   1.601   5.949 -0.4552  1.0634  0.0363
16338TIP3    H270506   0.727   1.635   5.804 -0.0337 -0.8602 -0.3632
16339TIP3   OH270507   5.265   5.072   5.824  0.2432 -0.1380 -0.3441
16339TIP3    H170508   5.351   5.094   5.789 -0.5913 -0.3245 -2.6836
16339TIP3    H270509   5.205   5.134   5.782 -0.9458 -0.8917  0.1718
16340TIP3   OH270510   0.331   4.812  15.522  0.1376 -0.3574 -0.1441
16340TIP3    H170511   0.343   4.728  15.476 -0.6116 -0.4465 -0.1856
16340TIP3    H270512   0.410   4.862  15.500 -0.9974  0.3518 -3.1232
16341TIP3   OH270513   0.817   4.707   3.102 -0.2959  0.3406  0.4713
16341TIP3    H170514   0.852   4.693   3.014 -1.0404 -1.7624  0.4653
16341TIP3    H270515   0.751   4.775   3.091 -0.8494 -0.3701 -0.7266
16342TIP3   OH270516   0.685   4.477   3.252 -0.1261 -0.1665 -0.3243
16342TIP3    H170517   0.748   4.545   3.228 -0.1597 -0.1342 -0.3215
16342TIP3    H270518   0.606   4.498   3.202 -0.3739  0.2099  0.2072
16343TIP3   OH270519   1.367   1.819   4.218  0.6291 -0.7619  0.0696
16343TIP3    H170520   1.439   1.877   4.240  0.1068 -0.3430  0.6951
16343TIP3    H270521   1.357   1.763   4.295  0.9778 -1.5376 -0.4342
16344TIP3   OH270522   4.814   5.488   4.585  1.2487  0.0625 -0.0546
16344TIP3    H170523   4.783   5.403   4.615 -0.2067  0.4716 -0.2860
16344TIP3    H270524   4.760   5.551   4.633 -1.2643  0.7453 -3.4274
16345TIP3   OH270525   1.619   5.052   6.046  0.0083  0.1508  1.0093
16345TIP3    H170526   1.579   5.037   6.132  0.8024 -0.9113  1.2164
16345TIP3    H270527   1.713   5.055   6.064  0.0862  2.6835  0.5382
16346TIP3   OH270528   5.762   3.138  17.070  0.1759 -0.0378 -0.4266
16346TIP3    H170529   5.667   3.132  17.075  0.2134 -0.6506 -0.4213
16346TIP3    H270530   5.786   3.194  17.144 -0.0147 -1.6530  0.9138
16347TIP3   OH270531   4.569   4.747  14.180 -0.3215  0.3979 -0.2112
16347TIP3    H170532   4.651   4.745  14.228  0.4250 -1.2160 -1.4576
16347TIP3    H270533   4.533   4.835  14.196  1.5733  1.0939  0.4401
16348TIP3   OH270534   3.515   0.131  15.796 -0.3327  0.0732  0.4532
16348TIP3    H170535   3.588   0.122  15.734  0.1868  3.8411  0.2624
16348TIP3    H270536   3.437   0.123  15.742  0.0574  0.1977 -0.1450
16349TIP3   OH270537   3.493   5.832   2.294  0.0188  0.0349  0.5451
16349TIP3    H170538   3.472   5.920   2.325  4.2049  1.5948 -0.3779
16349TIP3    H270539   3.557   5.798   2.357  0.3265 -1.2955 -0.4162
16350TIP3   OH270540   1.507   2.582  15.677  0.0370 -0.1563 -0.7301
16350TIP3    H170541   1.569   2.573  15.750  0.5705 -0.1456 -1.1668
16350TIP3    H270542   1.436   2.635  15.712 -0.8302 -2.0310  0.4658
16351TIP3   OH270543   0.688   2.770   2.074  0.3963  0.0737 -0.1706
16351TIP3    H170544   0.703   2.788   1.981 -0.0545  1.0474 -0.0695
16351TIP3    H270545   0.593   2.778   2.084  0.1385 -2.3587 -0.0781
16352TIP3   OH270546   4.208   4.532  12.318  0.1331 -0.2700  0.0369
16352TIP3    H170547   4.255   4.457  12.282 -0.4833 -0.3576 -0.6169
16352TIP3    H270548   4.125   4.497  12.348  0.6702 -0.2083  1.6711
16353TIP3   OH270549   1.368   1.411  11.537  0.2488 -0.0281 -0.2189
16353TIP3    H170550   1.361   1.316  11.531 -1.3433  0.1374 -1.5612
16353TIP3    H270551   1.373   1.429  11.630 -1.1532 -1.3422  0.1524
16354TIP3   OH270552   6.715   6.095   3.904  0.4728 -0.0387 -0.1568
16354TIP3    H170553   6.804   6.065   3.885  0.3645 -0.1938 -0.4257
16354TIP3    H270554   6.698   6.066   3.993  1.3859  1.6249  0.6037
16355TIP3   OH270555   6.540   0.836  13.094 -0.3374  0.1876 -0.9922
16355TIP3    H170556   6.449   0.859  13.110 -0.0895  0.8248 -0.4755
16355TIP3    H270557   6.585   0.920  13.082  0.7088  0.0852  1.5597
16356TIP3   OH270558   3.133   2.410   0.652 -0.0200 -0.4095  0.3537
16356TIP3    H170559   3.214   2.366   0.627  0.8871  2.1068 -1.4830
16356TIP3    H270560   3.085   2.421   0.570 -2.0440 -1.3363  1.3234
16357TIP3   OH270561   2.542   0.453  13.458  0.3357 -0.2411 -0.1600
16357TIP3    H170562   2.484   0.402  13.515  0.9208  0.2151  0.8745
16357TIP3    H270563   2.533   0.543  13.490  0.5340  0.0539 -0.9221
16358TIP3   OH270564   1.866   0.011   0.854  0.0763  0.1250  0.7076
16358TIP3    H170565   1.918   0.051   0.784  0.8271  0.7010  1.5594
16358TIP3    H270566   1.922   0.018   0.931 -1.0602  0.2311  1.5377
16359TIP3   OH270567   1.138   0.008   0.674  0.1050 -0.1035  0.1646
16359TIP3    H170568   1.141  -0.087   0.689  0.6085 -0.1952 -0.4729
16359TIP3    H270569   1.176   0.019   0.587 -1.3913  0.5412 -0.4368
16360TIP3   OH270570   2.820   6.496   5.016  0.1454 -0.1735  0.3410
16360TIP3    H170571   2.784   6.513   5.103  0.1662  0.6729  0.1902
16360TIP3    H270572   2.914   6.515   5.024 -0.0135  0.8428 -0.1006
16361TIP3   OH270573   0.264   4.691   4.934  0.1233  0.3382 -0.0181
16361TIP3    H170574   0.178   4.711   4.969  0.2213  0.8226 -0.0452
16361TIP3    H270575   0.308   4.641   5.002 -0.2638 -0.1240 -0.1017
16362TIP3   OH270576   2.299   4.482   2.600 -0.0789  0.4565 -0.5047
16362TIP3    H170577   2.203   4.479   2.598 -0.4062  3.9015  1.5995
16362TIP3    H270578   2.325   4.400   2.642 -2.2053 -0.0539 -0.0711
16363TIP3   OH270579   6.552   1.255   6.265  0.1778  0.5140 -0.0485
16363TIP3    H170580   6.588   1.213   6.343  0.2908 -1.1369 -0.9469
16363TIP3    H270581   6.518   1.339   6.296 -1.0322 -0.6835  2.0334
16364TIP3   OH270582   0.243   0.787  14.811  0.4285  0.5016  0.3683
16364TIP3    H170583   0.311   0.722  14.793  0.5178  0.1419  1.8342
16364TIP3    H270584   0.173   0.767  14.749  0.2116 -1.3981  1.1679
16365TIP3   OH270585   3.689   6.017   5.761  0.0155  0.6753  0.2065
16365TIP3    H170586   3.777   5.986   5.782  0.0744  1.1638  0.7048
16365TIP3    H270587   3.687   6.108   5.793  0.0516  1.4207 -1.7509
16366TIP3   OH270588   6.301   4.370   0.598  0.0475 -0.6248 -0.1010
16366TIP3    H170589   6.377   4.400   0.647 -0.0780 -0.0740 -0.2351
16366TIP3    H270590   6.275   4.288   0.641 -0.1793 -0.0561  0.8683
16367TIP3   OH270591   4.298   6.249  15.113  0.0452  0.6534  0.4688
16367TIP3    H170592   4.264   6.200  15.188 -1.7594 -1.4046 -1.5337
16367TIP3    H270593   4.392   6.232  15.115  0.4314  2.4050  3.3619
16368TIP3   OH270594   0.237   3.762  15.610 -0.0830  0.0244 -0.1625
16368TIP3    H170595   0.174   3.694  15.588 -0.9960  0.6808  0.3609
16368TIP3    H270596   0.295   3.766  15.534  0.7456 -2.1425  0.2680
16369TIP3   OH270597   1.475   0.319   4.193  0.0843  0.5950 -0.3741
16369TIP3    H170598   1.418   0.266   4.137  0.1073  0.3112 -0.1356
16369TIP3    H270599   1.563   0.305   4.158  0.0709  0.6004 -0.4093
16370TIP3   OH270600   6.134   0.519   4.374 -0.1541  0.8445 -0.2520
16370TIP3    H170601   6.206   0.543   4.317 -0.5146  0.3606 -0.9230
16370TIP3    H270602   6.055   0.542   4.324 -0.5333 -1.8275 -1.0192
16371TIP3   OH270603   4.548   3.453   6.474 -0.2121  0.1839 -0.1987
16371TIP3    H170604   4.495   3.374   6.479  0.6949 -0.4454 -0.2084
16371TIP3    H270605   4.612   3.444   6.545 -0.1170  0.9263 -0.1757
16372TIP3   OH270606   5.278   1.302  12.292  0.0168 -0.1620  0.4251
16372TIP3    H170607   5.316   1.368  12.235  0.8682 -0.8525  0.1697
16372TIP3    H270608   5.191   1.336  12.313 -0.1661  0.3133 -0.9522
16373TIP3   OH270609   4.530   2.409  12.773 -0.2839  0.2084  0.4010
16373TIP3    H170610   4.580   2.465  12.712 -0.0243  0.1383  0.5464
16373TIP3    H270611   4.482   2.349  12.716 -0.7473  0.7317  0.2359
16374TIP3   OH270612   6.788   2.449  15.054  0.1144 -0.1529  0.5848
16374TIP3    H170613   6.835   2.531  15.065  0.5588 -0.1737 -0.8720
16374TIP3    H270614   6.856   2.382  15.047 -0.2489 -0.7678  2.3201
16375TIP3   OH270615   1.599   1.629   3.010 -0.2010  0.3496  0.7649
16375TIP3    H170616   1.649   1.638   3.091 -0.9908 -0.8527  1.4256
16375TIP3    H270617   1.569   1.538   3.011 -3.1272  1.2272  0.8461
16376TIP3   OH270618   3.259   6.514  15.118 -0.1379  0.0113 -0.2511
16376TIP3    H170619   3.191   6.475  15.173  0.9208 -0.2432  0.9075
16376TIP3    H270620   3.238   6.483  15.029  0.2662 -2.7227  0.5101
16377TIP3   OH270621   0.887   0.975  13.608  0.2037 -0.4636 -0.0034
16377TIP3    H170622   0.808   1.014  13.648  0.6770  0.2186  0.2803
16377TIP3    H270623   0.954   0.982  13.676  0.0693 -2.7073  0.4468
16378TIP3   OH270624   0.073   3.367  16.538 -0.5886  0.1607 -0.3220
16378TIP3    H170625   0.063   3.273  16.528  0.6139  0.2600 -3.3908
16378TIP3    H270626   0.155   3.378  16.587 -0.9389 -0.3379  0.4008
16379TIP3   OH270627   0.164   3.466  17.052  0.5807  0.4266 -0.2070
16379TIP3    H170628   0.162   3.431  16.964 -0.1709  0.1103 -0.0719
16379TIP3    H270629   0.151   3.390  17.109  0.1355  0.7447  0.1302
16380TIP3   OH270630   5.059   0.144   6.227 -0.1632 -1.0355  0.0051
16380TIP3    H170631   5.073   0.081   6.157 -0.4597 -1.7628  0.5912
16380TIP3    H270632   5.070   0.094   6.308  0.5103 -0.1328  0.4911
16381TIP3   OH270633   3.382   3.275  10.504 -0.6361  0.9692  0.7058
16381TIP3    H170634   3.426   3.327  10.437  0.1227  0.2928  0.6713
16381TIP3    H270635   3.437   3.285  10.582 -0.4069  0.1108  0.6607
16382TIP3   OH270636   1.807   6.075  12.699  0.1906  0.2535  0.6414
16382TIP3    H170637   1.715   6.063  12.675  0.2744 -0.1805  0.5304
16382TIP3    H270638   1.815   6.031  12.784  0.7476 -1.4661 -0.2603
16383TIP3   OH270639   1.798   5.489  16.434 -0.1996 -0.4039 -0.1215
16383TIP3    H170640   1.780   5.550  16.362  2.4672 -0.3481 -0.8459
16383TIP3    H270641   1.736   5.513  16.503 -0.9935  1.3390 -1.3860
16384TIP3   OH270642   3.978   6.675  12.100 -0.4815 -0.5289 -0.0993
16384TIP3    H170643   3.971   6.653  12.007 -1.9618  0.8620 -0.3635
16384TIP3    H270644   3.905   6.627  12.141 -3.0179  2.6099 -0.5075
16385TIP3   OH270645   1.594   1.253   3.499  0.2314  0.1116  0.3329
16385TIP3    H170646   1.499   1.258   3.495  0.3130  1.4056 -1.0938
16385TIP3    H270647   1.613   1.191   3.569 -1.6535  1.2803  1.9818
16386TIP3   OH270648   4.886   4.006  13.449 -0.1164  0.3211 -0.4968
16386TIP3    H170649   4.944   3.945  13.495  0.7207  0.3913 -1.4330
16386TIP3    H270650   4.912   4.001  13.357 -3.0241 -1.2567 -1.3616
16387TIP3   OH270651   5.308   0.835   1.679 -0.7213  0.0570 -0.0035
16387TIP3    H170652   5.303   0.893   1.603  1.0283 -2.6355 -2.3825
16387TIP3    H270653   5.397   0.847   1.713 -0.6842 -0.5072  0.1055
16388TIP3   OH270654   0.983   1.695  11.967  0.0848  0.5110  0.3185
16388TIP3    H170655   0.948   1.689  12.056 -1.6575 -0.6893 -0.3971
16388TIP3    H270656   1.065   1.743  11.977  0.0747  0.1585  2.6008
16389TIP3   OH270657   0.623   2.316  13.435 -0.3125  0.4956  0.3821
16389TIP3    H170658   0.617   2.241  13.375 -0.7417  0.4098  0.5273
16389TIP3    H270659   0.689   2.373  13.396  0.2139 -0.0877  0.4142
16390TIP3   OH270660   1.757   1.651   4.496  0.2909 -0.1191 -0.1607
16390TIP3    H170661   1.679   1.599   4.515 -1.0400  1.9038  0.2210
16390TIP3    H270662   1.799   1.663   4.581 -0.8655  1.5945  0.2085
16391TIP3   OH270663   5.551   6.702   5.053 -0.1402  0.0394  0.3357
16391TIP3    H170664   5.469   6.750   5.044  0.2008  0.3821 -1.2355
16391TIP3    H270665   5.619   6.769   5.056  0.4728 -0.2170 -3.3400
16392TIP3   OH270666   2.169   3.219  11.634  0.0886 -0.3258  0.7239
16392TIP3    H170667   2.206   3.278  11.568  1.6255 -1.6862  0.2900
16392TIP3    H270668   2.232   3.147  11.639 -1.2769 -1.4999  1.8621
16393TIP3   OH270669   0.513   4.570   0.448 -0.7233 -0.2388  0.0935
16393TIP3    H170670   0.480   4.585   0.360 -0.0200 -1.0326 -0.3278
16393TIP3    H270671   0.604   4.601   0.445 -0.8271  0.1178  0.6563
16394TIP3   OH270672   4.050   5.874  14.553 -0.1427  0.0410 -0.2005
16394TIP3    H170673   4.119   5.822  14.593 -0.4509 -0.5681 -0.4493
16394TIP3    H270674   4.093   5.956  14.528  0.2754  0.0322  0.4654
16395TIP3   OH270675   2.852   6.034  16.701 -0.5086  0.8327  0.2480
16395TIP3    H170676   2.819   6.124  16.713  1.2501  1.5275  0.1190
16395TIP3    H270677   2.894   6.012  16.784 -2.3969 -0.5832  0.9094
16396TIP3   OH270678   6.284   1.796   2.275  0.0081  0.2059 -0.0231
16396TIP3    H170679   6.303   1.777   2.183 -0.8137 -0.8107  0.0044
16396TIP3    H270680   6.211   1.738   2.298 -1.2387  1.9529  0.6680
16397TIP3   OH270681   2.411   5.160  11.552 -0.0593  0.4746  0.2730
16397TIP3    H170682   2.497   5.161  11.512 -0.2798 -0.4990 -0.2577
16397TIP3    H270683   2.381   5.251  11.548  0.3295  0.5678 -0.8680
16398TIP3   OH270684   5.062   3.160  16.694 -0.6796  0.2255  0.0813
16398TIP3    H170685   5.121   3.114  16.634 -0.6812  1.0160 -0.5419
16398TIP3    H270686   5.045   3.243  16.651  0.4320  1.4123  1.8098
16399TIP3   OH270687   5.175   2.385  15.546  0.6955 -0.5451  0.2459
16399TIP3    H170688   5.205   2.447  15.479 -1.6104 -0.1680 -0.5046
16399TIP3    H270689   5.162   2.303  15.499  0.3774 -0.6523  0.5167
16400TIP3   OH270690   5.103   0.702   2.667  0.3161  0.6617  0.0254
16400TIP3    H170691   5.077   0.675   2.579 -0.2476 -1.9880  0.9369
16400TIP3    H270692   5.198   0.698   2.666  0.2685 -1.0178 -0.0191
16401TIP3   OH270693   4.481   0.981  13.392  0.2498  0.1116  0.3676
16401TIP3    H170694   4.520   1.030  13.465  2.1848  0.2922 -0.7012
16401TIP3    H270695   4.416   1.041  13.355 -1.0080 -0.1190  2.1128
16402TIP3   OH270696   1.577   4.296  14.778 -0.1233 -0.9396 -0.1226
16402TIP3    H170697   1.648   4.237  14.752  0.6016  0.4964 -1.6132
16402TIP3    H270698   1.622   4.377  14.804 -1.0985 -0.9269  1.7067
16403TIP3   OH270699   5.185   1.594  10.803  0.2237  0.1387  0.7135
16403TIP3    H170700   5.156   1.525  10.743 -0.5743  0.7255  0.3955
16403TIP3    H270701   5.278   1.606  10.783  0.2989 -0.6280  0.5645
16404TIP3   OH270702   6.041   2.870   5.982 -0.2617  0.1673 -0.0022
16404TIP3    H170703   5.998   2.851   6.066 -1.5263  0.2355 -0.6085
16404TIP3    H270704   6.065   2.785   5.948  0.0902  0.1253  0.3436
16405TIP3   OH270705   4.003   4.742   2.439 -0.0594 -0.3264 -0.4696
16405TIP3    H170706   3.931   4.689   2.406  0.8548 -0.7633 -1.8709
16405TIP3    H270707   3.986   4.830   2.405 -0.1599 -0.3352 -0.4406
16406TIP3   OH270708   5.670   4.312  15.252 -0.0926  0.2029  0.1708
16406TIP3    H170709   5.645   4.292  15.162 -1.5163  0.3567  0.5095
16406TIP3    H270710   5.751   4.263  15.266  1.6741  2.2467 -2.0158
16407TIP3   OH270711   4.158   5.335  15.088  0.2805  0.8454  0.5347
16407TIP3    H170712   4.076   5.334  15.138  1.0077  1.1655  1.7783
16407TIP3    H270713   4.212   5.267  15.129 -0.1694 -1.0352 -1.7689
16408TIP3   OH270714   0.618   0.345   0.002 -0.1129  0.2693  0.6181
16408TIP3    H170715   0.611   0.250  -0.003  1.4232  0.1467  0.3114
16408TIP3    H270716   0.531   0.375   0.027 -1.2610 -1.0446 -1.5042
16409TIP3   OH270717   2.387   5.115  15.283 -0.4013  0.5901 -0.5557
16409TIP3    H170718   2.292   5.125  15.274 -0.5380 -1.1397 -1.4814
16409TIP3    H270719   2.400   5.101  15.377 -1.3518 -1.2158 -0.6413
16410TIP3   OH270720   5.474   4.961  12.004  1.0726 -0.5703 -0.4073
16410TIP3    H170721   5.461   5.045  11.961 -0.4010 -1.4758 -1.8430
16410TIP3    H270722   5.503   4.983  12.092  1.1010  1.4204 -0.8761
16411TIP3   OH270723   3.725   3.219  11.311 -0.0429 -0.0315 -0.1497
16411TIP3    H170724   3.702   3.207  11.219  0.7439 -1.0164 -0.2343
16411TIP3    H270725   3.694   3.307  11.332 -2.6341 -0.7614 -0.5959
16412TIP3   OH270726   1.200   0.103  15.896  0.0694  0.1797  0.4010
16412TIP3    H170727   1.173   0.166  15.830  1.0447  0.7747  0.5393
16412TIP3    H270728   1.170   0.018  15.863  0.6154  0.4485 -0.8617
16413TIP3   OH270729   6.621   5.670   0.820  0.2583 -0.0144 -0.1286
16413TIP3    H170730   6.570   5.651   0.899  1.0496  0.6901  0.5657
16413TIP3    H270731   6.666   5.589   0.800  0.0565 -0.1964  0.1499
16414TIP3   OH270732   2.739   4.173   2.439 -0.2197 -0.8555  0.8316
16414TIP3    H170733   2.669   4.188   2.375 -1.0494  1.1007  2.0806
16414TIP3    H270734   2.698   4.121   2.508 -1.0283  1.5678  2.3116
16415TIP3   OH270735   0.342   4.747   2.327 -0.4986  0.3972 -0.1220
16415TIP3    H170736   0.369   4.734   2.236  0.8509  0.0645  0.3122
16415TIP3    H270737   0.384   4.828   2.354 -0.3651  0.1534  0.4063
16416TIP3   OH270738   4.114   3.768   5.670  0.1229 -0.1258 -0.0980
16416TIP3    H170739   4.142   3.677   5.668 -0.1675 -0.2055 -0.5328
16416TIP3    H270740   4.130   3.800   5.581 -1.2513 -0.2006 -0.3955
16417TIP3   OH270741   3.320   4.070  11.889  0.0675  0.4875  0.7211
16417TIP3    H170742   3.240   4.018  11.882  0.9564 -0.7195 -1.0580
16417TIP3    H270743   3.323   4.120  11.808  1.3853  0.1078  0.5177
16418TIP3   OH270744   3.368   4.097  14.137  0.1560 -0.2432 -0.4726
16418TIP3    H170745   3.353   4.006  14.111 -0.8468  0.1359 -1.2754
16418TIP3    H270746   3.442   4.125  14.084 -0.1234 -0.3133 -0.9042
16419TIP3   OH270747   1.814   3.081   4.983  0.2940 -0.2285  0.0816
16419TIP3    H170748   1.806   3.042   4.896  2.0684 -0.4022 -0.0340
16419TIP3    H270749   1.878   3.151   4.971 -0.2812  0.4768  1.0300
16420TIP3   OH270750   0.749   3.881  11.935  0.4291  0.3533  0.2448
16420TIP3    H170751   0.811   3.808  11.942  1.0952  0.3354 -3.5118
16420TIP3    H270752   0.790   3.940  11.872 -1.1741  2.8743  1.4229
16421TIP3   OH270753   2.559   3.334   2.303 -0.3749  0.3588  0.0483
16421TIP3    H170754   2.581   3.399   2.237  0.8827  0.2797  0.3739
16421TIP3    H270755   2.639   3.324   2.355 -1.2214  0.1680  1.3705
16422TIP3   OH270756   3.449   6.799  15.201 -0.3867 -0.2416  0.4787
16422TIP3    H170757   3.518   6.864  15.212 -0.5822  0.0979 -0.2602
16422TIP3    H270758   3.396   6.807  15.279 -0.1573  0.1795  0.5930
16423TIP3   OH270759   3.135   5.196  13.725  0.1098  0.0285  0.3460
16423TIP3    H170760   3.136   5.129  13.657  0.6958 -0.7427  1.0958
16423TIP3    H270761   3.227   5.220  13.736  0.2064 -0.8993  1.8443
16424TIP3   OH270762   3.643   5.734  14.811 -0.0273  0.4275 -0.0240
16424TIP3    H170763   3.669   5.785  14.734 -1.5870  0.5609 -0.5067
16424TIP3    H270764   3.557   5.769  14.834  0.0400 -0.2091  1.2654
16425TIP3   OH270765   4.493   0.948   4.615 -0.0373  0.0353  0.1359
16425TIP3    H170766   4.568   0.943   4.555  1.0840  0.4617  1.4507
16425TIP3    H270767   4.427   0.996   4.565  1.2110  1.2261 -0.4512
16426TIP3   OH270768   4.541   6.365  16.693  0.3073 -0.1359  0.4530
16426TIP3    H170769   4.556   6.271  16.698  1.9406 -0.0070 -1.2140
16426TIP3    H270770   4.623   6.404  16.724 -0.3363  0.7512  1.0903
16427TIP3   OH270771   5.742   1.410  14.355  0.0155  0.3459 -0.6871
16427TIP3    H170772   5.669   1.454  14.398  0.0055  0.1016 -0.4514
16427TIP3    H270773   5.817   1.425  14.412  0.2950  1.1196 -1.2327
16428TIP3   OH270774   0.829   5.255   2.142  0.8733 -0.7806  0.0241
16428TIP3    H170775   0.771   5.276   2.216  2.3050 -1.9083  1.5388
16428TIP3    H270776   0.769   5.231   2.071 -0.5697 -1.9331  1.5391
16429TIP3   OH270777   0.089   6.235   4.716 -0.6149 -0.2401  0.2589
16429TIP3    H170778   0.045   6.189   4.787  0.0929 -0.1651  0.7513
16429TIP3    H270779   0.119   6.317   4.755 -1.2105  0.3114 -0.4204
16430TIP3   OH270780   2.798   2.933   1.317  0.6781  0.0590  0.0136
16430TIP3    H170781   2.704   2.930   1.301  0.2222  1.0401  2.1827
16430TIP3    H270782   2.829   3.008   1.265  0.3897 -0.5315 -1.0559
16431TIP3   OH270783   3.244   5.652   1.523 -0.1992 -0.2312 -0.4573
16431TIP3    H170784   3.270   5.561   1.509  2.3102  0.4935 -0.9901
16431TIP3    H270785   3.233   5.659   1.618  0.0167 -0.9792 -0.3686
16432TIP3   OH270786   4.300   4.791   0.336 -0.2174  0.2583 -0.4475
16432TIP3    H170787   4.248   4.843   0.399 -1.0390 -0.5392 -0.4435
16432TIP3    H270788   4.237   4.768   0.268  1.0407  2.5866 -2.5483
16433TIP3   OH270789   3.941   2.264  16.688 -0.0514 -0.8416 -0.0124
16433TIP3    H170790   3.976   2.276  16.776  1.6668 -0.7688 -0.6598
16433TIP3    H270791   3.846   2.269  16.698  0.1352 -0.4342  1.7609
16434TIP3   OH270792   2.297   3.430  15.659 -0.2176  0.0922 -0.2299
16434TIP3    H170793   2.391   3.448  15.654  0.2011 -1.2470  1.5976
16434TIP3    H270794   2.261   3.507  15.704  0.3482 -0.2174  0.8071
16435TIP3   OH270795   2.338   5.742   0.963  0.9383 -0.3777  0.0655
16435TIP3    H170796   2.429   5.714   0.964  1.5038  1.2847 -0.5129
16435TIP3    H270797   2.339   5.825   0.914 -1.0547 -0.8652 -0.9089
16436TIP3   OH270798   2.866   0.525   5.563  0.3638  0.0977 -0.0238
16436TIP3    H170799   2.837   0.580   5.636 -0.9182  0.1995 -0.5831
16436TIP3    H270800   2.791   0.468   5.545  0.5323  0.2897 -1.4662
16437TIP3   OH270801   6.007   3.566   0.922  0.8156  0.3552 -0.1025
16437TIP3    H170802   5.912   3.551   0.924  0.9065 -0.1809  0.3075
16437TIP3    H270803   6.016   3.662   0.926  0.3193  0.3666  1.0585
16438TIP3   OH270804   3.636   2.061  12.698 -0.2139  0.6685 -0.3880
16438TIP3    H170805   3.586   2.105  12.766 -0.2106 -0.3411  0.2934
16438TIP3    H270806   3.646   1.971  12.730  1.1962  0.5924 -0.9557
16439TIP3   OH270807   2.677   3.416  12.545  0.3827  0.4416  0.0953
16439TIP3    H170808   2.771   3.415  12.565  0.3383  1.1720  0.3811
16439TIP3    H270809   2.657   3.509  12.532 -0.1794  0.2350 -0.5653
16440TIP3   OH270810   0.617   0.677   1.811  0.5672  0.7617  0.2292
16440TIP3    H170811   0.711   0.686   1.829  0.4786  0.6465  0.7890
16440TIP3    H270812   0.600   0.741   1.742  1.2664  0.0188 -0.6474
16441TIP3   OH270813   2.823   2.820   0.060 -0.5595 -0.3282  0.3002
16441TIP3    H170814   2.737   2.779   0.050 -0.4506 -0.2779 -1.0549
16441TIP3    H270815   2.878   2.776  -0.004 -0.4568  1.8896 -1.2698
16442TIP3   OH270816   3.443   2.891   3.758 -0.3408 -0.6954 -0.4213
16442TIP3    H170817   3.467   2.846   3.838 -0.6083  1.2156  0.8018
16442TIP3    H270818   3.348   2.889   3.756 -0.3416 -0.5732 -0.5996
16443TIP3   OH270819   6.487   4.088  12.424  0.9244  0.2891  0.3245
16443TIP3    H170820   6.406   4.053  12.459  0.7203 -0.4976 -0.8746
16443TIP3    H270821   6.519   4.020  12.364  1.8135  1.1001 -0.1507
16444TIP3   OH270822   1.308   2.478   0.466  0.4087 -0.6542 -0.3328
16444TIP3    H170823   1.215   2.485   0.445  0.4256 -0.7112 -0.4248
16444TIP3    H270824   1.319   2.389   0.501  0.2733 -0.3715  0.4532
16445TIP3   OH270825   4.529   6.214   2.304  0.5094  0.0876 -0.9978
16445TIP3    H170826   4.556   6.212   2.212 -1.0520  0.1456 -1.4929
16445TIP3    H270827   4.435   6.193   2.302  0.6295 -0.8051  0.6632
16446TIP3   OH270828   6.821   3.662  14.159  0.2964  0.2121 -0.0566
16446TIP3    H170829   6.781   3.746  14.135  0.2176  0.5116  1.0439
16446TIP3    H270830   6.869   3.681  14.240  0.3063 -0.7941  0.1847
16447TIP3   OH270831   0.058   4.890   5.036  0.4988 -0.2268 -0.2536
16447TIP3    H170832   0.127   4.951   5.063  0.0393 -0.2618  1.0541
16447TIP3    H270833   0.078   4.872   4.944  2.9150 -1.1427  0.3642
16448TIP3   OH270834   5.815   5.990  15.726 -0.5049 -0.0506  0.0196
16448TIP3    H170835   5.738   6.042  15.705 -0.7182 -0.2665  0.2597
16448TIP3    H270836   5.835   5.942  15.646  0.0279  0.8128 -0.3841
16449TIP3   OH270837   0.776   4.139   4.239  0.0270  0.4346 -0.4685
16449TIP3    H170838   0.808   4.223   4.272  0.8422  0.6242 -1.6830
16449TIP3    H270839   0.784   4.079   4.314 -0.2958  1.3577  0.3274
16450TIP3   OH270840   6.582   1.310  11.264  0.4474  0.4027 -0.2020
16450TIP3    H170841   6.628   1.255  11.201  0.3093 -0.4797  0.4360
16450TIP3    H270842   6.500   1.262  11.282  1.0498 -0.0426  1.5897
16451TIP3   OH270843   1.279   3.823  11.531  0.2251  0.2905 -0.2720
16451TIP3    H170844   1.268   3.909  11.490  1.2947  0.5595 -0.0215
16451TIP3    H270845   1.203   3.813  11.588 -0.8102  0.3099 -1.5895
16452TIP3   OH270846   3.425   3.956  12.309  0.4221 -0.1968 -0.8160
16452TIP3    H170847   3.491   4.025  12.318  0.7239 -0.6201  0.5084
16452TIP3    H270848   3.341   4.002  12.312  0.6185  0.1324  0.0224
16453TIP3   OH270849   0.018   4.978   5.672  0.0059 -0.3742  0.4350
16453TIP3    H170850  -0.034   5.005   5.747 -1.0388 -1.6262  0.1837
16453TIP3    H270851  -0.038   4.917   5.624  0.4942  0.6808 -1.5815
16454TIP3   OH270852   2.554   6.623  13.670 -0.1227  0.3443 -0.3418
16454TIP3    H170853   2.462   6.597  13.665 -0.3382  0.8232  0.7950
16454TIP3    H270854   2.557   6.711  13.633 -0.0032  0.0730 -0.9829
16455TIP3   OH270855   3.539   3.914   1.391 -0.0718 -0.0919  0.2885
16455TIP3    H170856   3.499   3.829   1.375 -0.7770  0.1208  0.8919
16455TIP3    H270857   3.609   3.920   1.326  1.3007 -1.9626  1.5009
16456TIP3   OH270858   1.208   2.807   6.257  0.0556  0.2902  0.1937
16456TIP3    H170859   1.246   2.891   6.283  0.5242  0.4590 -0.9622
16456TIP3    H270860   1.282   2.747   6.255  0.3931  0.6833 -2.3366
16457TIP3   OH270861   3.129   0.961   5.040 -0.0919  0.0693 -0.0983
16457TIP3    H170862   3.116   0.983   5.133 -1.7720  0.1320 -0.3175
16457TIP3    H270863   3.111   0.868   5.035 -0.5795  0.1863 -0.4668
16458TIP3   OH270864   0.599   0.243   1.727 -0.0746 -0.0713  0.2262
16458TIP3    H170865   0.549   0.179   1.675 -2.0087  1.3556  0.1936
16458TIP3    H270866   0.549   0.324   1.718 -0.2094  0.4102  3.8195
16459TIP3   OH270867   2.284   2.231  14.634  0.1148 -0.0879 -0.2020
16459TIP3    H170868   2.235   2.282  14.699  0.8814  2.3205 -1.3828
16459TIP3    H270869   2.366   2.210  14.677 -0.4338 -0.8719  0.4957
16460TIP3   OH270870   2.669   1.731  16.603  0.2019 -0.1141 -0.1303
16460TIP3    H170871   2.715   1.814  16.612 -1.5022  0.8636  0.1554
16460TIP3    H270872   2.704   1.675  16.672  0.8587  0.6156  0.1354
16461TIP3   OH270873   1.815   1.410  16.171 -0.0643 -0.1723  0.1307
16461TIP3    H170874   1.856   1.371  16.093 -1.2791  0.5391 -0.9063
16461TIP3    H270875   1.727   1.372  16.174  0.2334 -0.8076  1.6586
16462TIP3   OH270876   3.089   2.284   2.377 -0.4691  0.8864  0.0355
16462TIP3    H170877   3.155   2.349   2.353  1.4779 -0.1362  2.1694
16462TIP3    H270878   3.107   2.266   2.469 -3.2725 -0.0667  0.4909
16463TIP3   OH270879   2.971   3.861  16.210  0.0299 -0.3220  0.8125
16463TIP3    H170880   2.917   3.889  16.135  0.2020 -0.2509  0.7148
16463TIP3    H270881   3.033   3.933  16.223 -1.1253  0.4883  2.1431
16464TIP3   OH270882   5.218   4.389  15.383  0.1043 -0.3705 -0.3406
16464TIP3    H170883   5.233   4.398  15.477 -1.4112  1.8491 -0.2260
16464TIP3    H270884   5.292   4.434  15.342 -1.0058  1.9128 -0.0315
16465TIP3   OH270885   0.390   6.835  16.527  0.3736 -0.4043  0.1013
16465TIP3    H170886   0.366   6.884  16.449 -0.6136 -1.5834 -0.3614
16465TIP3    H270887   0.443   6.762  16.494  1.0411 -0.1944  0.6824
16466TIP3   OH270888   0.809   0.526  13.487  0.7367 -0.6186 -0.1117
16466TIP3    H170889   0.763   0.583  13.425  0.3957 -0.1127  0.5866
16466TIP3    H270890   0.792   0.437  13.456 -0.9857 -0.4725  0.2708
16467TIP3   OH270891   0.232   2.089  14.657  0.6135  0.0571  0.0863
16467TIP3    H170892   0.299   2.044  14.605  1.0581  1.5365 -0.6764
16467TIP3    H270893   0.233   2.179  14.624 -1.9884  0.0512 -0.1885
16468TIP3   OH270894   5.235   3.169  12.045 -0.3048  0.2432 -0.5008
16468TIP3    H170895   5.269   3.130  12.126  0.0277 -0.0138 -0.7651
16468TIP3    H270896   5.147   3.134  12.037 -1.5580  2.6337  1.3899
16469TIP3   OH270897   0.003   3.948  11.675 -0.1079  0.8798  0.0309
16469TIP3    H170898  -0.029   3.985  11.757 -1.2996  1.6567 -0.7323
16469TIP3    H270899   0.078   4.002  11.652 -0.2488  1.1634  0.2282
16470TIP3   OH270900   2.442   1.226   1.461 -0.0609 -0.5200 -0.3321
16470TIP3    H170901   2.496   1.225   1.540  0.1893  1.1919 -0.4270
16470TIP3    H270902   2.503   1.206   1.390 -0.4682 -3.0341 -0.0683
16471TIP3   OH270903   4.744   2.502  12.880  0.1828  0.3846 -0.0063
16471TIP3    H170904   4.669   2.444  12.890 -0.4250  1.2864  0.8311
16471TIP3    H270905   4.768   2.527  12.969  1.2521  0.3989 -0.2791
16472TIP3   OH270906   0.705   4.516  13.243 -0.3167 -0.4315  0.2014
16472TIP3    H170907   0.616   4.479  13.244 -0.4004 -0.2566 -0.2361
16472TIP3    H270908   0.763   4.441  13.238 -0.5011 -0.5080 -1.1631
16473TIP3   OH270909   0.974   2.488   5.345 -0.2233 -0.4508  0.1745
16473TIP3    H170910   0.935   2.522   5.426 -1.2195 -3.7461  1.2393
16473TIP3    H270911   0.938   2.544   5.276 -1.2233  0.9940  1.7808
16474TIP3   OH270912   0.200   5.966  16.727 -0.1279 -0.5791 -0.1445
16474TIP3    H170913   0.118   6.015  16.732  1.4741  2.3092 -0.1362
16474TIP3    H270914   0.217   5.938  16.817 -0.3656  0.0715  0.1015
16475TIP3   OH270915   1.862   0.017   3.406 -0.2939 -0.1609  0.3189
16475TIP3    H170916   1.797   0.057   3.347  0.3929 -0.1424 -0.4407
16475TIP3    H270917   1.821  -0.065   3.433 -0.2215 -0.6542 -0.9872
16476TIP3   OH270918   5.925   3.929   2.176  0.0566  0.1926  0.3195
16476TIP3    H170919   5.905   3.972   2.093 -2.8585 -0.2475  0.6835
16476TIP3    H270920   6.018   3.905   2.169  0.4388  1.9795 -1.9265
16477TIP3   OH270921   0.160   0.289  14.140  0.1240 -0.0809 -0.1891
16477TIP3    H170922   0.091   0.329  14.194  0.0289 -3.2749  2.3625
16477TIP3    H270923   0.193   0.361  14.087 -1.5692  2.8021  2.3186
16478TIP3   OH270924   5.528   6.746  12.007 -0.1471 -0.0795  0.0323
16478TIP3    H170925   5.438   6.724  12.028 -0.2717 -1.1139 -1.3671
16478TIP3    H270926   5.558   6.801  12.079 -2.2950  1.3925 -0.1237
16479TIP3   OH270927   6.317   4.550  11.823 -0.5230  0.0711  0.4174
16479TIP3    H170928   6.343   4.560  11.914  2.1249 -0.5635 -0.1705
16479TIP3    H270929   6.318   4.639  11.787  0.2115  0.1444  0.6046
16480TIP3   OH270930   6.567   3.865   2.625  0.4732 -0.2086  1.0584
16480TIP3    H170931   6.477   3.881   2.595  0.8177  1.0632  0.6602
16480TIP3    H270932   6.622   3.913   2.564  1.4787 -1.3235  1.0443
16481TIP3   OH270933   3.617   4.127  14.019 -0.5109 -0.4768 -0.4008
16481TIP3    H170934   3.625   4.154  13.928 -2.8272  0.3652 -0.4292
16481TIP3    H270935   3.707   4.121  14.050  0.3196 -0.1232 -2.5409
16482TIP3   OH270936   0.912   5.997  12.435 -0.0466  0.3464 -0.1022
16482TIP3    H170937   0.894   5.903  12.442  1.2940  0.1559  1.0586
16482TIP3    H270938   0.871   6.022  12.352 -2.3722 -0.7810  0.6065
16483TIP3   OH270939   6.607   5.125   0.228 -0.0886  0.5698 -0.3571
16483TIP3    H170940   6.568   5.053   0.277 -0.1549  0.6341 -0.3168
16483TIP3    H270941   6.555   5.132   0.148  0.1256  0.3501 -0.5189
16484TIP3   OH270942   3.365   4.922  13.665  0.1196 -0.1503 -0.6029
16484TIP3    H170943   3.272   4.923  13.684  0.2580  0.1210  0.0828
16484TIP3    H270944   3.385   4.830  13.650 -0.0026 -0.3922  0.6038
16485TIP3   OH270945   2.434   3.542   3.329  0.5732 -0.1866  0.2983
16485TIP3    H170946   2.380   3.509   3.400  1.5633 -2.2778  0.1616
16485TIP3    H270947   2.435   3.471   3.264  3.5999 -0.4020  0.4162
16486TIP3   OH270948   5.277   2.011   0.356 -0.3939 -0.1651  0.7442
16486TIP3    H170949   5.299   1.933   0.305  2.2077  0.4417  0.8205
16486TIP3    H270950   5.361   2.047   0.382 -1.5501  2.2318  1.4195
16487TIP3   OH270951   2.731   6.664   5.885 -0.3086 -0.1829  0.4001
16487TIP3    H170952   2.663   6.597   5.889 -0.2106 -0.2541  1.0864
16487TIP3    H270953   2.704   6.730   5.950 -0.3695  0.4137 -0.2188
16488TIP3   OH270954   1.871   3.994   2.938  1.0366 -0.6039  0.3555
16488TIP3    H170955   1.960   4.013   2.908  0.3453 -1.5190 -2.5728
16488TIP3    H270956   1.857   3.902   2.915 -0.2048 -0.9187  2.1249
16489TIP3   OH270957   4.879   0.799   5.959  0.0213  0.5909 -0.5257
16489TIP3    H170958   4.945   0.851   6.005  0.7368 -0.2386 -0.5821
16489TIP3    H270959   4.803   0.799   6.017  0.8018 -0.1791  0.5449
16490TIP3   OH270960   6.422   6.682   0.309  0.5141 -0.4084 -0.4197
16490TIP3    H170961   6.475   6.614   0.268  0.0204 -0.7947 -0.4155
16490TIP3    H270962   6.339   6.680   0.261  0.8954  0.9703 -1.1935
16491TIP3   OH270963   5.424   3.750  14.395 -0.1359 -0.4458  0.2227
16491TIP3    H170964   5.451   3.754  14.303 -0.5807  1.1407  0.1340
16491TIP3    H270965   5.340   3.795  14.398 -0.9244 -1.8978  1.1624
16492TIP3   OH270966   3.625   3.433  16.704 -0.0107  0.6832 -0.3067
16492TIP3    H170967   3.665   3.346  16.713  0.9558  0.9975 -1.2283
16492TIP3    H270968   3.615   3.464  16.794  1.4429  0.3941 -0.0059
16493TIP3   OH270969   5.296   5.601   3.877  0.5028  0.1939 -0.8598
16493TIP3    H170970   5.279   5.558   3.960 -3.8425  0.3828 -1.4611
16493TIP3    H270971   5.328   5.532   3.820  2.3808 -0.1790  0.5398
16494TIP3   OH270972   0.146   1.903  12.452 -0.0864  0.4523  0.2228
16494TIP3    H170973   0.133   1.996  12.467 -1.0160  0.3004  0.4579
16494TIP3    H270974   0.080   1.861  12.507  1.1120 -0.3968  1.0553
16495TIP3   OH270975   1.630   5.578   5.775 -0.2243  0.0519  0.1553
16495TIP3    H170976   1.663   5.581   5.865  0.0847  1.1160  0.0221
16495TIP3    H270977   1.603   5.667   5.756 -1.8768 -0.4990 -0.2551
16496TIP3   OH270978   6.508   3.691  13.002  0.0976  0.3085  0.1437
16496TIP3    H170979   6.539   3.768  13.049  1.0017 -0.9468  1.6816
16496TIP3    H270980   6.413   3.694  13.011  0.2303  0.3263  1.7055
16497TIP3   OH270981   0.434   3.255   5.365 -0.2874 -0.2460 -0.2059
16497TIP3    H170982   0.481   3.268   5.282  0.1481 -0.1413  0.0523
16497TIP3    H270983   0.497   3.281   5.432 -0.7424 -0.0417  0.1477
16498TIP3   OH270984   3.304   5.639   0.178 -0.5440  0.5537 -0.5269
16498TIP3    H170985   3.241   5.590   0.125 -0.1230 -1.6992  0.9419
16498TIP3    H270986   3.287   5.611   0.268  1.9146  0.6166  0.0192
16499TIP3   OH270987   6.357   2.970   1.960  0.3799 -0.3319 -0.4580
16499TIP3    H170988   6.336   2.925   2.042  0.6270  0.2167 -0.0862
16499TIP3    H270989   6.319   3.057   1.970 -0.0353 -0.4335 -1.1406
16500TIP3   OH270990   5.532   3.824  13.168 -0.0114 -0.7034  0.3051
16500TIP3    H170991   5.532   3.737  13.128 -1.0029 -0.9924  0.9066
16500TIP3    H270992   5.474   3.876  13.113 -0.2659 -0.7132  0.5679
16501TIP3   OH270993   2.287   0.314   2.131 -0.5980  0.2923  0.1026
16501TIP3    H170994   2.230   0.281   2.201 -0.4712  0.5655  0.3390
16501TIP3    H270995   2.375   0.290   2.159 -0.6802 -1.3719 -0.9422
16502TIP3   OH270996   4.286   3.579   6.021  0.2162 -0.5706 -0.1102
16502TIP3    H170997   4.355   3.624   6.069 -0.5676  0.1561  0.3586
16502TIP3    H270998   4.230   3.542   6.089 -0.2908 -0.4799 -0.4723
16503TIP3   OH270999   6.825   3.678   1.161 -0.5005  0.8765 -0.3112
16503TIP3    H171000   6.875   3.705   1.084  1.7171  0.5664  0.9450
16503TIP3    H271001   6.865   3.727   1.233 -1.1777 -0.3695  0.9448
16504TIP3   OH271002   4.768   1.697  13.341  0.3064 -0.3047 -0.1329
16504TIP3    H171003   4.810   1.677  13.258  0.3747 -1.3699  0.1358
16504TIP3    H271004   4.806   1.634  13.403 -0.2248  0.0313  0.5567
16505TIP3   OH271005   3.734   2.742  14.842  0.4119  0.5137 -0.7594
16505TIP3    H171006   3.663   2.797  14.809  0.7350  1.0830 -0.5199
16505TIP3    H271007   3.701   2.708  14.926 -0.6006 -1.3193 -1.8343
16506TIP3   OH271008   2.975   2.689  14.476 -0.7223  0.5813 -0.6209
16506TIP3    H171009   3.015   2.615  14.521  0.6126  1.8880  0.4108
16506TIP3    H271010   2.993   2.674  14.383  0.6568  0.2461 -0.3142
16507TIP3   OH271011   3.624   0.052   4.937  0.0928  0.6959 -0.7743
16507TIP3    H171012   3.619   0.138   4.979  0.7739 -0.0266  0.9236
16507TIP3    H271013   3.667  -0.003   5.003  0.1468 -0.8151 -2.0262
16508TIP3   OH271014   2.651   5.155  11.387  0.5683 -0.1639 -0.6836
16508TIP3    H171015   2.675   5.064  11.366 -0.9252 -0.3049 -1.9873
16508TIP3    H271016   2.609   5.187  11.307 -0.5924  1.0693  0.3783
16509TIP3   OH271017   2.904   5.778  13.966 -0.0589 -0.6748  0.1654
16509TIP3    H171018   2.970   5.848  13.970  0.4397 -0.9345 -2.1483
16509TIP3    H271019   2.829   5.813  14.013  0.6696  0.8650  0.2358
16510TIP3   OH271020   6.668   1.913  12.108  0.1327 -0.3191 -0.0933
16510TIP3    H171021   6.692   1.974  12.038  1.8587 -1.7752 -0.8563
16510TIP3    H271022   6.727   1.934  12.180 -0.4321  0.0104  0.2791
16511TIP3   OH271023   5.584   2.831   2.222 -0.1382  0.1704  0.4867
16511TIP3    H171024   5.639   2.881   2.282  0.1968  0.0760  0.2598
16511TIP3    H271025   5.555   2.894   2.157  1.6135 -0.2272 -0.7499
16512TIP3   OH271026   6.651   2.427  15.528 -0.5547 -0.0002 -0.2762
16512TIP3    H171027   6.583   2.363  15.506 -1.3320  0.9020 -0.5301
16512TIP3    H271028   6.732   2.389  15.492 -0.4279 -2.2503  2.0831
16513TIP3   OH271029   1.636   2.473  13.011 -0.4370 -0.2648  0.1470
16513TIP3    H171030   1.696   2.435  13.074 -0.5615 -0.0157  0.4135
16513TIP3    H271031   1.587   2.398  12.977 -0.6442 -0.3507  0.6339
16514TIP3   OH271032   0.238   2.992  13.843  0.1621 -0.8111  0.1179
16514TIP3    H171033   0.177   3.033  13.783  1.0673  1.0706  0.3997
16514TIP3    H271034   0.202   3.010  13.930 -0.2522 -2.0430  0.2262
16515TIP3   OH271035   5.068   2.926  16.257  0.1989  0.2636 -0.2333
16515TIP3    H171036   5.106   2.905  16.343 -0.3107 -0.8326 -0.2608
16515TIP3    H271037   5.084   2.848  16.204  0.2914  0.8353 -1.0778
16516TIP3   OH271038   0.142   6.528   5.962 -0.4247 -0.1049 -0.1237
16516TIP3    H171039   0.184   6.533   6.048  0.3026 -1.2677 -0.3918
16516TIP3    H271040   0.117   6.436   5.954 -0.9088  0.0955 -0.9738
16517TIP3   OH271041   5.734   0.508   2.799  0.2302  0.0064 -0.2853
16517TIP3    H171042   5.774   0.465   2.874 -0.4271  0.3825  0.2839
16517TIP3    H271043   5.674   0.572   2.836 -1.4821 -1.0392 -1.1136
16518TIP3   OH271044   3.631   0.870   4.529  0.3999 -0.0815  0.4495
16518TIP3    H171045   3.662   0.832   4.611 -0.2373 -1.9644 -0.1190
16518TIP3    H271046   3.559   0.813   4.502 -0.8878  1.8011 -0.3084
16519TIP3   OH271047   2.957   4.722  12.425  0.9093  0.0084  0.6302
16519TIP3    H171048   2.941   4.728  12.519  1.3809  0.3036  0.6958
16519TIP3    H271049   3.013   4.644  12.416  3.3387  1.6262  0.9450
16520TIP3   OH271050   5.065   6.327  11.759 -0.0753 -0.1663 -0.2162
16520TIP3    H171051   5.098   6.376  11.834 -1.4770  1.8789 -0.8535
16520TIP3    H271052   5.069   6.389  11.686  2.4868 -2.4613 -2.2568
16521TIP3   OH271053   3.446   2.483  11.484  0.3129  0.7025  0.4386
16521TIP3    H171054   3.528   2.445  11.516  0.2032  0.5156  0.5040
16521TIP3    H271055   3.399   2.408  11.447  0.4300  0.9125 -0.1432
16522TIP3   OH271056   3.278   0.325   4.494 -0.0645 -0.3903 -0.0693
16522TIP3    H171057   3.211   0.380   4.534  1.0117  0.9844 -0.0885
16522TIP3    H271058   3.230   0.268   4.434 -1.3924 -0.6587  1.2009
16523TIP3   OH271059   5.865   0.710   1.306 -0.0672  0.1596  0.1359
16523TIP3    H171060   5.955   0.691   1.335  0.4633  0.9339 -0.9278
16523TIP3    H271061   5.818   0.730   1.386  0.3028 -1.7900  0.8875
16524TIP3   OH271062   6.521   3.759  16.041 -0.0450  0.5775  0.2669
16524TIP3    H171063   6.603   3.776  16.086  0.1712  1.9850 -0.5922
16524TIP3    H271064   6.456   3.809  16.091  0.1114  1.7321 -0.6566
16525TIP3   OH271065   4.345   0.691   3.356 -0.8061 -0.2862  0.0823
16525TIP3    H171066   4.378   0.763   3.303 -0.6109 -1.0183 -0.8113
16525TIP3    H271067   4.265   0.663   3.312 -0.8713 -0.6356  0.4150
16526TIP3   OH271068   4.235   2.748  16.147  0.8296  0.1356 -0.3390
16526TIP3    H171069   4.325   2.777  16.132  0.0775  1.9896 -1.7521
16526TIP3    H271070   4.192   2.759  16.062 -0.3371 -2.4298 -0.1923
16527TIP3   OH271071   2.141   2.319   6.633  0.0734  0.1028 -0.0511
16527TIP3    H171072   2.176   2.380   6.698 -2.5184 -0.2694  1.9062
16527TIP3    H271073   2.208   2.251   6.625  1.1827  1.0299  0.9810
16528TIP3   OH271074   2.128   4.671  16.904  0.4885  1.0815  0.0334
16528TIP3    H171075   2.124   4.742  16.967  0.7163  0.3776  0.8617
16528TIP3    H271076   2.038   4.663  16.871  0.5636  2.0506 -0.4229
16529TIP3   OH271077   6.468   1.135   2.042 -0.0299  0.5100 -0.6882
16529TIP3    H171078   6.464   1.041   2.026  3.0432  0.2310 -0.5411
16529TIP3    H271079   6.378   1.166   2.034 -1.0767 -2.3827 -1.0053
16530TIP3   OH271080   6.697   3.263   1.190  0.5179  0.3115  0.0697
16530TIP3    H171081   6.728   3.249   1.280  1.2402 -1.0258 -0.3504
16530TIP3    H271082   6.664   3.352   1.189 -2.1354 -0.5009  2.4283
16531TIP3   OH271083   6.258   5.856  15.994 -0.4920 -0.0444  0.6140
16531TIP3    H171084   6.323   5.915  16.032  0.5338 -0.6320 -0.1871
16531TIP3    H271085   6.174   5.894  16.020  0.1457  0.0732  2.6811
16532TIP3   OH271086   4.029   6.111   0.728 -0.3774 -0.1445 -0.3996
16532TIP3    H171087   4.037   6.157   0.811 -1.8458 -0.5683  0.0198
16532TIP3    H271088   3.973   6.167   0.674  0.5636  0.1289 -1.1256
16533TIP3   OH271089   3.187   6.191  15.346 -0.2068  0.1265 -0.0924
16533TIP3    H171090   3.114   6.196  15.408 -0.2835 -0.2309 -0.1560
16533TIP3    H271091   3.263   6.221  15.396 -0.3267  0.1321  0.0857
16534TIP3   OH271092   5.906   6.111  17.058  0.0811 -0.1066 -0.1763
16534TIP3    H171093   5.945   6.191  17.022  1.3043 -1.0432 -1.0155
16534TIP3    H271094   5.955   6.097  17.140 -0.9531  0.6314  0.5901
16535TIP3   OH271095   4.902   1.948   5.759 -0.6293  0.0267  0.1299
16535TIP3    H171096   4.849   1.989   5.827 -1.2491 -1.3453  0.5100
16535TIP3    H271097   4.850   1.957   5.679 -1.1492 -0.6939  0.3690
16536TIP3   OH271098   1.634   5.287   1.408  0.1946  0.3468  0.2306
16536TIP3    H171099   1.554   5.322   1.371 -0.4512 -1.7555 -0.4977
16536TIP3    H271100   1.642   5.329   1.494 -1.2175  1.1960 -0.0350
16537TIP3   OH271101   4.861   5.942  16.003 -0.6370  0.4450  0.1981
16537TIP3    H171102   4.887   6.034  16.003  0.1323  0.2405  0.5431
16537TIP3    H271103   4.868   5.915  15.911  0.5813  0.3523  0.3053
16538TIP3   OH271104   0.329   0.378  15.986  0.5056  0.3244  0.2506
16538TIP3    H171105   0.259   0.324  15.947 -0.4737 -0.1018  2.4363
16538TIP3    H271106   0.404   0.319  15.991 -0.2583 -0.5904  1.6916
16539TIP3   OH271107   5.397   1.875   1.924 -0.3518 -0.2029  0.3087
16539TIP3    H171108   5.438   1.796   1.891  0.2125 -0.5235  1.7077
16539TIP3    H271109   5.306   1.849   1.941 -0.5051 -0.1803 -0.4240
16540TIP3   OH271110   0.941   0.074   4.451 -0.1947 -0.6492  0.5897
16540TIP3    H171111   1.022   0.120   4.472 -0.3371 -1.5125  3.4958
16540TIP3    H271112   0.953  -0.014   4.489 -1.5824 -1.6031 -1.0284
16541TIP3   OH271113   6.582   1.752  14.837 -0.2433 -0.2952  0.1047
16541TIP3    H171114   6.566   1.846  14.842  1.0943  0.0071 -0.9169
16541TIP3    H271115   6.626   1.739  14.753 -1.1189 -1.9556 -0.1527
16542TIP3   OH271116   2.163   2.611   5.331  0.1013  0.5302  0.3621
16542TIP3    H171117   2.231   2.581   5.391  1.3428  1.2874 -0.6056
16542TIP3    H271118   2.181   2.564   5.249 -1.5248 -0.4467  0.5214
16543TIP3   OH271119   6.619   4.505  17.150  0.5570  0.0733  0.1419
16543TIP3    H171120   6.576   4.427  17.184  1.9288 -0.5669  0.4920
16543TIP3    H271121   6.595   4.508  17.058  0.6222 -0.8751  0.0844
16544TIP3   OH271122   6.627   6.093   6.585  0.4072 -0.2584  0.5465
16544TIP3    H171123   6.539   6.122   6.610  0.2229  0.0834 -0.4490
16544TIP3    H271124   6.665   6.168   6.539  1.0575 -0.5533  0.5927
16545TIP3   OH271125   6.054   4.605   1.056  0.0580  0.7437  0.1551
16545TIP3    H171126   6.095   4.673   1.003  0.9461 -0.5010 -0.8100
16545TIP3    H271127   6.051   4.529   0.999  0.8049 -0.5842  1.7973
16546TIP3   OH271128   2.419   2.797  14.363 -0.3954 -0.1992  0.2957
16546TIP3    H171129   2.361   2.720  14.365 -0.8066  0.0910  2.8542
16546TIP3    H271130   2.501   2.766  14.402  0.5823 -0.1177 -1.5975
16547TIP3   OH271131   1.824   3.525   3.887  0.1004 -0.3030  0.3289
16547TIP3    H171132   1.856   3.591   3.825  1.7307 -0.2901  1.1246
16547TIP3    H271133   1.812   3.447   3.834  0.3845  0.0212 -0.2249
16548TIP3   OH271134   1.769   3.518  11.297 -0.3941 -0.5961 -0.0221
16548TIP3    H171135   1.831   3.474  11.239  0.2596  1.0751 -0.6725
16548TIP3    H271136   1.753   3.602  11.255 -2.5019 -0.6621  0.5632
16549TIP3   OH271137   5.269   6.513   5.209 -0.5709 -0.2781  0.2163
16549TIP3    H171138   5.355   6.472   5.221  0.1181  1.0061 -0.1353
16549TIP3    H271139   5.221   6.452   5.153  0.2372 -0.8555  0.1361
16550TIP3   OH271140   2.182   1.635  17.057 -0.0382  0.4328 -0.0117
16550TIP3    H171141   2.252   1.593  17.107 -0.2898 -1.4846 -1.1665
16550TIP3    H271142   2.146   1.701  17.117  1.1714 -0.1803  1.4631
16551TIP3   OH271143   6.623   2.389   4.913  0.0919  0.2033  0.2866
16551TIP3    H171144   6.607   2.304   4.954  0.5009  0.0467  0.1300
16551TIP3    H271145   6.573   2.451   4.966  1.1236  0.1046  1.4463
16552TIP3   OH271146   5.795   5.530   0.361 -0.0927  0.5121  0.3700
16552TIP3    H171147   5.859   5.542   0.431  2.8137 -0.0561 -1.9570
16552TIP3    H271148   5.774   5.437   0.363  1.5725  0.0832 -0.6964
16553TIP3   OH271149   5.044   0.074  15.977  0.3112 -0.1605 -0.3707
16553TIP3    H171150   5.137   0.086  15.960  0.4474  1.5275  1.3120
16553TIP3    H271151   5.012   0.160  16.003 -1.4780 -0.9374  0.1901
16554TIP3   OH271152   6.704   3.604  12.295  0.5506  0.4876 -0.0199
16554TIP3    H171153   6.788   3.588  12.252  0.8765 -0.6790  1.0085
16554TIP3    H271154   6.712   3.694  12.329  0.9378  0.7919 -0.8802
16555TIP3   OH271155   3.480   3.560   5.362  0.1682  0.2335  0.3481
16555TIP3    H171156   3.571   3.552   5.332 -0.2020  0.4294 -0.8607
16555TIP3    H271157   3.472   3.650   5.391  0.0980  0.5067 -0.4891
16556TIP3   OH271158   0.402   6.652  14.239 -1.0492 -0.8730 -0.3865
16556TIP3    H171159   0.454   6.621  14.165 -0.7870 -0.7947 -0.2352
16556TIP3    H271160   0.411   6.747  14.236 -2.4118 -0.7515 -1.2624
16557TIP3   OH271161   5.406   2.428  15.926  0.1391  0.2656 -0.1063
16557TIP3    H171162   5.464   2.352  15.938  0.9507  0.9824  0.6571
16557TIP3    H271163   5.426   2.459  15.837 -0.6433 -0.7542 -0.6621
16558TIP3   OH271164   3.174   2.443  12.865 -0.6330 -0.2402  0.0441
16558TIP3    H171165   3.225   2.508  12.913 -0.2947 -1.7509  1.8756
16558TIP3    H271166   3.232   2.367  12.860 -1.1832 -0.5774 -1.6204
16559TIP3   OH271167   4.763   5.988  13.623 -0.0235  0.1261 -0.0132
16559TIP3    H171168   4.841   6.040  13.606  0.3980 -0.7909 -0.9580
16559TIP3    H271169   4.691   6.042  13.592  0.1062  1.3718  1.6952
16560TIP3   OH271170   1.410   1.873  16.266 -0.3055 -0.0569 -0.0283
16560TIP3    H171171   1.391   1.961  16.300  2.0334  0.0946  1.1223
16560TIP3    H271172   1.344   1.817  16.307 -1.4420  1.0602 -0.2786
16561TIP3   OH271173   4.954   0.068  12.200 -0.3766 -0.3742  0.6995
16561TIP3    H171174   5.021   0.005  12.228 -0.3867 -0.5969  0.2280
16561TIP3    H271175   4.972   0.083  12.107  0.8326  1.8149  1.2097
16562TIP3   OH271176   1.292   3.807  14.783 -0.2847 -0.2777  0.1933
16562TIP3    H171177   1.332   3.893  14.798 -0.7944 -0.2413  1.4651
16562TIP3    H271178   1.299   3.762  14.867  0.1835 -1.5897 -0.5187
16563TIP3   OH271179   2.801   5.872   0.983 -0.1547  0.1622 -0.5409
16563TIP3    H171180   2.769   5.945   1.037 -2.1829 -0.9475 -0.1271
16563TIP3    H271181   2.848   5.816   1.045 -1.3680 -0.4602 -0.1501
16564TIP3   OH271182   5.210   1.284   3.431 -0.2309 -0.0877 -0.2713
16564TIP3    H171183   5.250   1.359   3.387  0.0555 -0.3347 -0.4307
16564TIP3    H271184   5.281   1.222   3.442 -0.7566 -0.9109 -1.3773
16565TIP3   OH271185   3.071   5.299  11.723  0.2081 -0.0267  0.0188
16565TIP3    H171186   2.996   5.349  11.756 -0.4218  0.3333 -1.8441
16565TIP3    H271187   3.034   5.236  11.661  1.2286 -1.3714  0.7112
16566TIP3   OH271188   5.906   6.260   2.716  0.0590 -0.0466  0.1138
16566TIP3    H171189   5.842   6.208   2.667 -0.1094 -0.6858  0.9868
16566TIP3    H271190   5.853   6.327   2.761 -0.0646 -0.8119  1.1405
16567TIP3   OH271191   1.614   4.101  13.503 -0.2860  0.0949  0.2542
16567TIP3    H171192   1.669   4.070  13.431 -0.6186 -0.7157  0.3422
16567TIP3    H271193   1.582   4.021  13.545  0.5146  0.5289  1.7912
16568TIP3   OH271194   0.392   4.636  14.992 -0.4781  0.2300 -0.2438
16568TIP3    H171195   0.402   4.556  15.044  2.1750  1.1241  0.7751
16568TIP3    H271196   0.366   4.703  15.055 -1.9664  0.3788 -0.9649
16569TIP3   OH271197   6.045   4.761  11.081  0.3565 -0.3379  0.2908
16569TIP3    H171198   6.088   4.675  11.082  1.5409  0.1512 -2.1468
16569TIP3    H271199   5.974   4.752  11.144  2.0269 -2.2438  2.0834
16570TIP3   OH271200   1.242   5.557  15.482  0.1068 -0.2880  0.1289
16570TIP3    H171201   1.206   5.475  15.514 -1.3274  0.1635 -0.2579
16570TIP3    H271202   1.299   5.532  15.409 -0.8874 -0.9086 -0.4586
16571TIP3   OH271203   4.383   6.515  13.642 -0.4828 -0.4701  0.3605
16571TIP3    H171204   4.349   6.603  13.627 -0.7722 -0.3642  1.5230
16571TIP3    H271205   4.432   6.494  13.563 -2.1917 -0.1207 -0.8489
16572TIP3   OH271206   6.050   2.787  12.707  0.1847 -0.4484  0.1882
16572TIP3    H171207   6.075   2.717  12.647 -1.2593  0.4628 -1.5345
16572TIP3    H271208   5.998   2.847  12.655 -0.6133  0.7219  2.2141
16573TIP3   OH271209   1.072   2.577   2.826  0.2593 -0.3746  0.0090
16573TIP3    H171210   1.030   2.517   2.764  2.0798  0.3871 -2.0898
16573TIP3    H271211   1.134   2.626   2.774 -0.3176  2.5952  1.8877
16574TIP3   OH271212   2.496   5.812   0.080  0.5620  0.0440  0.5909
16574TIP3    H171213   2.428   5.836   0.143  1.6977  0.5879  1.6656
16574TIP3    H271214   2.518   5.722   0.102 -0.2483 -0.3557 -0.1891
16575TIP3   OH271215   0.997   4.919   3.120  0.0461 -0.3774  0.3130
16575TIP3    H171216   0.923   4.858   3.124  0.2025 -0.5640  0.3752
16575TIP3    H271217   1.001   4.957   3.208  0.1953 -0.5743  0.3942
16576TIP3   OH271218   2.856   1.244   5.571  0.2462 -0.5600 -0.4668
16576TIP3    H171219   2.945   1.214   5.553 -0.0656 -1.7731 -0.0964
16576TIP3    H271220   2.865   1.307   5.642  0.6862 -1.6958  0.5058
16577TIP3   OH271221   6.289   4.705  10.577 -0.4897  0.2018 -0.0214
16577TIP3    H171222   6.288   4.734  10.486 -1.2388 -0.9092 -0.3844
16577TIP3    H271223   6.200   4.722  10.609 -0.2963  0.3671  0.4367
16578TIP3   OH271224   6.578   5.161   2.046 -0.7492 -0.4504 -0.4230
16578TIP3    H171225   6.495   5.150   2.093 -1.2111 -0.9164 -1.3260
16578TIP3    H271226   6.645   5.157   2.115 -1.3733 -1.6370  0.1565
16579TIP3   OH271227   3.023   5.965   3.382 -0.2188 -0.4111 -0.3450
16579TIP3    H171228   3.094   5.908   3.411  1.5938  1.6749 -0.4496
16579TIP3    H271229   2.988   6.002   3.462  1.2553  1.2827 -0.4262
16580TIP3   OH271230   4.095   5.534   2.203  0.2343 -0.5982  0.2897
16580TIP3    H171231   4.136   5.566   2.283 -0.0884 -1.2269  0.7182
16580TIP3    H271232   4.019   5.484   2.234 -0.8298  0.5004 -0.4846
16581TIP3   OH271233   0.934   5.261  12.408 -0.6008  0.6553  0.0442
16581TIP3    H171234   0.892   5.255  12.322  0.2656 -0.2098 -0.3437
16581TIP3    H271235   0.987   5.341  12.404 -0.3709  0.4894 -0.3312
16582TIP3   OH271236   2.612   4.116  13.731  0.2774  0.6711 -0.4857
16582TIP3    H171237   2.705   4.138  13.732  0.9051 -1.7194  0.4686
16582TIP3    H271238   2.609   4.022  13.712 -2.1966  1.3410 -5.0096
16583TIP3   OH271239   6.216   5.727   5.080  0.1614  0.3001  0.0450
16583TIP3    H171240   6.231   5.732   5.174  0.8113  1.5050 -0.0968
16583TIP3    H271241   6.223   5.634   5.059  1.3418  0.1568  0.9817
16584TIP3   OH271242   4.043   6.132  15.966  0.5986  0.0848 -0.1168
16584TIP3    H171243   3.999   6.056  16.005  0.9441  0.3690  0.8796
16584TIP3    H271244   3.975   6.199  15.961  0.5375  0.0309 -0.0268
16585TIP3   OH271245   0.030   6.656   2.754  0.5547 -0.2179  0.6388
16585TIP3    H171246  -0.027   6.699   2.691 -0.3346 -1.4588  0.5732
16585TIP3    H271247   0.113   6.704   2.747 -0.6513  2.1263  1.2864
16586TIP3   OH271248   6.802   5.577   0.172  0.6121 -0.4713 -0.5719
16586TIP3    H171249   6.875   5.574   0.234  1.1592  0.3842 -1.1590
16586TIP3    H271250   6.811   5.496   0.121  3.1778  1.0240 -2.8338
16587TIP3   OH271251   1.122   4.521  11.050 -0.0771 -0.8061 -0.1603
16587TIP3    H171252   1.045   4.476  11.016 -0.8825  0.3895  0.0250
16587TIP3    H271253   1.185   4.518  10.978 -0.1791 -2.0289 -0.2152
16588TIP3   OH271254   6.454   3.169  16.683  0.3726 -0.3693 -0.3088
16588TIP3    H171255   6.476   3.260  16.704 -0.1095 -0.2281 -0.4162
16588TIP3    H271256   6.403   3.138  16.758 -0.8888 -0.0314 -1.0153
16589TIP3   OH271257   4.957   0.884  11.273  0.0249 -0.0554 -0.4651
16589TIP3    H171258   4.966   0.856  11.182 -0.3302  1.1699 -0.8972
16589TIP3    H271259   5.039   0.857  11.315  0.1393 -0.7393 -1.1100
16590TIP3   OH271260   2.910   2.849  12.684 -0.2626  0.1180 -0.0825
16590TIP3    H171261   2.898   2.888  12.771 -0.6122  0.3253 -0.2189
16590TIP3    H271262   2.895   2.922  12.624 -0.9676 -0.2305 -0.3438
16591TIP3   OH271263   2.876   3.551   3.513 -0.0386 -0.0195  0.2920
16591TIP3    H171264   2.901   3.480   3.573 -0.0776 -0.1262  0.1835
16591TIP3    H271265   2.807   3.512   3.458  0.7621 -0.2830 -0.5652
16592TIP3   OH271266   4.210   0.223  13.290 -0.1756  0.0960 -0.1373
16592TIP3    H171267   4.305   0.214  13.301 -0.2933 -0.5558  0.3813
16592TIP3    H271268   4.200   0.259  13.201  0.4711 -3.0467 -1.6470
16593TIP3   OH271269   2.529   0.878  14.552 -0.2234 -0.6970 -0.4443
16593TIP3    H171270   2.580   0.852  14.475  2.4022  0.0789  0.9111
16593TIP3    H271271   2.593   0.917  14.611 -2.6151  1.4014  0.9768
16594TIP3   OH271272   1.145   3.735   5.911  0.2701  0.1102 -0.4864
16594TIP3    H171273   1.172   3.820   5.947  2.2734 -0.6475 -0.0622
16594TIP3    H271274   1.139   3.678   5.988 -1.1029 -0.1530 -0.7637
16595TIP3   OH271275   6.074   2.112   2.874 -0.7442  0.0455 -0.1854
16595TIP3    H171276   6.159   2.153   2.863  0.3018 -0.9947  2.7797
16595TIP3    H271277   6.015   2.184   2.896 -0.1231  0.5447 -0.1300
16596TIP3   OH271278   1.699   0.796  13.027 -0.2466 -0.4129 -0.6003
16596TIP3    H171279   1.658   0.879  13.050 -1.7573 -1.3372  0.1536
16596TIP3    H271280   1.644   0.760  12.958 -0.9789 -1.8400  0.6791
16597TIP3   OH271281   1.321   1.976  12.871 -0.4438  0.2995 -0.2438
16597TIP3    H171282   1.364   1.966  12.956 -1.1687  0.6290  0.1738
16597TIP3    H271283   1.385   1.943  12.807  0.6717  1.3665  0.2947
16598TIP3   OH271284   4.615   0.302   5.879 -0.1117  0.1365 -0.0363
16598TIP3    H171285   4.558   0.230   5.903 -0.8412  0.5788 -0.3955
16598TIP3    H271286   4.701   0.262   5.866  0.2482 -0.2026  2.7611
16599TIP3   OH271287   2.454   0.427  14.337 -0.3361 -0.3871 -0.0898
16599TIP3    H171288   2.427   0.378  14.415 -0.7081 -1.3665 -0.8034
16599TIP3    H271289   2.387   0.493  14.325  0.7465  1.0833  1.5266
16600TIP3   OH271290   5.431   0.477  13.576  0.3894  0.2478  0.1868
16600TIP3    H171291   5.355   0.422  13.558  1.4401 -1.2617  0.1492
16600TIP3    H271292   5.399   0.542  13.638 -0.8262 -0.6438  0.5476
16601TIP3   OH271293   5.302   0.298  16.171  0.0806  0.3911  0.0800
16601TIP3    H171294   5.212   0.311  16.200 -0.2905  1.5941 -1.5018
16601TIP3    H271295   5.316   0.364  16.103  1.5415 -1.0005 -1.0661
16602TIP3   OH271296   2.021   1.304   4.562  0.5992  0.0722  0.6594
16602TIP3    H171297   1.961   1.370   4.598 -1.6641 -0.7777 -1.3358
16602TIP3    H271298   2.068   1.351   4.493  0.4446  0.1007  0.5734
16603TIP3   OH271299   1.478   1.294  14.416 -0.4428  0.3058  0.2121
16603TIP3    H171300   1.436   1.342  14.487 -0.9474 -0.3695  0.3880
16603TIP3    H271301   1.564   1.270  14.452  0.1167  1.6779 -0.1442
16604TIP3   OH271302   3.704   2.939  15.657  0.2174 -0.1247 -0.2985
16604TIP3    H171303   3.634   2.895  15.705 -0.9429 -0.0462 -1.8320
16604TIP3    H271304   3.689   3.032  15.671  0.2392 -0.1162 -0.3315
16605TIP3   OH271305   2.966   1.913   6.776  0.1221 -0.0294 -0.5008
16605TIP3    H171306   2.977   1.860   6.696  0.6893 -0.7074  0.0049
16605TIP3    H271307   2.982   2.003   6.748  1.4367 -0.3748 -0.9570
16606TIP3   OH271308   2.611   0.576   1.247 -0.1726  0.2559  0.0657
16606TIP3    H171309   2.662   0.626   1.311  1.9909 -1.1554 -0.4289
16606TIP3    H271310   2.608   0.632   1.170 -4.2653  2.7365  1.6788
16607TIP3   OH271311   3.284   5.313   4.950 -0.4067 -0.4177  0.0070
16607TIP3    H171312   3.211   5.330   5.010 -0.3623  2.3220 -0.5786
16607TIP3    H271313   3.347   5.383   4.967  1.9286 -2.4161  0.1355
16608TIP3   OH271314   0.549   6.197  15.268 -0.7723  0.0739  0.0330
16608TIP3    H171315   0.557   6.206  15.173 -2.3181 -1.6850 -0.3213
16608TIP3    H271316   0.529   6.286  15.298 -2.7586  0.2788 -1.6266
16609TIP3   OH271317   2.220   2.009   2.639  0.6697 -0.2323 -0.1139
16609TIP3    H171318   2.160   1.994   2.712  2.4813 -1.4118  1.2229
16609TIP3    H271319   2.212   1.931   2.584  0.5429 -0.1268 -0.2438
16610TIP3   OH271320   6.348   4.914   0.272 -0.2589  0.1108  0.0605
16610TIP3    H171321   6.273   4.903   0.330  0.4520 -1.1167  0.7753
16610TIP3    H271322   6.311   4.952   0.192 -1.6231 -0.3686  0.4373
16611TIP3   OH271323   0.889   3.708  13.688  0.1267 -0.2309 -0.0447
16611TIP3    H171324   0.923   3.778  13.743  0.2748  0.4133 -0.9354
16611TIP3    H271325   0.951   3.636  13.700  0.3735  0.0384  0.3216
16612TIP3   OH271326   5.370   1.523   2.062 -0.6690 -0.4226  0.7789
16612TIP3    H171327   5.323   1.500   1.982 -0.0251 -0.8783  0.5173
16612TIP3    H271328   5.418   1.603   2.039  1.7653 -2.0530 -0.2657
16613TIP3   OH271329   3.259   1.306   3.195 -0.2827 -0.3928 -0.0322
16613TIP3    H171330   3.272   1.233   3.134 -1.8390 -1.1333  0.4439
16613TIP3    H271331   3.337   1.306   3.250  0.2741 -0.9455 -0.8037
16614TIP3   OH271332   1.807   2.343  12.815  0.0051  0.5996 -0.4437
16614TIP3    H171333   1.781   2.428  12.849  0.8449  0.0406  1.7377
16614TIP3    H271334   1.736   2.284  12.842 -2.0563  0.9150 -4.3382
16615TIP3   OH271335   2.860   3.002   3.865  0.2217  0.6311  0.0359
16615TIP3    H171336   2.826   3.042   3.785 -0.1395  0.5801  0.1604
16615TIP3    H271337   2.869   2.909   3.843  2.3692  0.9713 -0.6932
16616TIP3   OH271338   1.515   0.909   2.555 -0.3505  0.6384 -0.7109
16616TIP3    H171339   1.522   1.003   2.535  1.9688  0.5290 -0.6966
16616TIP3    H271340   1.516   0.905   2.651  1.4238  0.5661 -0.6922
16617TIP3   OH271341   5.452   2.762   4.230  0.3321 -0.3754  0.3608
16617TIP3    H171342   5.396   2.834   4.260  0.7371  0.2293 -0.3035
16617TIP3    H271343   5.514   2.748   4.301  2.5086  2.3302 -0.8303
16618TIP3   OH271344   5.137   4.545  16.352  0.3142  0.0326 -0.0448
16618TIP3    H171345   5.055   4.517  16.392 -0.4950  0.8275 -1.0971
16618TIP3    H271346   5.188   4.583  16.424 -1.0652  1.3501  0.2762
16619TIP3   OH271347   5.745   3.443  13.007 -0.2258  0.5368  0.1802
16619TIP3    H171348   5.772   3.448  13.098  1.6662  1.9502 -0.3986
16619TIP3    H271349   5.692   3.521  12.993 -1.8177 -0.4513  0.4057
16620TIP3   OH271350   1.017   0.520   5.781  0.2652 -0.0654 -0.1060
16620TIP3    H171351   1.082   0.476   5.725  0.6624 -1.1181  1.1343
16620TIP3    H271352   0.937   0.520   5.728  0.7387 -0.6318 -0.8507
16621TIP3   OH271353   3.120   0.279   3.861 -0.0255  0.2402  0.4829
16621TIP3    H171354   3.062   0.308   3.931 -0.6474 -0.6457  0.3564
16621TIP3    H271355   3.170   0.207   3.900  1.1208  1.1093  0.6429
16622TIP3   OH271356   5.321   0.053  16.706 -0.4349  0.1960 -0.2873
16622TIP3    H171357   5.362   0.001  16.637 -1.6197 -1.3383  0.1237
16622TIP3    H271358   5.324  -0.002  16.784 -1.9653  0.5965  0.0946
16623TIP3   OH271359   4.831   0.659   3.164 -0.1469  0.3646  0.2722
16623TIP3    H171360   4.901   0.669   3.099  1.0872  1.1483  1.6532
16623TIP3    H271361   4.859   0.585   3.217 -2.4102 -1.9766 -1.5081
16624TIP3   OH271362   3.064   0.184   5.468  0.5808 -0.5625  1.0891
16624TIP3    H171363   3.021   0.100   5.484  0.3613 -1.0029 -1.4345
16624TIP3    H271364   3.158   0.165   5.475  0.6070 -1.4375 -0.9189
16625TIP3   OH271365   1.570   5.607  13.745 -0.3069  0.3543  0.1567
16625TIP3    H171366   1.493   5.557  13.717  0.0172 -0.3412  0.4907
16625TIP3    H271367   1.636   5.541  13.764  0.0187  0.8881  0.9507
16626TIP3   OH271368   3.169   1.565  11.586  0.4416 -0.6748  0.5038
16626TIP3    H171369   3.193   1.544  11.676 -0.9337 -2.5876  0.4679
16626TIP3    H271370   3.201   1.491  11.534 -0.2101 -0.3676 -0.3582
16627TIP3   OH271371   5.273   3.722   4.050 -0.1279 -0.2923  0.1631
16627TIP3    H171372   5.250   3.702   3.960  3.2193 -0.4761 -0.7761
16627TIP3    H271373   5.224   3.803   4.070 -2.6117 -1.4106 -0.9507
16628TIP3   OH271374   6.062   3.282   4.289  0.6432  0.4251 -0.0919
16628TIP3    H171375   6.085   3.213   4.226  0.3175  0.6895 -0.5046
16628TIP3    H271376   5.994   3.333   4.245  1.5149  1.5582 -0.1623
16629TIP3   OH271377   2.456   5.617   5.407 -0.6341  0.5344 -0.7926
16629TIP3    H171378   2.376   5.665   5.428 -1.3492 -1.3851  1.2196
16629TIP3    H271379   2.427   5.531   5.378  0.6817  0.5509 -2.3340
16630TIP3   OH271380   6.785   1.305  15.081 -0.1516  0.5476 -0.9427
16630TIP3    H171381   6.842   1.262  15.017 -0.5631  0.8015 -1.4898
16630TIP3    H271382   6.783   1.397  15.054 -0.6318  0.5825 -0.8000
16631TIP3   OH271383   1.027   2.011  15.035  0.5011 -0.4154 -0.3443
16631TIP3    H171384   0.977   2.090  15.055 -0.4172 -1.4087  1.6125
16631TIP3    H271385   1.032   2.009  14.940 -0.1810  1.5369 -0.4603
16632TIP3   OH271386   0.091   0.738   6.086  0.4339 -0.3649 -0.8761
16632TIP3    H171387   0.092   0.649   6.121 -0.0704 -0.0521 -0.0373
16632TIP3    H271388   0.102   0.727   5.992  0.6467 -1.2974 -0.7512
16633TIP3   OH271389   3.205   6.729  13.735  0.3584  0.2918 -0.5882
16633TIP3    H171390   3.232   6.690  13.819  0.2378  0.7185 -0.3475
16633TIP3    H271391   3.282   6.778  13.706  0.3246  0.3322 -0.6098
16634TIP3   OH271392   1.323   5.640   6.253  0.0400  0.4190 -0.2908
16634TIP3    H171393   1.230   5.638   6.277  0.0895 -1.9127 -0.0975
16634TIP3    H271394   1.335   5.563   6.198  1.4620  1.7940 -2.0338
16635TIP3   OH271395   3.850   4.580   2.820  0.6483 -0.3382  0.1088
16635TIP3    H171396   3.874   4.536   2.738  1.4271 -0.1695  0.2394
16635TIP3    H271397   3.791   4.650   2.793 -3.8472 -3.6666  0.2049
16636TIP3   OH271398   4.863   2.488  16.301  0.1931 -0.4015 -0.4883
16636TIP3    H171399   4.844   2.408  16.252 -0.5891 -1.0091  0.7365
16636TIP3    H271400   4.956   2.503  16.286  0.0812 -0.8261 -1.7401
16637TIP3   OH271401   3.039   2.226   0.831 -0.2230  0.6150 -0.6921
16637TIP3    H171402   3.075   2.281   0.761 -2.1155 -0.8769 -2.9831
16637TIP3    H271403   2.956   2.268   0.855 -0.7978 -0.2151 -1.1679
16638TIP3   OH271404   5.575   5.880   2.558 -0.3222 -0.0521 -0.9055
16638TIP3    H171405   5.537   5.847   2.477 -0.1913 -0.0717 -0.9589
16638TIP3    H271406   5.571   5.805   2.618  0.5571 -0.3602 -1.2214
16639TIP3   OH271407   5.130   0.524   0.198  0.5146 -1.1353  0.3843
16639TIP3    H171408   5.172   0.610   0.190 -2.5691  0.6243  1.4474
16639TIP3    H271409   5.195   0.470   0.243  1.6775  1.4305  2.0462
16640TIP3   OH271410   2.993   5.899   5.075 -0.7899 -0.3168 -0.1208
16640TIP3    H171411   3.044   5.970   5.112 -0.5381 -0.5594  0.0015
16640TIP3    H271412   2.922   5.884   5.138 -0.9122 -0.0975 -0.2051
16641TIP3   OH271413   0.687   3.245  14.171  0.0650 -0.2572 -0.2731
16641TIP3    H171414   0.626   3.184  14.213  1.5112 -0.4412  1.7601
16641TIP3    H271415   0.755   3.189  14.134 -0.9203 -0.0567 -2.5428
16642TIP3   OH271416   4.182   3.148  13.963  0.4267  0.0146 -0.4215
16642TIP3    H171417   4.132   3.200  13.901 -0.7779 -0.1390  0.3848
16642TIP3    H271418   4.197   3.206  14.038  0.2008 -0.3772 -0.0643
16643TIP3   OH271419   1.552   3.119   0.687  0.3415  0.7129 -0.5928
16643TIP3    H171420   1.575   3.135   0.596 -1.3350 -1.0586 -1.3870
16643TIP3    H271421   1.462   3.087   0.684  0.1697  0.8090  1.7159
16644TIP3   OH271422   6.258   5.970   4.331 -0.8287  0.3736 -0.0207
16644TIP3    H171423   6.341   5.922   4.325 -1.6574 -1.0399 -0.8691
16644TIP3    H271424   6.241   5.979   4.424  0.2341  0.6161  0.1576
16645TIP3   OH271425   3.382   3.739  15.804  0.1463 -0.0246 -0.6081
16645TIP3    H171426   3.460   3.785  15.837 -0.6740  0.2630  1.0292
16645TIP3    H271427   3.403   3.721  15.712  2.4129 -0.5521 -0.0593
16646TIP3   OH271428   1.859   5.719  12.586 -0.0999 -0.3766  0.4576
16646TIP3    H171429   1.935   5.767  12.552 -0.0728 -1.2085 -0.7058
16646TIP3    H271430   1.842   5.652  12.520 -0.3048 -1.7997  1.8987
16647TIP3   OH271431   1.272   6.655  15.989 -0.1940 -0.5632  0.2916
16647TIP3    H171432   1.282   6.738  16.035  1.6279 -1.0601  0.9075
16647TIP3    H271433   1.349   6.650  15.932 -0.3967 -1.7127  0.0866
16648TIP3   OH271434   1.975   0.496  15.409 -0.2088 -0.2474  0.1126
16648TIP3    H171435   1.989   0.403  15.429  1.7058 -0.0054  0.1124
16648TIP3    H271436   1.900   0.497  15.349  0.7002 -1.9622 -1.1459
16649TIP3   OH271437   0.742   1.148   3.716  0.0525 -0.2912  0.0959
16649TIP3    H171438   0.812   1.161   3.653  1.1611 -0.0273  1.3307
16649TIP3    H271439   0.678   1.217   3.696 -0.6921 -1.5228 -2.0736
16650TIP3   OH271440   0.604   4.618  11.676  0.1676 -0.0638  0.3971
16650TIP3    H171441   0.589   4.617  11.581 -0.2792  0.1886  0.4625
16650TIP3    H271442   0.599   4.526  11.702  0.9370 -0.2094  0.0861
16651TIP3   OH271443   2.216   1.623  14.845  0.3132  0.8082  0.6081
16651TIP3    H171444   2.234   1.599  14.754  2.7484  1.2425  0.9215
16651TIP3    H271445   2.299   1.659  14.877  0.1604 -1.2270  3.6194
16652TIP3   OH271446   4.680   3.113   1.628  0.5273 -0.5674  0.0162
16652TIP3    H171447   4.698   3.107   1.722 -0.1334  1.3705  0.3183
16652TIP3    H271448   4.588   3.138   1.623  0.6714 -0.2346 -1.1192
16653TIP3   OH271449   2.025   0.820   3.716  0.2791  0.3610 -0.3621
16653TIP3    H171450   2.055   0.907   3.745  0.3181  0.5881 -1.0620
16653TIP3    H271451   1.932   0.819   3.739  0.7211 -0.2556  1.6003
16654TIP3   OH271452   3.522   6.544   4.429  0.2071  0.0663  0.5313
16654TIP3    H171453   3.453   6.562   4.365  0.8498  1.2845  0.1588
16654TIP3    H271454   3.504   6.604   4.501  0.3440 -0.2693  0.8480
16655TIP3   OH271455   1.672   6.448  15.313  0.4786 -0.2739 -0.1521
16655TIP3    H171456   1.583   6.464  15.343 -0.0134 -0.2704 -1.5690
16655TIP3    H271457   1.693   6.361  15.349 -0.1592 -0.3592  0.0339
16656TIP3   OH271458   4.969   3.599  14.659 -0.4967  1.1256  0.4433
16656TIP3    H171459   5.004   3.520  14.699  0.1980  0.6170 -1.0513
16656TIP3    H271460   4.982   3.668  14.724 -2.0329 -0.1416  2.1568
16657TIP3   OH271461   5.857   5.543  16.247  0.1571  0.0080 -0.3669
16657TIP3    H171462   5.904   5.496  16.316 -1.6963 -0.8257  0.3849
16657TIP3    H271463   5.910   5.621  16.231  2.0620 -1.1370  0.0411
16658TIP3   OH271464   4.009   2.518   3.889  0.1875  0.3018 -0.8001
16658TIP3    H171465   3.983   2.430   3.914 -0.1880  0.6954  0.2560
16658TIP3    H271466   4.082   2.539   3.947 -0.1040  0.9058 -0.6418
16659TIP3   OH271467   5.755   6.845  16.686  0.4393 -0.5352  0.3366
16659TIP3    H171468   5.725   6.935  16.702 -1.4803 -0.6354 -2.0731
16659TIP3    H271469   5.836   6.856  16.636  0.7830 -0.1807  0.9525
16660TIP3   OH271470   0.751   6.555  15.738 -0.7142  0.2368  0.2573
16660TIP3    H171471   0.836   6.558  15.783 -1.0951 -0.8897  1.0829
16660TIP3    H271472   0.695   6.502  15.795 -0.9751 -2.0033 -1.9130
16661TIP3   OH271473   2.084   4.117   2.272  0.0646 -0.1718 -0.1707
16661TIP3    H171474   2.066   4.102   2.179 -1.0313 -0.3767  0.0599
16661TIP3    H271475   2.046   4.042   2.317  0.3242  0.0695  0.4729
16662TIP3   OH271476   4.294   0.141   5.122 -0.2168  0.2350 -1.2254
16662TIP3    H171477   4.313   0.049   5.142  0.9003  0.5196 -0.9553
16662TIP3    H271478   4.345   0.191   5.185 -2.8360  1.0534  0.4205
16663TIP3   OH271479   2.879   4.046  11.538 -0.3843  0.2411  0.1752
16663TIP3    H171480   2.874   4.006  11.452  1.4411  0.8103 -0.2523
16663TIP3    H271481   2.957   4.102  11.534 -0.9408  1.2253  1.8060
16664TIP3   OH271482   4.675   2.587   0.145  0.7632  0.6439 -0.4546
16664TIP3    H171483   4.735   2.512   0.150 -3.2425 -2.9398 -0.2110
16664TIP3    H271484   4.632   2.577   0.060 -1.5586  1.1457  0.5921
16665TIP3   OH271485   4.479   2.844  16.111 -0.7028  0.0884 -0.1859
16665TIP3    H171486   4.523   2.775  16.161 -0.9319 -0.4684 -0.7462
16665TIP3    H271487   4.513   2.925  16.149 -1.1456 -0.3111  1.1142
16666TIP3   OH271488   0.610   3.249  13.757  0.1353 -0.5193  0.3982
16666TIP3    H171489   0.662   3.328  13.769  0.7028 -0.7312 -0.5655
16666TIP3    H271490   0.520   3.281  13.746  0.5516  0.1553 -1.5891
16667TIP3   OH271491   5.144   4.260  16.257 -0.2915  0.3893  0.1371
16667TIP3    H171492   5.145   4.179  16.207  1.3528  0.1288  0.5376
16667TIP3    H271493   5.124   4.233  16.347  0.4778  0.3787  0.3145
16668TIP3   OH271494   4.323   2.518   4.366  0.4246 -0.3367  0.3706
16668TIP3    H171495   4.254   2.457   4.393 -3.1849  3.3400  0.5273
16668TIP3    H271496   4.294   2.552   4.282  4.1858 -1.2192 -1.5165
16669TIP3   OH271497   2.012   0.607  12.900 -0.2802  0.0039 -0.1349
16669TIP3    H171498   1.995   0.520  12.938 -0.0732 -0.8090 -1.8195
16669TIP3    H271499   2.010   0.593  12.806 -1.4658  2.0810 -0.4864
16670TIP3   OH271500   4.511   3.861  13.235 -0.3780  0.0555 -0.0595
16670TIP3    H171501   4.588   3.912  13.207 -0.5546  1.3736  1.6552
16670TIP3    H271502   4.438   3.921  13.224 -0.6974 -0.0523  1.3078
16671TIP3   OH271503   6.268   2.691  11.561  0.1022 -0.1324  0.4769
16671TIP3    H171504   6.274   2.747  11.483  0.3727  0.3457  0.8360
16671TIP3    H271505   6.340   2.720  11.617  0.2966 -0.9074  0.6339
16672TIP3   OH271506   5.111   3.955   4.678  0.2134 -0.1102  0.3817
16672TIP3    H171507   5.162   4.026   4.640  1.3523 -1.3843 -0.5690
16672TIP3    H271508   5.020   3.984   4.673  0.7463  1.8634  1.3514
16673TIP3   OH271509   2.464   2.009  13.894 -0.2061 -0.4783  0.3290
16673TIP3    H171510   2.549   2.043  13.864 -0.5124 -0.4174 -0.4849
16673TIP3    H271511   2.437   1.949  13.825 -1.0973 -0.0489  0.2949
16674TIP3   OH271512   4.192   4.878  15.915 -0.5500 -0.1706 -0.5017
16674TIP3    H171513   4.119   4.826  15.948 -1.3832  0.3178 -1.5065
16674TIP3    H271514   4.152   4.959  15.884  0.4218  0.1238 -1.0301
16675TIP3   OH271515   5.675   5.092  15.290  0.3925 -0.0040 -0.5993
16675TIP3    H171516   5.654   5.037  15.365 -0.2852  2.7688  1.3870
16675TIP3    H271517   5.767   5.116  15.303  0.7037 -0.6443 -1.4905
16676TIP3   OH271518   0.173   0.923   3.217  0.3377 -0.2121 -0.1879
16676TIP3    H171519   0.251   0.885   3.258  0.6876 -1.4755 -1.9137
16676TIP3    H271520   0.207   0.979   3.147 -0.3001  0.3397 -0.0782
16677TIP3   OH271521   0.835   1.379   0.855 -0.1295  0.3075 -0.2787
16677TIP3    H171522   0.760   1.438   0.859  0.8298  1.9649 -3.2105
16677TIP3    H271523   0.905   1.425   0.901  0.3309  1.0515 -1.6652
16678TIP3   OH271524   0.633   4.368   1.887 -0.2339  0.5251  0.0272
16678TIP3    H171525   0.609   4.449   1.932 -0.1390  0.5174  0.0931
16678TIP3    H271526   0.684   4.398   1.811  0.7633  0.4854  0.6543
16679TIP3   OH271527   2.802   3.110   2.668  0.1102  0.1262 -0.4438
16679TIP3    H171528   2.818   3.178   2.603  0.4853 -0.6960 -1.2344
16679TIP3    H271529   2.778   3.158   2.747  1.5086  1.2198 -0.6390
16680TIP3   OH271530   4.157   6.382  11.823  0.0969  0.0577 -0.2521
16680TIP3    H171531   4.249   6.368  11.845  0.0671  0.7073  0.3055
16680TIP3    H271532   4.111   6.382  11.907 -0.7183 -2.1930 -0.6186
16681TIP3   OH271533   2.923   4.394  13.054  0.3940  0.1762  0.4501
16681TIP3    H171534   2.919   4.481  13.093  1.3770  0.7166 -0.6055
16681TIP3    H271535   2.924   4.410  12.960  0.9104 -0.9562  0.2484
16682TIP3   OH271536   5.155   3.257  16.240  0.0539 -0.1506  0.1599
16682TIP3    H171537   5.206   3.332  16.270  0.8020 -0.8865  0.8072
16682TIP3    H271538   5.090   3.293  16.180  0.7490  0.9371  0.0443
16683TIP3   OH271539   5.359   2.835  13.096 -0.4046 -0.4945 -0.1643
16683TIP3    H171540   5.330   2.795  13.178  0.5721  0.9285  0.9364
16683TIP3    H271541   5.436   2.784  13.071  0.7195  0.4851  1.1222
16684TIP3   OH271542   2.021   2.312  13.824 -0.6082  0.6387  0.3870
16684TIP3    H171543   1.941   2.343  13.782 -0.1537  1.8530  0.3921
16684TIP3    H271544   2.084   2.383  13.814  1.0035 -0.8710 -1.0210
16685TIP3   OH271545   1.751   3.648  11.805 -0.4889  0.5505  0.1070
16685TIP3    H171546   1.680   3.711  11.802 -1.6788 -0.7311  0.2551
16685TIP3    H271547   1.788   3.649  11.716 -1.3718  0.4947 -0.2703
16686TIP3   OH271548   3.620   2.325  15.862  0.5076  0.4959  0.3482
16686TIP3    H171549   3.534   2.285  15.875  1.0441 -1.4151 -1.5178
16686TIP3    H271550   3.605   2.396  15.800  0.1854  0.6335  0.5803
16687TIP3   OH271551   5.848   1.952  13.852 -0.0206 -0.2002 -0.1194
16687TIP3    H171552   5.833   2.023  13.789  1.3987 -2.0506 -2.7395
16687TIP3    H271553   5.941   1.960  13.875 -0.1024 -0.6232  0.3636
16688TIP3   OH271554   0.878   5.749   2.588 -0.1599  0.9118  0.2099
16688TIP3    H171555   0.973   5.749   2.598 -0.2313  1.3104  0.9746
16688TIP3    H271556   0.862   5.706   2.503  0.6761  0.5037  0.2516
16689TIP3   OH271557   0.367   5.173   4.524  0.5140  0.1300  0.6470
16689TIP3    H171558   0.388   5.248   4.468 -1.7431  0.7604  0.5404
16689TIP3    H271559   0.437   5.172   4.590 -0.1957  3.3900  1.6537
16690TIP3   OH271560   1.194   1.985   1.958  0.0974 -0.4632 -0.0984
16690TIP3    H171561   1.269   2.032   1.920  1.4853 -3.3572 -1.2253
16690TIP3    H271562   1.163   1.928   1.887 -4.1821  1.5399 -0.1745
16691TIP3   OH271563   2.384   6.789   2.792  0.2751 -0.1776 -0.2315
16691TIP3    H171564   2.332   6.803   2.713  1.5885 -0.6922 -1.2272
16691TIP3    H271565   2.445   6.863   2.794  1.6073 -1.2187 -0.8543
16692TIP3   OH271566   5.749   4.683   3.835 -0.1581 -0.7606  0.0758
16692TIP3    H171567   5.724   4.749   3.900  0.3724 -1.0847  0.6124
16692TIP3    H271568   5.759   4.602   3.885 -0.5093 -1.1864 -0.5333
16693TIP3   OH271569   3.602   4.986   1.339 -0.0262 -0.3971 -0.3659
16693TIP3    H171570   3.641   4.974   1.425  0.5115 -1.4830 -0.7405
16693TIP3    H271571   3.595   4.897   1.303  1.6490  0.1592 -2.2472
16694TIP3   OH271572   4.490   2.880  12.583  0.5076 -0.0331  0.5962
16694TIP3    H171573   4.541   2.832  12.518  0.3320  1.7216 -0.9258
16694TIP3    H271574   4.414   2.825  12.599  0.9182 -0.8393 -0.1552
16695TIP3   OH271575   2.189   4.986  13.346 -0.1580 -0.3274 -0.3003
16695TIP3    H171576   2.175   4.922  13.416 -2.0802  1.4827  1.1215
16695TIP3    H271577   2.210   4.934  13.269 -1.6314 -2.6853  0.7769
16696TIP3   OH271578   5.837   1.517   0.759  0.5735 -0.3028  0.0080
16696TIP3    H171579   5.858   1.461   0.684  1.8595  1.6264 -1.1679
16696TIP3    H271580   5.890   1.596   0.745  0.4673  0.3405  2.7033
16697TIP3   OH271581   3.904   5.338   6.079 -0.5469 -0.5756  0.4574
16697TIP3    H171582   3.957   5.406   6.121 -2.4957  1.6315 -0.4798
16697TIP3    H271583   3.886   5.275   6.149  1.0085  0.0229  1.4441
16698TIP3   OH271584   5.596   0.766  12.226  0.1756  0.1686 -0.4663
16698TIP3    H171585   5.562   0.809  12.147  0.5741 -0.7444 -1.1535
16698TIP3    H271586   5.535   0.694  12.241  0.3774  0.0489 -0.2259
16699TIP3   OH271587   6.767   4.258  12.112  0.1401  0.4226 -0.1677
16699TIP3    H171588   6.814   4.341  12.107 -0.9858  1.1014  0.1979
16699TIP3    H271589   6.723   4.249  12.028  3.2437 -1.7140 -1.7614
16700TIP3   OH271590   2.953   0.240  12.909 -0.0271 -0.5789  0.7113
16700TIP3    H171591   2.962   0.336  12.906 -1.2073 -0.4659  0.5370
16700TIP3    H271592   2.885   0.220  12.845  0.6339 -1.6069  0.3024
16701TIP3   OH271593   3.572   5.641   5.853  0.0360 -0.3173 -0.1624
16701TIP3    H171594   3.557   5.680   5.939  1.8090  0.9693 -0.3717
16701TIP3    H271595   3.497   5.670   5.801 -0.0995  0.4935  0.4568
16702TIP3   OH271596   1.894   4.073   0.135 -0.3134  0.2829  0.5655
16702TIP3    H171597   1.926   3.990   0.170 -0.0951  0.4915  0.8675
16702TIP3    H271598   1.821   4.097   0.192 -0.6301  0.1091  0.2425
16703TIP3   OH271599   5.265   5.516   2.566 -0.8614 -0.7907  0.3070
16703TIP3    H171600   5.233   5.591   2.616  1.6727 -0.6795  1.9912
16703TIP3    H271601   5.353   5.542   2.538 -0.2268 -2.8109  0.2472
16704TIP3   OH271602   0.898   3.815  15.258 -0.1631 -0.4547 -0.0609
16704TIP3    H171603   0.845   3.752  15.306  0.3298  0.1544  1.3219
16704TIP3    H271604   0.947   3.762  15.195  0.3831 -1.5179  1.1997
16705TIP3   OH271605   4.085   5.016  12.829  0.5064  0.5994 -0.4615
16705TIP3    H171606   4.036   4.955  12.885  0.7355  0.2488 -0.6369
16705TIP3    H271607   4.156   4.963  12.792  0.4074  0.8414 -1.0206
16706TIP3   OH271608   6.461   6.500   4.823 -0.1720 -0.2863  0.0566
16706TIP3    H171609   6.391   6.527   4.764  0.4600  1.6576  0.1274
16706TIP3    H271610   6.522   6.452   4.768 -1.0068 -1.0185 -0.2413
16707TIP3   OH271611   2.022   1.336   2.223  0.1895  0.5063  0.3630
16707TIP3    H171612   2.094   1.342   2.160  0.3499 -0.8667  0.3841
16707TIP3    H271613   1.970   1.262   2.192  0.5052 -0.4800  2.0441
16708TIP3   OH271614   0.901   2.771   0.908 -0.3992 -0.5887 -0.2541
16708TIP3    H171615   0.845   2.848   0.897  0.1401  0.3247  2.6677
16708TIP3    H271616   0.888   2.721   0.827 -1.2434  2.2164 -2.0060
16709TIP3   OH271617   5.585   5.011  11.596  0.5552 -0.5100  0.5110
16709TIP3    H171618   5.669   5.056  11.582  0.3409  0.3356  1.7915
16709TIP3    H271619   5.611   4.922  11.623  1.0287 -0.5007  0.1040
16710TIP3   OH271620   4.007   1.705  13.475  0.2957 -0.3180  0.6082
16710TIP3    H171621   4.076   1.771  13.467  0.6809 -0.8671 -0.9600
16710TIP3    H271622   4.054   1.622  13.476 -0.2780 -0.6413  0.8748
16711TIP3   OH271623   4.126   2.665  14.967  0.1357 -0.3120 -0.3443
16711TIP3    H171624   4.102   2.691  14.878 -2.2240 -2.8618 -0.5910
16711TIP3    H271625   4.212   2.624  14.958  1.2787  2.0210 -0.8565
16712TIP3   OH271626   6.310   0.784  10.458 -0.3058 -0.0684 -0.5404
16712TIP3    H171627   6.280   0.741  10.538  0.6107 -2.3246 -1.3247
16712TIP3    H271628   6.234   0.782  10.400 -1.0074  1.6718  0.2341
16713TIP3   OH271629   6.267   2.526  11.921  0.0151  0.2639 -0.6481
16713TIP3    H171630   6.343   2.584  11.929  1.4197 -1.1632 -2.5331
16713TIP3    H271631   6.225   2.553  11.840  0.8975 -1.4483 -1.7552
16714TIP3   OH271632   4.852   5.274   4.270 -0.0166 -0.0802  0.6163
16714TIP3    H171633   4.918   5.244   4.333  1.3845 -2.9132 -1.9277
16714TIP3    H271634   4.771   5.232   4.298  0.3278 -0.4334  1.1025
16715TIP3   OH271635   0.613   3.644   2.412 -0.4996  0.3337  0.0194
16715TIP3    H171636   0.617   3.607   2.500  1.1684 -0.6268 -0.4151
16715TIP3    H271637   0.705   3.661   2.389 -0.7362 -0.9749 -2.1369
16716TIP3   OH271638   1.230   3.969  14.348 -0.4203  0.0919  0.2071
16716TIP3    H171639   1.319   3.945  14.319 -0.0400  2.7951 -1.2207
16716TIP3    H271640   1.189   4.006  14.269 -2.5333 -0.2786  1.0742
16717TIP3   OH271641   1.286   0.317   2.127  0.6088  0.3853 -0.0538
16717TIP3    H171642   1.212   0.278   2.081 -0.1721 -0.1400  1.5730
16717TIP3    H271643   1.258   0.407   2.144  0.3053  0.1878  0.5581
16718TIP3   OH271644   3.490   4.035  16.266 -0.3830  0.0749  0.6503
16718TIP3    H171645   3.565   4.007  16.214  0.5578  2.1202  0.7952
16718TIP3    H271646   3.482   4.129  16.248 -2.6288  0.0178  1.0116
16719TIP3   OH271647   6.538   1.264  15.206  0.6698 -0.0756  0.4209
16719TIP3    H171648   6.615   1.266  15.149 -1.9964  1.6746 -3.5761
16719TIP3    H271649   6.516   1.356  15.219 -1.0050 -0.5275  0.9944
16720TIP3   OH271650   0.950   5.691   2.929 -0.9213  0.2750  0.1598
16720TIP3    H171651   0.989   5.766   2.886  0.8504  0.5545  2.0944
16720TIP3    H271652   0.895   5.729   2.998 -0.7382 -0.1706  0.5591
16721TIP3   OH271653   4.118   4.445   2.976  0.1024  0.0575 -0.6578
16721TIP3    H171654   4.089   4.534   2.955  0.5336  0.0246 -1.4464
16721TIP3    H271655   4.084   4.392   2.904  0.8176 -0.2203 -0.7991
16722TIP3   OH271656   0.218   2.891   4.934  0.3213  0.4846 -0.0032
16722TIP3    H171657   0.128   2.914   4.910 -0.3811 -3.1289 -1.5460
16722TIP3    H271658   0.212   2.862   5.025 -0.5637 -1.4555 -0.6247
16723TIP3   OH271659   4.794   5.862  15.488  0.4446  0.3850  0.3099
16723TIP3    H171660   4.836   5.947  15.474  1.4154  0.1461  1.5656
16723TIP3    H271661   4.791   5.823  15.401  1.0030  1.2488 -0.1229
16724TIP3   OH271662   3.486   2.623  11.898  0.3126  0.2755  0.2334
16724TIP3    H171663   3.417   2.635  11.832 -0.9398  2.8932  1.8446
16724TIP3    H271664   3.513   2.532  11.888 -1.8322 -0.2431 -1.9312
16725TIP3   OH271665   6.588   4.578  11.821 -0.0791 -0.1943  0.0121
16725TIP3    H171666   6.520   4.519  11.790  0.4092 -0.8150  0.1099
16725TIP3    H271667   6.573   4.584  11.916  1.7346 -2.6515  0.5381
16726TIP3   OH271668   5.459   3.705  16.894 -0.8865 -0.1516  0.7444
16726TIP3    H171669   5.390   3.685  16.957 -0.6046 -0.3020  1.0086
16726TIP3    H271670   5.424   3.675  16.810 -1.0733 -0.3809  0.9034
16727TIP3   OH271671   0.725   0.304  15.722 -0.1076 -0.0430 -0.3751
16727TIP3    H171672   0.748   0.396  15.735 -1.7717  0.2633  0.6709
16727TIP3    H271673   0.662   0.305  15.650  0.1110 -0.4216 -0.5785
16728TIP3   OH271674   2.554   1.963  14.456 -0.2894  0.1200 -0.3011
16728TIP3    H171675   2.619   1.904  14.494 -2.5840 -1.7563  0.9533
16728TIP3    H271676   2.520   1.916  14.380 -1.9551 -0.1110  0.5495
16729TIP3   OH271677   5.576   5.257   0.090  0.2803  0.5555 -0.0595
16729TIP3    H171678   5.526   5.287   0.014 -1.0202 -0.4364  0.3670
16729TIP3    H271679   5.575   5.162   0.083  2.3988  0.4837 -0.1735
16730TIP3   OH271680   5.753   1.337   4.724  0.4127  0.1824 -0.0478
16730TIP3    H171681   5.707   1.402   4.671  2.4262  1.0790 -0.8365
16730TIP3    H271682   5.773   1.266   4.663  0.0574 -0.2038  0.2852
16731TIP3   OH271683   2.386   1.116   6.704  0.1077 -0.0834 -0.2062
16731TIP3    H171684   2.470   1.151   6.673  0.3515  0.5933  1.1634
16731TIP3    H271685   2.390   1.124   6.799 -2.3150  1.8187 -0.1711
16732TIP3   OH271686   6.823   3.737  15.800  0.2175  0.0157 -0.8705
16732TIP3    H171687   6.869   3.681  15.738  0.1138  0.7697 -1.6494
16732TIP3    H271688   6.731   3.732  15.774  0.4300  2.2059 -2.3773
16733TIP3   OH271689   2.255   4.897   2.687  0.3206  0.3233  0.0366
16733TIP3    H171690   2.321   4.829   2.699  0.0691  0.0426 -0.1682
16733TIP3    H271691   2.304   4.979   2.696  0.2014  0.1751  2.8458
16734TIP3   OH271692   6.619   1.240   0.239 -0.4232  0.1972 -0.3376
16734TIP3    H171693   6.706   1.265   0.206  0.2566 -1.0107  0.4545
16734TIP3    H271694   6.614   1.283   0.325  0.1840 -1.1679  0.4230
16735TIP3   OH271695   5.019   4.723  16.154  0.1716  0.7056 -0.2511
16735TIP3    H171696   5.041   4.637  16.188 -2.2801  0.6120  1.2935
16735TIP3    H271697   4.982   4.706  16.067 -0.0868  0.2160 -0.0486
16736TIP3   OH271698   0.117   0.887  10.910  0.4704 -1.1114 -0.4610
16736TIP3    H171699   0.032   0.925  10.930  2.0140  2.5556 -0.0624
16736TIP3    H271700   0.138   0.834  10.987 -0.8595 -0.9406  0.0468
16737TIP3   OH271701   1.542   0.365  15.075 -0.0564 -0.3199 -0.1666
16737TIP3    H171702   1.540   0.287  15.131 -2.4105 -0.3776 -0.2120
16737TIP3    H271703   1.450   0.389  15.065  0.4958  1.3688 -1.7187
16738TIP3   OH271704   4.043   4.696  15.498  0.3056  0.6419  0.7813
16738TIP3    H171705   4.000   4.779  15.476  1.1618  0.7526 -0.5793
16738TIP3    H271706   3.977   4.648  15.549 -0.9833  1.2895 -0.2181
16739TIP3   OH271707   4.927   4.031  16.498  0.3656  0.1190  0.5980
16739TIP3    H171708   4.838   4.055  16.474 -0.1781 -0.9060  1.4713
16739TIP3    H271709   4.976   4.113  16.496 -0.6450  0.7300  0.3081
16740TIP3   OH271710   6.160   2.286   1.141 -0.1035  0.1851 -0.4298
16740TIP3    H171711   6.081   2.266   1.190 -0.1485 -0.1104 -0.6228
16740TIP3    H271712   6.141   2.369   1.097  0.4585  1.2131  1.1943
16741TIP3   OH271713   3.898   2.832  15.096  0.0177  0.3009  0.3705
16741TIP3    H171714   3.950   2.779  15.036  0.6945  2.2219 -0.8481
16741TIP3    H271715   3.910   2.922  15.066 -1.8279  1.0983  1.7529
16742TIP3   OH271716   4.818   3.083   0.402  0.3899 -0.5442 -0.5354
16742TIP3    H171717   4.785   2.993   0.396  0.9582 -0.9249  1.5068
16742TIP3    H271718   4.739   3.136   0.409  0.0568 -0.8741 -1.5476
16743TIP3   OH271719   6.726   5.683   3.823  0.6991  0.8558  0.1748
16743TIP3    H171720   6.699   5.736   3.749 -1.3403  1.4595  1.2840
16743TIP3    H271721   6.716   5.592   3.793  2.5313  1.0481 -1.1448
16744TIP3   OH271722   2.056   2.570  14.095  0.3501  0.0476 -0.0622
16744TIP3    H171723   1.996   2.515  14.046  0.0393  0.6525 -0.3810
16744TIP3    H271724   2.142   2.529  14.085  0.0269 -0.7095  0.2240
16745TIP3   OH271725   0.526   0.061  13.526 -0.2853 -0.2073 -0.5749
16745TIP3    H171726   0.466   0.012  13.470  0.1472 -2.6111  0.9490
16745TIP3    H271727   0.605   0.008  13.530  1.1034  1.7387 -0.6110
16746TIP3   OH271728   4.039   1.166   1.376 -0.2327 -0.5345 -0.3425
16746TIP3    H171729   4.077   1.107   1.440  2.5393 -1.0491 -2.2522
16746TIP3    H271730   3.993   1.109   1.314  0.2235 -0.4473 -0.7703
16747TIP3   OH271731   1.021   2.933  14.791 -0.3730 -0.1203  0.0185
16747TIP3    H171732   1.115   2.937  14.804 -0.3129  0.5426 -0.5901
16747TIP3    H271733   1.001   2.840  14.785  0.2329 -0.2604  0.1988
16748TIP3   OH271734   6.761   4.590  13.623  0.2385  0.5017  0.1103
16748TIP3    H171735   6.756   4.541  13.541  3.4688  1.6367 -0.9197
16748TIP3    H271736   6.688   4.652  13.619  0.0983  0.2647 -1.7216
16749TIP3   OH271737   1.998   6.476   3.489  0.6139 -0.6472  0.2764
16749TIP3    H171738   1.984   6.484   3.584  0.8374 -0.3618  0.2882
16749TIP3    H271739   2.020   6.384   3.476 -0.1067 -0.8370  0.4056
16750TIP3   OH271740   1.853   1.226  13.308 -0.0209  0.6710 -0.0174
16750TIP3    H171741   1.946   1.210  13.322  0.2225  1.2762 -0.8629
16750TIP3    H271742   1.816   1.139  13.293  0.4291  0.4401  0.1806
16751TIP3   OH271743   2.888   4.500   0.449  0.2177 -0.5065  0.7093
16751TIP3    H171744   2.803   4.455   0.449 -0.2231  0.2751 -0.4196
16751TIP3    H271745   2.901   4.525   0.358  1.6304 -0.5257  0.8931
16752TIP3   OH271746   4.068   0.304   5.661 -0.2924  0.7715 -0.4263
16752TIP3    H171747   3.977   0.280   5.676 -0.5380  2.0489  0.3126
16752TIP3    H271748   4.111   0.292   5.746  0.4575 -0.6520 -0.9699
16753TIP3   OH271749   2.923   1.250  15.917 -0.5377 -0.4787 -0.1013
16753TIP3    H171750   2.829   1.230  15.912 -0.4578 -0.6070 -1.6703
16753TIP3    H271751   2.965   1.178  15.870  0.2676  0.0889 -0.2786
16754TIP3   OH271752   1.068   4.437  17.153 -0.3962  0.0844 -0.2465
16754TIP3    H171753   0.979   4.472  17.149 -0.0743  1.2606  1.4187
16754TIP3    H271754   1.057   4.347  17.183 -1.0181  0.2984  0.1901
16755TIP3   OH271755   0.564   2.032  14.148  0.0368  0.0775 -0.4844
16755TIP3    H171756   0.544   2.092  14.220  1.7268 -0.1156  0.2060
16755TIP3    H271757   0.640   1.983  14.179 -0.2969 -1.2655 -1.7079
16756TIP3   OH271758   4.345   5.756   4.964  0.1315  0.3514  0.5510
16756TIP3    H171759   4.411   5.811   4.921  0.9346  0.2086  1.5502
16756TIP3    H271760   4.298   5.816   5.021  0.8022  0.0876  1.4086
16757TIP3   OH271761   0.385   2.433  11.081  0.1477 -0.2666  0.2654
16757TIP3    H171762   0.473   2.439  11.043  0.2381  0.0277  0.5164
16757TIP3    H271763   0.356   2.524  11.088  0.4227 -0.2529  1.5614
16758TIP3   OH271764   6.525   4.735  13.664 -0.0341 -0.0714  0.4289
16758TIP3    H171765   6.471   4.743  13.585  0.2946 -0.1305  0.1941
16758TIP3    H271766   6.535   4.825  13.696 -2.0857 -0.2692  1.7206
16759TIP3   OH271767   4.327   5.012   1.194  0.0113 -0.0326  0.2690
16759TIP3    H171768   4.318   5.107   1.196 -0.1966  0.0207 -1.6846
16759TIP3    H271769   4.388   4.995   1.123 -0.6615 -1.4067 -0.0116
16760TIP3   OH271770   5.635   6.681  14.932  0.3350  0.6728 -0.0332
16760TIP3    H171771   5.690   6.690  15.010 -2.7258  0.9845  2.2905
16760TIP3    H271772   5.585   6.600  14.948  0.4490  0.1012 -2.2886
16761TIP3   OH271773   6.655   3.983  10.110  0.2459  0.0477 -0.9628
16761TIP3    H171774   6.729   3.985  10.050  0.1798  2.7331 -1.0593
16761TIP3    H271775   6.584   3.945  10.059  0.5016  1.2252 -2.2680
16762TIP3   OH271776   2.742   4.338  11.345 -0.0544 -0.1913 -0.8316
16762TIP3    H171777   2.718   4.258  11.297 -0.6438 -0.2541 -0.4397
16762TIP3    H271778   2.830   4.359  11.314  1.4882 -2.7795  1.2760
16763TIP3   OH271779   4.882   2.217  13.994  0.3418 -0.6166 -0.4962
16763TIP3    H171780   4.891   2.122  13.989  0.5132 -0.5590 -3.0305
16763TIP3    H271781   4.963   2.250  13.953 -0.1839  0.5801 -0.6108
16764TIP3   OH271782   6.796   2.500   1.591 -0.6404 -0.0926  0.6389
16764TIP3    H171783   6.745   2.468   1.665  0.7734 -2.6579  0.6197
16764TIP3    H271784   6.885   2.505   1.624 -0.2122  0.0758 -0.5065
16765TIP3   OH271785   3.710   0.172  12.429 -0.1225 -0.2399  0.2939
16765TIP3    H171786   3.779   0.111  12.454  1.0823  0.7939 -0.3619
16765TIP3    H271787   3.648   0.119  12.380  2.1540 -0.5544 -2.5004
16766TIP3   OH271788   5.601   5.561  16.398  0.1454  0.7506  0.2036
16766TIP3    H171789   5.622   5.634  16.456 -2.6237  0.4303  1.7941
16766TIP3    H271790   5.686   5.527  16.371  1.5583  2.2201  2.4237
16767TIP3   OH271791   4.040   5.970  12.368  0.6143 -0.6729  0.0208
16767TIP3    H171792   4.123   5.930  12.342  0.1987 -1.5750  0.0226
16767TIP3    H271793   4.019   6.031  12.298  1.9800  0.6518  0.6997
16768TIP3   OH271794   0.998   1.177  15.279  0.3448  0.7776  0.0100
16768TIP3    H171795   0.995   1.231  15.358 -1.0308 -1.0359  1.2946
16768TIP3    H271796   1.011   1.239  15.208 -1.1807  2.8305  1.3946
16769TIP3   OH271797   5.104   0.698  16.269 -0.8186 -0.0979  0.7308
16769TIP3    H171798   5.048   0.660  16.336 -1.5297  0.5456  0.5205
16769TIP3    H271799   5.133   0.781  16.307 -1.8978  0.6653 -0.0640
16770TIP3   OH271800   4.894   0.352   5.679  0.2914  0.7926  0.4719
16770TIP3    H171801   4.844   0.271   5.687  0.4213  0.4348 -1.6102
16770TIP3    H271802   4.861   0.409   5.748 -0.4579 -0.7046  1.3778
16771TIP3   OH271803   2.696   0.643   1.522 -0.0977 -0.2669 -0.0337
16771TIP3    H171804   2.729   0.564   1.564 -0.3846  0.0485  0.8087
16771TIP3    H271805   2.765   0.708   1.535  0.5940 -0.6260 -1.6200
16772TIP3   OH271806   0.237   1.257   5.048 -0.2918  0.3268 -0.1966
16772TIP3    H171807   0.187   1.176   5.039  0.7243 -0.3972  0.3529
16772TIP3    H271808   0.185   1.311   5.107 -1.2569  0.3129 -1.0173
16773TIP3   OH271809   5.919   2.735   1.693 -0.0368  0.1937  0.1942
16773TIP3    H171810   5.930   2.818   1.647 -1.5380  0.8913  1.0580
16773TIP3    H271811   6.006   2.718   1.731  0.6520  0.6568 -1.0858
16774TIP3   OH271812   0.899   5.300  10.568 -0.1308  0.2258  0.1690
16774TIP3    H171813   0.893   5.391  10.597 -0.5234 -0.5817  3.0151
16774TIP3    H271814   0.992   5.278  10.574  0.3231  0.9988 -2.7621
16775TIP3   OH271815   2.050   5.767   1.951  0.5646 -0.3232 -0.0744
16775TIP3    H171816   1.997   5.814   2.016  1.2096 -0.6608  0.7198
16775TIP3    H271817   2.078   5.835   1.889 -0.6691 -0.1237 -0.4310
16776TIP3   OH271818   4.262   5.813   5.421  0.3935 -0.5322  0.3300
16776TIP3    H171819   4.222   5.839   5.339  0.5404  0.6132  0.6042
16776TIP3    H271820   4.189   5.786   5.477 -0.1574  2.3409  1.1196
16777TIP3   OH271821   6.683   2.676  10.996 -0.5271 -0.3773  0.3633
16777TIP3    H171822   6.735   2.596  10.985  2.1664  1.1774  0.8345
16777TIP3    H271823   6.648   2.694  10.909 -0.2967 -1.5031  0.0141
16778TIP3   OH271824   6.125   4.036  11.618  0.2130  0.2242  0.2788
16778TIP3    H171825   6.140   4.016  11.526  2.2361  1.7614  0.2064
16778TIP3    H271826   6.087   4.124  11.618 -1.3297 -0.3995  0.8844
16779TIP3   OH271827   1.336   5.866   2.358  0.1858  0.9928  0.1775
16779TIP3    H171828   1.430   5.874   2.377  0.0804 -1.5846  2.4114
16779TIP3    H271829   1.330   5.790   2.300 -0.6082 -0.1458  1.6907
16780TIP3   OH271830   6.439   4.786   0.845 -0.0849 -0.1468  0.0657
16780TIP3    H171831   6.389   4.704   0.848 -2.2718  1.0960  0.0195
16780TIP3    H271832   6.530   4.759   0.854 -0.5437 -2.7391 -1.8146
16781TIP3   OH271833   1.327   2.473  15.079 -0.3595 -0.3539 -0.3641
16781TIP3    H171834   1.235   2.450  15.062 -0.1332 -1.1889 -0.4998
16781TIP3    H271835   1.336   2.466  15.174 -0.5387  0.1214 -0.3119
16782TIP3   OH271836   5.741   0.399   5.652  0.2063  0.4290  0.1781
16782TIP3    H171837   5.746   0.397   5.748 -0.7174 -0.4859  0.2245
16782TIP3    H271838   5.797   0.327   5.623 -0.9717 -0.5002  0.1272
16783TIP3   OH271839   3.164   5.412  14.980 -0.1432 -0.4746  0.0278
16783TIP3    H171840   3.137   5.331  15.022  1.0159 -1.2451 -0.6400
16783TIP3    H271841   3.135   5.403  14.889 -0.7800  0.2455  0.1544
16784TIP3   OH271842   0.006   3.307   5.469  0.1325 -0.0274  0.0009
16784TIP3    H171843   0.037   3.250   5.399  0.5148 -0.7032  0.6988
16784TIP3    H271844  -0.039   3.248   5.530 -1.3321  0.7401 -0.3033
16785TIP3   OH271845   2.468   2.956  16.265  0.2741  0.1876  0.2964
16785TIP3    H171846   2.470   2.984  16.357 -0.4884 -1.2230  0.7608
16785TIP3    H271847   2.453   2.862  16.268  0.7148  0.0281 -1.2812
16786TIP3   OH271848   4.489   2.698   4.052  0.6590 -0.3479 -0.4892
16786TIP3    H171849   4.576   2.732   4.032  0.3128  0.6474 -0.3371
16786TIP3    H271850   4.488   2.689   4.147  1.2085 -2.0953 -0.6088
16787TIP3   OH271851   2.003   1.744  13.544  0.2340 -0.2223  0.2432
16787TIP3    H171852   2.040   1.694  13.472 -0.5129 -0.8171  0.2559
16787TIP3    H271853   2.059   1.821  13.552  0.6334 -0.4148 -0.6234
16788TIP3   OH271854   0.910   6.495   4.738 -0.2798  0.5789 -0.3079
16788TIP3    H171855   0.915   6.546   4.819 -0.2934  1.0455 -0.5984
16788TIP3    H271856   0.820   6.463   4.735  0.2914 -1.3532  1.0036
16789TIP3   OH271857   4.313   2.448   3.964 -0.6636 -0.0752 -0.0818
16789TIP3    H171858   4.373   2.522   3.953 -0.7443 -0.1776 -1.4801
16789TIP3    H271859   4.343   2.384   3.899 -2.6790  0.1598 -1.3418
16790TIP3   OH271860   1.996   5.379   3.568  0.0077 -0.8446 -0.5240
16790TIP3    H171861   2.003   5.419   3.654  1.5458 -0.2678 -0.8882
16790TIP3    H271862   1.966   5.290   3.585 -0.7163 -0.4210  0.5059
16791TIP3   OH271863   5.341   0.912   4.645  0.0862 -0.6488 -0.1429
16791TIP3    H171864   5.365   0.878   4.732  0.2547  1.5609  0.7480
16791TIP3    H271865   5.421   0.951   4.612 -0.8020  1.6984  0.3278
16792TIP3   OH271866   0.956   2.331  16.245 -0.3006 -0.0775  0.1468
16792TIP3    H171867   0.909   2.398  16.294  1.7331  1.3412  0.2998
16792TIP3    H271868   1.013   2.380  16.186  0.0698 -1.7152 -0.9151
16793TIP3   OH271869   6.564   6.708  12.107  0.1282  0.0658  0.6854
16793TIP3    H171870   6.605   6.755  12.034  0.1503 -1.3563 -0.2570
16793TIP3    H271871   6.615   6.733  12.184 -0.2776  2.0719  0.3443
16794TIP3   OH271872   1.182   6.025  15.407  0.0451  0.6150  0.1717
16794TIP3    H171873   1.120   6.028  15.480 -0.2208  1.2678 -0.0793
16794TIP3    H271874   1.247   6.092  15.427  0.5655  0.0788  0.3239
16795TIP3   OH271875   0.451   1.141  11.673  0.8027  0.0456 -0.5319
16795TIP3    H171876   0.481   1.111  11.759  0.4453  0.5377 -0.2308
16795TIP3    H271877   0.380   1.202  11.692 -0.6241 -1.3105 -1.2367
16796TIP3   OH271878   3.637   5.735  12.906  0.2817  0.2665  0.1808
16796TIP3    H171879   3.656   5.816  12.859 -0.1539 -0.7047 -1.8159
16796TIP3    H271880   3.643   5.667  12.838 -0.3035 -1.2504  1.5865
16797TIP3   OH271881   2.446   4.256   2.717  0.4356  0.0526 -0.0140
16797TIP3    H171882   2.478   4.176   2.674  0.1792 -0.5839  0.9399
16797TIP3    H271883   2.525   4.304   2.742  0.5904  0.2507 -0.8471
16798TIP3   OH271884   6.119   4.272  12.333  0.1185  0.0689  0.6944
16798TIP3    H171885   6.071   4.313  12.260  0.3125  0.1183  0.5929
16798TIP3    H271886   6.144   4.345  12.389  2.0286  0.3392 -0.3976
16799TIP3   OH271887   1.230   6.014   6.031  0.1810  0.2792 -0.0241
16799TIP3    H171888   1.261   6.064   6.106  0.8260  1.2496 -0.8934
16799TIP3    H271889   1.183   5.940   6.068 -1.3357  1.8382  1.3441
16800TIP3   OH271890   1.752   2.119  10.753 -0.5651  0.8412  0.9625
16800TIP3    H171891   1.694   2.129  10.677  0.2355 -1.3803 -0.0153
16800TIP3    H271892   1.831   2.079  10.718  1.1560  2.6996  2.4722
16801TIP3   OH271893   6.758   2.260   5.497 -0.0898 -0.3175  0.0678
16801TIP3    H171894   6.685   2.297   5.548  0.2553 -0.1824  0.4733
16801TIP3    H271895   6.757   2.167   5.518  1.0279 -0.0396  1.6169
16802TIP3   OH271896   0.319   4.609  15.854  0.5015 -0.1164 -0.6783
16802TIP3    H171897   0.308   4.514  15.867 -0.1193 -0.1997 -1.6953
16802TIP3    H271898   0.341   4.642  15.941  0.3859 -1.1509 -0.2333
16803TIP3   OH271899   3.728   1.861   5.175  0.5745 -0.0378  0.0721
16803TIP3    H171900   3.775   1.942   5.196  1.5324 -0.6168  0.1990
16803TIP3    H271901   3.639   1.890   5.153  1.0070  1.0832 -0.2691
16804TIP3   OH271902   3.406   2.842   0.651 -0.4573 -0.5842  0.1792
16804TIP3    H171903   3.348   2.912   0.619  2.7317  1.4941 -1.6820
16804TIP3    H271904   3.462   2.886   0.715  0.7228 -1.7731 -0.0047
16805TIP3   OH271905   3.287   1.776   3.848 -0.1447 -0.0334 -0.2649
16805TIP3    H171906   3.300   1.804   3.939  1.7170  0.5154 -0.6636
16805TIP3    H271907   3.262   1.856   3.801  2.5309  0.5181 -0.8917
16806TIP3   OH271908   3.738   6.767   5.124  0.3456 -0.1606  0.6960
16806TIP3    H171909   3.781   6.782   5.208 -0.3150 -0.5370  1.1105
16806TIP3    H271910   3.706   6.677   5.129 -1.1841  0.3597  0.7324
16807TIP3   OH271911   4.475   4.692  15.187  0.0178 -0.5497 -0.0177
16807TIP3    H171912   4.506   4.762  15.243  0.6895  0.1354 -1.2120
16807TIP3    H271913   4.518   4.707  15.103 -1.7862 -0.8986 -1.0597
16808TIP3   OH271914   1.494   6.537  15.575  0.9127  0.2798 -0.2611
16808TIP3    H171915   1.432   6.558  15.504  1.8609  0.0191 -1.1901
16808TIP3    H271916   1.443   6.548  15.655 -0.0427  1.1260 -0.9549
16809TIP3   OH271917   1.413   3.876  13.590 -0.0524  0.5230 -0.1141
16809TIP3    H171918   1.422   3.801  13.532  0.0505 -0.0857  0.6622
16809TIP3    H271919   1.324   3.908  13.577 -0.0802  0.2902 -0.4823
16810TIP3   OH271920   0.583   1.816  15.029  0.3309  0.7193 -0.5051
16810TIP3    H171921   0.552   1.739  14.982 -0.4305  0.3616  0.5531
16810TIP3    H271922   0.675   1.796  15.049  0.0812 -0.0005 -0.0591
16811TIP3   OH271923   4.735   2.768  14.058  0.5694 -0.3967  0.3017
16811TIP3    H171924   4.721   2.821  13.979 -3.3110 -0.3086  0.8468
16811TIP3    H271925   4.756   2.681  14.024  1.7321  0.2508 -0.7245
16812TIP3   OH271926   2.483   1.720   4.050 -0.3257  0.0688 -0.3036
16812TIP3    H171927   2.459   1.768   3.971  0.7479  2.1120  0.5446
16812TIP3    H271928   2.499   1.630   4.019  0.0545  0.8058 -2.3986
16813TIP3   OH271929   4.299   4.221  15.563 -0.2780 -0.6671  0.0328
16813TIP3    H171930   4.259   4.148  15.517 -1.7921 -0.1745  0.5005
16813TIP3    H271931   4.261   4.299  15.521 -0.0626 -0.1860  0.7146
16814TIP3   OH271932   3.109   4.106   0.887  0.1775  1.2331 -0.3302
16814TIP3    H171933   3.133   4.064   0.969  2.6776  1.4593 -0.8724
16814TIP3    H271934   3.141   4.047   0.819 -1.2140  1.3967 -1.1595
16815TIP3   OH271935   1.027   3.981   3.198  0.3503 -0.3708  0.0887
16815TIP3    H171936   0.944   3.934   3.209  0.6228 -0.5654  1.4461
16815TIP3    H271937   1.026   4.048   3.266  0.4187  0.9767 -1.1929
16816TIP3   OH271938   6.184   4.086  15.227  0.3224  0.0845  0.0315
16816TIP3    H171939   6.209   4.082  15.134  0.1353  0.7693 -0.0567
16816TIP3    H271940   6.212   4.002  15.263 -1.7392 -1.2238 -1.1726
16817TIP3   OH271941   4.268   6.378  17.173 -0.0486  0.6891  0.4660
16817TIP3    H171942   4.312   6.428  17.242 -1.5608 -0.2696  2.2548
16817TIP3    H271943   4.221   6.309  17.221 -1.7142  0.3749 -1.4900
16818TIP3   OH271944   5.354   5.524  16.131 -0.0359 -0.1877 -0.1968
16818TIP3    H171945   5.437   5.571  16.126  0.6332 -1.4497 -1.5402
16818TIP3    H271946   5.365   5.462  16.203  0.5000 -0.9147 -0.8978
16819TIP3   OH271947   6.438   1.937   4.555  0.3371 -1.1854  0.4992
16819TIP3    H171948   6.531   1.954   4.574  0.0366 -0.0688  1.0179
16819TIP3    H271949   6.402   1.905   4.638 -0.2618  0.6818  1.0069
16820TIP3   OH271950   5.730   1.298   3.654 -0.7897 -0.0453  0.2596
16820TIP3    H171951   5.705   1.390   3.653  3.5061  1.3529 -2.0749
16820TIP3    H271952   5.695   1.262   3.573 -0.0415  0.3756 -0.2612
16821TIP3   OH271953   3.418   4.533   6.235  0.1071 -0.1644  0.5188
16821TIP3    H171954   3.438   4.480   6.312  1.9879 -2.3246 -1.3037
16821TIP3    H271955   3.445   4.479   6.161 -0.4076  2.3125 -1.6263
16822TIP3   OH271956   5.067   6.247  14.054 -1.2083  0.0782  0.2447
16822TIP3    H171957   5.148   6.196  14.056 -1.0982  0.2137 -0.3996
16822TIP3    H271958   5.043   6.249  13.961 -0.3387  2.5478  0.0187
16823TIP3   OH271959   6.404   4.359   5.083 -0.2061  0.0114  0.0307
16823TIP3    H171960   6.456   4.309   5.021 -0.1768 -0.4918  0.4469
16823TIP3    H271961   6.450   4.441   5.094  0.2663 -0.2560  0.0594
16824TIP3   OH271962   6.496   5.194  15.303 -0.1617  0.0664 -0.7920
16824TIP3    H171963   6.538   5.229  15.224 -2.0182  0.3440 -1.7059
16824TIP3    H271964   6.410   5.164  15.274 -1.1440  0.6973  1.2092
16825TIP3   OH271965   2.351   0.559  11.990  0.5251  0.1020 -0.3177
16825TIP3    H171966   2.333   0.626  11.925  0.9905  0.9949  0.4477
16825TIP3    H271967   2.381   0.608  12.067  0.3619 -0.9466  0.4340
16826TIP3   OH271968   0.669   4.003   3.567 -0.2834  0.1452  0.0263
16826TIP3    H171969   0.623   3.931   3.522 -3.0034  0.6088  1.8154
16826TIP3    H271970   0.705   3.962   3.645  0.4553  0.2360 -0.2629
16827TIP3   OH271971   5.497   5.326   4.647 -0.3188  0.9942  0.6149
16827TIP3    H171972   5.575   5.350   4.697  0.4278  0.6709 -0.3698
16827TIP3    H271973   5.446   5.407   4.644  0.0236  1.2390  1.1807
16828TIP3   OH271974   3.444   1.545  11.818 -0.0241  0.7206 -0.0371
16828TIP3    H171975   3.489   1.510  11.741 -1.0035  0.6858 -0.6205
16828TIP3    H271976   3.415   1.467  11.866  0.1937  0.7392  0.1229
16829TIP3   OH271977   4.304   3.075  14.540 -0.5848 -0.1673  0.4850
16829TIP3    H171978   4.391   3.098  14.506 -0.9255  1.5437  0.6586
16829TIP3    H271979   4.265   3.021  14.472 -0.6838  1.9274 -1.2064
16830TIP3   OH271980   5.212   3.032  14.532  0.3113  0.2182  0.1101
16830TIP3    H171981   5.192   2.952  14.484 -2.5052  0.7580  0.1701
16830TIP3    H271982   5.301   3.056  14.506 -0.0816 -1.0116 -2.6606
16831TIP3   OH271983   6.137   5.950  17.024  0.3526 -0.8166  0.1973
16831TIP3    H171984   6.060   6.008  17.023  0.8129 -0.1719 -1.6330
16831TIP3    H271985   6.171   5.955  16.935  4.2512  1.2432  1.5715
16832TIP3   OH271986   6.351   6.110   2.088 -0.3995  0.0996  0.2249
16832TIP3    H171987   6.329   6.152   2.172 -0.6496 -0.7985  0.6258
16832TIP3    H271988   6.290   6.036   2.082  0.4432 -0.5824 -0.1470
16833TIP3   OH271989   2.529   4.534  13.370  0.1805 -0.1485 -0.1833
16833TIP3    H171990   2.522   4.443  13.343 -0.9834  0.3024 -1.5118
16833TIP3    H271991   2.554   4.581  13.291  1.8992  0.5673  0.7308
16834TIP3   OH271992   4.656   6.392  14.447 -0.2513 -0.2622  0.3428
16834TIP3    H171993   4.694   6.419  14.530  2.5094 -0.1116 -0.8769
16834TIP3    H271994   4.634   6.300  14.459 -0.5697 -0.0628  1.4235
16835TIP3   OH271995   5.149   2.855   1.221  0.2544  0.0922  0.2291
16835TIP3    H171996   5.114   2.906   1.294 -1.5335  1.3485 -1.3944
16835TIP3    H271997   5.088   2.782   1.212  0.7505 -0.3322  0.2867
16836TIP3   OH271998   1.329   4.377  12.728 -0.0812  0.6794  0.1523
16836TIP3    H171999   1.378   4.295  12.737 -0.3017  0.2822 -1.8196
16836TIP3    H272000   1.354   4.411  12.642 -0.1229  2.6275  0.8540
16837TIP3   OH272001   3.812   5.102   5.738  0.0221 -0.2962  0.8986
16837TIP3    H172002   3.854   5.182   5.706 -2.7499  1.0597  0.3128
16837TIP3    H272003   3.884   5.045   5.764  2.2871  0.7664 -2.4580
16838TIP3   OH272004   1.394   6.641   6.145  0.1037  0.3034  0.2227
16838TIP3    H172005   1.478   6.680   6.168  0.0384  0.0133  0.9953
16838TIP3    H272006   1.402   6.550   6.173 -0.3601  0.1961  0.0175
16839TIP3   OH272007   2.668   4.105  11.857 -0.1005 -0.0215 -0.3393
16839TIP3    H172008   2.633   4.082  11.943 -0.4019 -0.2216 -0.5112
16839TIP3    H272009   2.654   4.199  11.849  1.7356  0.3761  0.6382
16840TIP3   OH272010   0.621   2.134  14.989 -0.2025 -0.2912  0.2789
16840TIP3    H172011   0.550   2.157  14.929 -1.7262 -0.1974  2.0458
16840TIP3    H272012   0.597   2.048  15.023  0.2124  0.0048  1.3628
16841TIP3   OH272013   6.773   4.483  14.066 -0.0155  0.4123  0.1858
16841TIP3    H172014   6.840   4.485  13.997  0.9968  0.2542  1.1329
16841TIP3    H272015   6.805   4.544  14.132 -1.5684  1.4700  0.0118
16842TIP3   OH272016   4.246   6.231   1.321  0.0169 -0.1043  0.1826
16842TIP3    H172017   4.340   6.240   1.309  0.0903  1.4645  1.5624
16842TIP3    H272018   4.209   6.307   1.276 -0.3734  0.6173  1.6443
16843TIP3   OH272019   3.426   2.219   5.236 -0.1731 -0.4314  0.2374
16843TIP3    H172020   3.375   2.299   5.225  2.7046  1.4468 -0.5791
16843TIP3    H272021   3.494   2.224   5.169  0.1203 -3.6365  0.1269
16844TIP3   OH272022   2.996   0.014   2.404 -0.3886  0.7794  0.3172
16844TIP3    H172023   3.066   0.074   2.381 -0.5525  0.7676 -0.2377
16844TIP3    H272024   2.921   0.070   2.423 -0.5163  0.7590 -0.1119
16845TIP3   OH272025   1.030   2.239  16.856 -0.0460 -0.0320  0.2465
16845TIP3    H172026   1.011   2.286  16.938 -0.2807  1.4498 -0.6227
16845TIP3    H272027   0.953   2.186  16.840 -1.3255  1.9247 -0.5012
16846TIP3   OH272028   1.773   2.676   5.222  0.1245 -0.3935  0.9212
16846TIP3    H172029   1.678   2.663   5.213  0.2047 -0.2574 -0.3114
16846TIP3    H272030   1.788   2.681   5.317 -1.1408 -0.0767  1.1175
16847TIP3   OH272031   2.187   2.324  10.904  0.1910 -0.5520 -0.5477
16847TIP3    H172032   2.282   2.338  10.908  0.3195  0.5577 -3.9714
16847TIP3    H272033   2.177   2.243  10.854 -0.5530  0.6718 -2.5204
16848TIP3   OH272034   3.852   0.452  14.829 -0.1845 -0.4859 -0.2046
16848TIP3    H172035   3.900   0.505  14.766  0.4075 -0.8122 -0.0351
16848TIP3    H272036   3.760   0.472  14.812  0.0166  0.4652 -0.2585
16849TIP3   OH272037   2.525   4.868   0.521  0.0284  0.3228 -0.0801
16849TIP3    H172038   2.481   4.834   0.599 -0.3741 -1.8661 -1.1991
16849TIP3    H272039   2.618   4.866   0.543 -0.0548 -0.6361  0.2336
16850TIP3   OH272040   3.312   5.951  16.540  0.1420 -0.0764  0.3824
16850TIP3    H172041   3.250   6.015  16.575  0.2184  0.5573 -0.5826
16850TIP3    H272042   3.267   5.866  16.549 -2.0690  0.5825 -2.5949
16851TIP3   OH272043   0.707   2.413  15.817 -0.2262  0.2194 -0.8158
16851TIP3    H172044   0.712   2.319  15.834 -0.4490 -0.0750 -2.2389
16851TIP3    H272045   0.776   2.429  15.752 -1.7220  0.5767 -2.3781
16852TIP3   OH272046   0.651   3.933  13.255 -0.1854  0.5042  0.6302
16852TIP3    H172047   0.704   3.879  13.314 -2.9579 -2.9682  0.2853
16852TIP3    H272048   0.575   3.957  13.308 -0.5137  1.3041 -0.1960
16853TIP3   OH272049   2.894   4.654  14.761 -0.6454 -0.1090 -0.0824
16853TIP3    H172050   2.884   4.709  14.683 -0.5744  0.5258  0.3515
16853TIP3    H272051   2.913   4.567  14.726  0.3602  0.3635 -0.7691
16854TIP3   OH272052   6.526   3.592  14.371  0.3134 -0.4293  0.0929
16854TIP3    H172053   6.442   3.608  14.413  0.3401  1.2241 -0.4111
16854TIP3    H272054   6.529   3.655  14.299  1.9220 -0.5483  0.0245
16855TIP3   OH272055   0.626   4.441   0.978  0.3366  0.7640  0.4070
16855TIP3    H172056   0.573   4.394   0.914 -0.4181  1.2277  0.6860
16855TIP3    H272057   0.682   4.374   1.017 -0.0593  0.2688  0.1259
16856TIP3   OH272058   6.319   5.452  12.597  0.5825  0.1765 -0.1433
16856TIP3    H172059   6.302   5.444  12.690  0.6776  0.7144 -0.0768
16856TIP3    H272060   6.363   5.370  12.573  0.1213 -0.1652  0.1803
16857TIP3   OH272061   4.402   4.258   1.042  0.3589 -0.4792 -0.5356
16857TIP3    H172062   4.368   4.337   1.084  1.6681  1.2407 -2.4864
16857TIP3    H272063   4.340   4.190   1.065 -1.9337  1.5244 -0.3504
16858TIP3   OH272064   2.613   2.291  12.603 -0.0744 -0.2465  0.6073
16858TIP3    H172065   2.680   2.265  12.667  0.7102  0.1916 -0.0157
16858TIP3    H272066   2.654   2.275  12.518 -1.6382 -2.1996  0.1676
16859TIP3   OH272067   3.860   5.713   5.142 -0.4731  0.3753  0.3733
16859TIP3    H172068   3.861   5.656   5.219 -1.6474 -2.6110 -1.5982
16859TIP3    H272069   3.769   5.742   5.135 -0.1548  1.4784  0.6362
16860TIP3   OH272070   0.171   0.953  15.900 -0.2610 -0.3262 -0.0152
16860TIP3    H172071   0.157   1.041  15.937  0.9361 -0.8350  1.7971
16860TIP3    H272072   0.116   0.951  15.822 -1.1247  1.6669  0.4695
16861TIP3   OH272073   0.236   3.802   2.956  0.2264 -0.6394 -0.5195
16861TIP3    H172074   0.279   3.870   3.009  0.6787 -2.9172  2.2955
16861TIP3    H272075   0.281   3.721   2.980 -1.9265 -2.3204 -1.7993
16862TIP3   OH272076   0.490   4.674   0.206  0.3014  0.2907  0.7225
16862TIP3    H172077   0.528   4.755   0.240 -0.3652  1.2769 -0.7754
16862TIP3    H272078   0.408   4.702   0.165 -1.5310 -1.6024  2.8051
16863TIP3   OH272079   1.111   3.491   1.749 -0.2740 -0.2667  0.4567
16863TIP3    H172080   1.105   3.585   1.733  1.6039 -0.1581  0.1364
16863TIP3    H272081   1.153   3.485   1.835  0.6768 -0.7954 -0.0339
16864TIP3   OH272082   1.337   2.159   5.192 -0.1377  0.7155 -0.3853
16864TIP3    H172083   1.320   2.248   5.222 -0.3496  0.5392  0.0305
16864TIP3    H272084   1.264   2.139   5.133 -0.3118  0.6765 -0.1610
16865TIP3   OH272085   0.391   1.204  16.386  0.7181  0.1596 -0.7682
16865TIP3    H172086   0.454   1.235  16.451  1.9090  1.0172 -2.2827
16865TIP3    H272087   0.437   1.133  16.340  1.0977  1.5727 -2.6783
16866TIP3   OH272088   3.926   0.857   2.722  0.2402  0.3412  0.2577
16866TIP3    H172089   3.895   0.885   2.808 -1.0539 -1.0813  0.3040
16866TIP3    H272090   3.918   0.935   2.667 -2.4513  0.3744  0.5502
16867TIP3   OH272091   4.123   2.305   4.920 -0.1862 -0.0656  0.1999
16867TIP3    H172092   4.085   2.329   4.835 -1.4600 -1.2614  0.3934
16867TIP3    H272093   4.204   2.258   4.897 -1.0394 -1.2856 -0.4305
16868TIP3   OH272094   1.383   4.022   5.219  0.6107  0.4288 -0.2732
16868TIP3    H172095   1.336   3.955   5.268 -0.5177  1.9900  0.8853
16868TIP3    H272096   1.428   4.074   5.286  0.5470  1.4906 -1.0246
16869TIP3   OH272097   3.654   0.461   6.862 -0.3555 -0.0917 -0.0872
16869TIP3    H172098   3.627   0.467   6.771 -0.1893  0.9584 -0.0709
16869TIP3    H272099   3.572   0.461   6.911 -0.4073  1.3682 -0.1355
16870TIP3   OH272100   6.377   6.849  12.432  0.0713  0.3148  0.6304
16870TIP3    H172101   6.327   6.903  12.493  0.5484  0.8272  0.5680
16870TIP3    H272102   6.371   6.760  12.469 -0.4247  0.4606  0.9138
16871TIP3   OH272103   1.394   2.528   6.215  0.4443  0.6474 -0.1380
16871TIP3    H172104   1.341   2.498   6.289 -2.0484 -0.9552 -2.3628
16871TIP3    H272105   1.462   2.461   6.206 -0.8380 -0.6320 -0.7967
16872TIP3   OH272106   6.636   0.114   5.636  0.2704  0.1417 -0.4837
16872TIP3    H172107   6.684   0.050   5.689 -0.4721 -1.2724 -1.4414
16872TIP3    H272108   6.635   0.076   5.548 -1.2496  0.8796 -0.8164
16873TIP3   OH272109   0.169   0.372   1.677 -1.1238 -0.2054 -0.0974
16873TIP3    H172110   0.141   0.447   1.624 -0.8882  0.2526  0.4092
16873TIP3    H272111   0.166   0.405   1.767 -0.8544 -0.7567  0.1171
16874TIP3   OH272112   3.523   3.523  13.680 -0.2203  0.3229  0.4334
16874TIP3    H172113   3.503   3.438  13.719 -1.2589  0.2017 -0.3234
16874TIP3    H272114   3.446   3.576  13.698  0.4199  1.1228  0.8963
16875TIP3   OH272115   5.876   2.314  11.964  0.5767  0.2526 -0.1468
16875TIP3    H172116   5.803   2.334  11.905 -1.1962 -0.1978  1.7442
16875TIP3    H272117   5.901   2.399  12.001  0.6156  0.3406 -0.3775
16876TIP3   OH272118   5.545   1.004  15.122 -0.0214 -0.1467  0.0351
16876TIP3    H172119   5.528   0.933  15.183  1.3924 -0.6379 -0.0938
16876TIP3    H272120   5.615   0.970  15.065 -0.1522  0.9101 -0.7880
16877TIP3   OH272121   2.440   1.605  15.729 -0.1023 -0.0982  0.6956
16877TIP3    H172122   2.398   1.663  15.792  1.0547 -0.1862  1.5799
16877TIP3    H272123   2.506   1.559  15.780 -0.6508 -1.8436 -0.0905
16878TIP3   OH272124   4.949   4.464   3.253  0.0679 -0.0731 -0.0602
16878TIP3    H172125   4.979   4.546   3.294 -0.9936  0.5199 -0.4328
16878TIP3    H272126   4.926   4.489   3.164 -2.3302 -0.2622  0.4264
16879TIP3   OH272127   3.199   1.742   1.573 -0.2901 -0.1814 -0.1025
16879TIP3    H172128   3.154   1.767   1.654  0.4112 -0.0121  0.2456
16879TIP3    H272129   3.211   1.648   1.580  1.1506  0.0287  0.7376
16880TIP3   OH272130   4.320   1.582   2.615 -0.1000 -0.0715  0.9166
16880TIP3    H172131   4.259   1.547   2.679  0.9094 -0.3900  1.7244
16880TIP3    H272132   4.264   1.617   2.545 -1.1864 -2.4679  0.4764
16881TIP3   OH272133   3.311   3.938   2.866 -0.1911 -0.1365 -0.1799
16881TIP3    H172134   3.244   3.901   2.808 -0.3474  1.7609 -1.2884
16881TIP3    H272135   3.295   3.896   2.950 -2.0070 -0.6354 -0.7204
16882TIP3   OH272136   3.972   2.569  11.409  0.3403 -0.3799 -0.2493
16882TIP3    H172137   3.965   2.624  11.332  0.2659  1.0011  0.7172
16882TIP3    H272138   3.881   2.555  11.437  0.3390 -1.2702 -0.6635
16883TIP3   OH272139   3.606   0.773  13.024  1.0259 -0.1974 -0.2620
16883TIP3    H172140   3.624   0.680  13.035  1.3422 -0.3000 -1.5049
16883TIP3    H272141   3.538   0.792  13.088  0.5560 -1.4079 -0.3860
16884TIP3   OH272142   1.337   6.340   0.518 -0.2614  0.1016 -0.2440
16884TIP3    H172143   1.273   6.403   0.483 -1.7151 -1.9000 -1.3910
16884TIP3    H272144   1.321   6.339   0.612 -1.0131  0.6064 -0.3575
16885TIP3   OH272145   6.725   3.971   4.076 -0.2509  0.6857  0.8449
16885TIP3    H172146   6.649   4.019   4.109  0.5790  1.4549  1.6566
16885TIP3    H272147   6.800   4.027   4.094  0.4338  0.4056 -0.8780
16886TIP3   OH272148   6.145   2.540  16.571  0.2730  0.1529 -0.1606
16886TIP3    H172149   6.237   2.514  16.572 -0.4311 -2.6877 -0.7709
16886TIP3    H272150   6.122   2.549  16.664  1.1075  0.7165 -0.0019
16887TIP3   OH272151   0.334   1.779  15.642  0.0702 -0.3746  0.2396
16887TIP3    H172152   0.348   1.734  15.559  0.2341 -0.7414  0.4665
16887TIP3    H272153   0.278   1.854  15.619  0.6080 -0.1334 -0.2995
16888TIP3   OH272154   1.489   2.380  13.550 -0.1532  0.4909 -0.1503
16888TIP3    H172155   1.468   2.467  13.581 -2.3434 -1.0365  3.2559
16888TIP3    H272156   1.584   2.372  13.563 -0.4649  1.1154  3.4249
16889TIP3   OH272157   0.195   5.902  13.850  0.0664 -0.4959  0.0759
16889TIP3    H172158   0.120   5.863  13.894  1.0214 -0.8304  1.4800
16889TIP3    H272159   0.216   5.980  13.901  1.9044 -1.5100  0.9763
16890TIP3   OH272160   4.124   2.191  12.377 -0.2660 -0.4165 -0.4180
16890TIP3    H172161   4.174   2.144  12.444  0.1581 -2.2528 -1.9463
16890TIP3    H272162   4.190   2.224  12.317 -0.6988  0.3909 -0.4601
16891TIP3   OH272163   3.767   0.639  15.720  0.0492 -0.0129 -0.2504
16891TIP3    H172164   3.764   0.545  15.739 -0.6125  0.1266  0.3943
16891TIP3    H272165   3.826   0.675  15.786 -0.0858  0.0886 -0.1839
16892TIP3   OH272166   2.201   4.408   2.028  0.0449 -0.3661  0.3419
16892TIP3    H172167   2.107   4.391   2.032 -0.0179 -0.8572 -2.1886
16892TIP3    H272168   2.239   4.345   2.089 -1.2149 -0.2135  1.3435
16893TIP3   OH272169   5.265   4.928  15.601 -0.0571  0.4899  0.1671
16893TIP3    H172170   5.175   4.902  15.580  0.0268  0.3888 -0.0746
16893TIP3    H272171   5.315   4.846  15.596  0.2626  0.7228 -0.8754
16894TIP3   OH272172   0.435   3.826   2.278  0.4106 -0.3862  0.2971
16894TIP3    H172173   0.372   3.773   2.229 -0.2939  0.6922 -0.0063
16894TIP3    H272174   0.495   3.763   2.317  0.7088 -1.3151 -1.5638
16895TIP3   OH272175   0.389   6.607   5.430  0.0543 -0.0901 -0.1793
16895TIP3    H172176   0.340   6.561   5.498 -0.0249 -0.3020 -0.3769
16895TIP3    H272177   0.472   6.629   5.471 -0.6216  1.2465  0.5054
16896TIP3   OH272178   4.939   5.887   0.777 -0.7634  0.2054  0.6091
16896TIP3    H172179   4.853   5.846   0.770 -0.6620  0.0781  0.0930
16896TIP3    H272180   4.974   5.884   0.688  0.1582 -0.5808  0.9825
16897TIP3   OH272181   4.019   6.452  15.020  0.0261 -0.1657  0.1184
16897TIP3    H172182   3.926   6.430  15.016 -0.1460  0.3528  1.0550
16897TIP3    H272183   4.057   6.412  14.942 -1.3212  1.2106 -1.3133
16898TIP3   OH272184   5.586   4.936  15.494  0.1751 -0.0194  0.5081
16898TIP3    H172185   5.634   4.966  15.571  1.7577 -1.3496  0.0923
16898TIP3    H272186   5.502   4.906  15.528 -0.1203  1.6619  1.3561
16899TIP3   OH272187   6.785   1.471   1.658  0.0662 -0.0316  0.2945
16899TIP3    H172188   6.780   1.390   1.608 -3.0731 -0.7236  1.5476
16899TIP3    H272189   6.752   1.538   1.598 -0.2413 -0.2256  0.2454
16900TIP3   OH272190   5.463   4.668  15.556  0.1190 -0.6190  0.0992
16900TIP3    H172191   5.484   4.638  15.467 -0.4635  0.9131 -0.6009
16900TIP3    H272192   5.468   4.590  15.610 -0.6718 -1.8369 -1.5044
16901TIP3   OH272193   2.669   6.049   0.800  0.0550 -0.1677 -0.4630
16901TIP3    H172194   2.701   6.055   0.710  2.0785  1.9052  0.2883
16901TIP3    H272195   2.739   6.004   0.847 -0.5425 -0.3753  0.2487
16902TIP3   OH272196   6.468   0.266   1.635  0.3897 -0.5398 -0.0457
16902TIP3    H172197   6.463   0.261   1.540  2.8609 -1.9458 -0.1873
16902TIP3    H272198   6.427   0.185   1.665 -2.0401  0.7022  0.2819
16903TIP3   OH272199   3.699   3.457  10.972  0.5373 -0.2990  0.0552
16903TIP3    H172200   3.723   3.526  11.034 -2.3755  0.8075  0.1027
16903TIP3    H272201   3.640   3.400  11.021 -1.2399  0.1883 -1.3869
16904TIP3   OH272202   4.309   0.674  11.570  0.1866 -0.3844  0.3983
16904TIP3    H172203   4.292   0.605  11.635 -0.4766 -1.3856 -0.7909
16904TIP3    H272204   4.246   0.742  11.591  0.6599 -0.2506  1.4235
16905TIP3   OH272205   4.347   0.300  16.676  0.0268  0.5726 -0.1317
16905TIP3    H172206   4.417   0.249  16.717  1.1007  0.7772 -1.6073
16905TIP3    H272207   4.301   0.341  16.749 -0.0913 -1.4912  1.0211
16906TIP3   OH272208   2.767   2.437  13.279 -0.0791 -0.6477 -0.1146
16906TIP3    H172209   2.796   2.431  13.187 -1.1913 -0.5352 -0.4865
16906TIP3    H272210   2.848   2.446  13.329  0.6479 -2.2010 -0.9439
16907TIP3   OH272211   3.504   5.495   5.035 -0.5088  0.4199  0.0292
16907TIP3    H172212   3.554   5.573   5.010 -2.8439  2.3927  1.0712
16907TIP3    H272213   3.494   5.503   5.130 -0.8898 -1.1319  0.1495
16908TIP3   OH272214   5.159   0.225   0.675  0.1403  0.5726 -0.0718
16908TIP3    H172215   5.224   0.294   0.686  2.2566 -1.3241  0.0295
16908TIP3    H272216   5.194   0.170   0.605 -2.3406  0.4915 -1.3675
16909TIP3   OH272217   1.574   6.825   4.500 -0.3298 -0.2239  0.1481
16909TIP3    H172218   1.553   6.744   4.547 -0.2966  0.2915  1.0813
16909TIP3    H272219   1.548   6.895   4.560 -2.1117  0.5042 -1.3821
16910TIP3   OH272220   4.563   3.260  15.747  0.0986  0.2774  0.2938
16910TIP3    H172221   4.612   3.296  15.673  0.2842  1.1986  0.8508
16910TIP3    H272222   4.494   3.324  15.764 -0.5286 -0.3849  0.3362
16911TIP3   OH272223   6.213   6.665  12.656 -0.7325  0.2297  0.2886
16911TIP3    H172224   6.304   6.675  12.629 -0.3292 -0.6363  1.2660
16911TIP3    H272225   6.207   6.575  12.688 -1.5629  0.7327  1.6015
16912TIP3   OH272226   2.194   2.448  10.454 -0.7971  0.3817 -0.3516
16912TIP3    H172227   2.156   2.510  10.516 -3.3562 -2.0244  0.7171
16912TIP3    H272228   2.198   2.365  10.502  0.5697 -0.7697 -2.3043
16913TIP3   OH272229   0.108   5.360   5.331  0.4053 -0.2536 -0.0943
16913TIP3    H172230   0.105   5.439   5.386  0.0148 -0.4183  0.1240
16913TIP3    H272231   0.181   5.309   5.367  0.5604 -0.0649 -0.1387
16914TIP3   OH272232   0.003   3.052   4.869  0.3117 -0.4185  0.4519
16914TIP3    H172233   0.035   3.111   4.800  0.0520  0.2231  0.8662
16914TIP3    H272234   0.007   3.105   4.949  0.2062 -1.0158  0.8622
16915TIP3   OH272235   2.655   1.934   6.006 -0.3805  0.7938  0.4286
16915TIP3    H172236   2.730   1.892   6.048  0.1586  2.2195  0.9295
16915TIP3    H272237   2.692   1.981   5.932 -0.7943  1.3325  0.5562
16916TIP3   OH272238   0.715   0.157  15.298 -0.9037 -0.8324  0.3440
16916TIP3    H172239   0.653   0.172  15.369 -1.8497 -0.2232 -0.5735
16916TIP3    H272240   0.711   0.237  15.246  0.2072 -1.0344 -0.0837
16917TIP3   OH272241   4.034   3.863   3.614 -0.1453 -0.2797  0.6662
16917TIP3    H172242   4.034   3.909   3.530  0.6924 -1.1575  0.1624
16917TIP3    H272243   4.075   3.924   3.675  0.9688 -0.3213  0.0033
16918TIP3   OH272244   4.025   4.727   3.027  0.1891 -0.0903 -0.9213
16918TIP3    H172245   3.953   4.667   3.049 -0.3692  0.7856 -0.2961
16918TIP3    H272246   4.066   4.748   3.111 -0.5104  1.4878 -0.9428
16919TIP3   OH272247   6.171   2.279  16.912  0.1964  0.0121 -0.2658
16919TIP3    H172248   6.206   2.267  17.001 -2.1700 -0.1182  0.7211
16919TIP3    H272249   6.208   2.363  16.884  0.2099  0.5715  1.2778
16920TIP3   OH272250   0.341   0.473  12.632 -0.3295  0.2489  0.1539
16920TIP3    H172251   0.259   0.424  12.624 -0.4357  0.4455  0.0512
16920TIP3    H272252   0.363   0.498  12.542  0.1813 -0.3581  0.0948
16921TIP3   OH272253   3.445   4.492   4.654  0.9038  0.9225 -0.5245
16921TIP3    H172254   3.372   4.551   4.674  1.6954  1.8261 -0.2569
16921TIP3    H272255   3.402   4.411   4.624 -0.2326  0.8964  1.0314
16922TIP3   OH272256   0.712   0.666  11.287  0.4773 -0.1578  0.2636
16922TIP3    H172257   0.695   0.675  11.193 -0.8524 -0.5525  0.4566
16922TIP3    H272258   0.724   0.756  11.317  1.2240 -0.0496 -0.3334
16923TIP3   OH272259   2.074   0.034   2.713 -0.0263 -0.0134  0.0346
16923TIP3    H172260   2.049  -0.034   2.774  0.6544 -0.9222 -0.6659
16923TIP3    H272261   2.009   0.103   2.725 -0.3253 -0.4857  1.2414
16924TIP3   OH272262   5.823   1.884  15.160  0.1640  0.1867  0.0290
16924TIP3    H172263   5.790   1.803  15.120 -1.8572  0.9152  0.0862
16924TIP3    H272264   5.850   1.858  15.248 -1.0201 -0.3435  0.2538
16925TIP3   OH272265   5.788   6.054  11.978  0.0972  0.5838  0.7652
16925TIP3    H172266   5.747   6.122  12.032  2.0415  2.0593  0.4804
16925TIP3    H272267   5.880   6.055  12.004  0.6154 -0.3268 -0.8950
16926TIP3   OH272268   0.722   4.649  16.273  0.2779  0.5637 -0.2975
16926TIP3    H172269   0.663   4.723  16.257  0.3700  1.0999  1.6457
16926TIP3    H272270   0.676   4.594  16.337  0.9109 -0.2179 -0.4931
16927TIP3   OH272271   3.747   1.110   0.049  0.6048  0.1998 -0.4091
16927TIP3    H172272   3.656   1.084   0.067  1.1051 -1.2993  0.0493
16927TIP3    H272273   3.749   1.124  -0.046 -0.0664  0.0854 -0.4438
16928TIP3   OH272274   2.805   0.111  16.579  0.0748  0.5125 -0.3916
16928TIP3    H172275   2.784   0.089  16.670 -1.8444 -0.9756 -1.1436
16928TIP3    H272276   2.888   0.066  16.563  0.5620  0.9875  0.6763
16929TIP3   OH272277   5.751   4.749  11.244 -0.2283 -0.0586 -0.4330
16929TIP3    H172278   5.729   4.770  11.335 -0.6481 -0.8645 -0.3343
16929TIP3    H272279   5.719   4.660  11.232  1.1603 -0.5161 -0.9295
16930TIP3   OH272280   3.573   5.287   3.128 -0.5312  0.1847  0.1593
16930TIP3    H172281   3.577   5.345   3.052 -0.5919 -2.2929 -1.8807
16930TIP3    H272282   3.657   5.242   3.129 -1.0896 -0.8961  0.6377
16931TIP3   OH272283   4.276   3.728   0.009  0.7518 -0.5074 -0.7387
16931TIP3    H172284   4.317   3.790  -0.052  0.6851  0.3645  0.0900
16931TIP3    H272285   4.328   3.735   0.088 -0.6279  0.2007  0.1468
16932TIP3   OH272286   3.683   4.744   2.641 -0.1299  0.5321 -0.3598
16932TIP3    H172287   3.691   4.699   2.557 -3.8964  0.9559 -1.1231
16932TIP3    H272288   3.615   4.809   2.627 -0.2398  1.2643  2.7826
16933TIP3   OH272289   1.262   6.835   4.276  0.2961  0.5136  0.1359
16933TIP3    H172290   1.260   6.770   4.346  0.8693  1.9563  1.5612
16933TIP3    H272291   1.173   6.835   4.241  0.8741 -2.8490 -1.7481
16934TIP3   OH272292   4.235   3.397  15.205  0.4125 -0.3025 -0.1505
16934TIP3    H172293   4.184   3.317  15.193  0.3215 -0.0107 -1.8618
16934TIP3    H272294   4.194   3.462  15.148  0.2315  1.1326  1.5106
16935TIP3   OH272295   1.579   1.897   1.693  0.5447 -0.2064  0.1583
16935TIP3    H172296   1.499   1.943   1.665  0.3026  0.3039  1.6195
16935TIP3    H272297   1.643   1.967   1.707  0.4131 -0.3673  1.6470
16936TIP3   OH272298   5.450   0.625  16.934 -0.2052 -0.3646 -0.5840
16936TIP3    H172299   5.474   0.637  16.842  0.8466 -0.9499 -0.4088
16936TIP3    H272300   5.400   0.544  16.936 -2.2813  0.8304 -0.9442
16937TIP3   OH272301   2.092   0.480  12.012  0.2311 -0.0015 -0.4055
16937TIP3    H172302   2.186   0.494  12.020  0.0760  0.5027  0.7450
16937TIP3    H272303   2.084   0.394  11.971  1.2000 -0.2280 -0.1448
16938TIP3   OH272304   4.446   5.419   2.334 -0.0837 -0.0305 -0.1974
16938TIP3    H172305   4.540   5.427   2.323 -0.1758  0.2265 -0.8490
16938TIP3    H272306   4.434   5.398   2.427  0.6739 -1.1854 -0.3355
16939TIP3   OH272307   2.293   2.755   1.026 -0.9809  0.4285  0.4153
16939TIP3    H172308   2.272   2.847   1.041 -2.8137 -0.0371  1.0731
16939TIP3    H272309   2.386   2.748   1.043  0.0714  2.8125 -3.1171
16940TIP3   OH272310   4.835   3.992   4.120 -0.1081  0.6463 -0.3889
16940TIP3    H172311   4.895   4.067   4.118 -2.6988  2.8154 -1.1861
16940TIP3    H272312   4.843   3.953   4.033  0.5801  0.5049 -0.2719
16941TIP3   OH272313   3.120   1.690  14.212 -0.0846  0.2532 -0.2509
16941TIP3    H172314   3.099   1.778  14.244 -0.4015  0.5315 -1.1845
16941TIP3    H272315   3.170   1.705  14.132 -0.1841 -0.4193 -0.4440
16942TIP3   OH272316   1.246   1.814   5.238  0.1945  0.2174  0.1961
16942TIP3    H172317   1.309   1.829   5.308  1.0255 -2.5598  0.1669
16942TIP3    H272318   1.167   1.860   5.267  0.8169 -0.0120  2.4806
16943TIP3   OH272319   3.975   3.259  13.774 -0.1052 -0.2630 -0.0685
16943TIP3    H172320   4.023   3.280  13.694 -1.5622  0.4292 -0.7982
16943TIP3    H272321   3.992   3.333  13.833 -0.1006 -0.1276 -0.2395
16944TIP3   OH272322   6.085   4.861   1.522  0.2380 -0.0322  0.0824
16944TIP3    H172323   6.152   4.889   1.460 -0.1298 -0.1992 -0.3953
16944TIP3    H272324   6.107   4.907   1.603 -0.2344  1.4605 -0.6158
16945TIP3   OH272325   3.813   1.755  16.948  0.4086 -0.0279 -0.6156
16945TIP3    H172326   3.904   1.746  16.920  0.4205  2.0198 -1.4160
16945TIP3    H272327   3.815   1.826  17.012 -0.7825  1.0306 -1.6925
16946TIP3   OH272328   6.202   5.357  16.145  0.4861  0.3965 -0.1481
16946TIP3    H172329   6.193   5.379  16.238 -0.0803  0.0496 -0.1167
16946TIP3    H272330   6.217   5.441  16.102 -2.4612  1.0194 -0.1489
16947TIP3   OH272331   0.630   1.932   6.111  0.0874 -0.7995  0.1360
16947TIP3    H172332   0.684   1.855   6.129  1.3099 -0.0606 -0.2397
16947TIP3    H272333   0.646   1.951   6.018  0.3466  0.2980  0.3921
16948TIP3   OH272334   2.822   2.336  13.643  0.0993 -0.1215 -0.3530
16948TIP3    H172335   2.771   2.294  13.574  0.1155 -0.8539  0.0740
16948TIP3    H272336   2.758   2.357  13.711 -0.3808  2.9332 -1.6173
16949TIP3   OH272337   1.726   0.003  15.815  0.0272  0.1770 -0.1190
16949TIP3    H172338   1.751  -0.067  15.754 -0.7993 -0.4024  0.1887
16949TIP3    H272339   1.793   0.001  15.883  0.0446 -0.2803 -0.1442
16950TIP3   OH272340   2.933   6.741  11.584 -0.3587  0.5364 -0.4540
16950TIP3    H172341   2.903   6.740  11.493 -1.2383 -0.6775 -0.1700
16950TIP3    H272342   2.860   6.777  11.634 -0.3326  0.0938 -0.0881
16951TIP3   OH272343   3.771   3.023  11.536 -0.2786 -0.4998  0.2225
16951TIP3    H172344   3.746   3.094  11.476  2.0001 -0.2406 -0.5283
16951TIP3    H272345   3.734   3.049  11.620 -0.2711  1.1283 -0.2311
16952TIP3   OH272346   6.296   5.085   3.105 -0.1074  0.1212  0.1939
16952TIP3    H172347   6.370   5.062   3.049 -1.7034 -1.8099 -1.2573
16952TIP3    H272348   6.227   5.111   3.045 -1.8144 -1.8109  1.1897
16953TIP3   OH272349   1.987   5.058  16.497 -0.0358 -0.3556 -0.0106
16953TIP3    H172350   2.063   5.103  16.458 -0.9390  0.4009 -0.9402
16953TIP3    H272351   1.961   5.114  16.570  0.6552 -0.9345  0.6999
16954TIP3   OH272352   5.429   0.777  15.996  0.2371  0.0046  0.4459
16954TIP3    H172353   5.392   0.707  16.050  1.6122 -0.4527  0.8372
16954TIP3    H272354   5.360   0.797  15.932 -1.4307  0.5021  2.2643
16955TIP3   OH272355   2.320   4.380   4.539  0.3542  0.1962 -0.0836
16955TIP3    H172356   2.366   4.347   4.462  0.2746  0.0559 -0.0717
16955TIP3    H272357   2.229   4.355   4.525  0.2737  0.5165 -0.1309
16956TIP3   OH272358   4.445   0.606  16.330  0.2125  0.0191 -0.0656
16956TIP3    H172359   4.488   0.568  16.254  0.9221 -0.6226  0.6484
16956TIP3    H272360   4.430   0.697  16.306 -1.3014 -0.6047 -1.7182
16957TIP3   OH272361   2.660   1.190  15.862  0.1710 -0.0616  0.5081
16957TIP3    H172362   2.571   1.157  15.874  0.6551 -1.2470  1.0885
16957TIP3    H272363   2.671   1.195  15.767 -1.1555  2.0307  0.4017
16958TIP3   OH272364   0.020   5.050  14.214  0.5326  0.1788  0.1698
16958TIP3    H172365   0.061   5.045  14.127  1.6287  0.4252  0.6543
16958TIP3    H272366   0.036   5.140  14.242  0.5842 -0.0291  0.8148
16959TIP3   OH272367   3.625   2.091   4.529  0.0718  0.1088  0.0372
16959TIP3    H172368   3.680   2.042   4.590  1.5206  0.9507 -0.5295
16959TIP3    H272369   3.670   2.083   4.445 -0.3195  1.3478 -0.3124
16960TIP3   OH272370   3.669   4.279   4.153  0.3760  0.1408  0.4087
16960TIP3    H172371   3.663   4.374   4.147  1.7047  0.3543  1.8372
16960TIP3    H272372   3.614   4.255   4.227 -2.9346 -0.6856 -2.0842
16961TIP3   OH272373   5.796   6.549  13.247  0.6476  0.0127 -0.5808
16961TIP3    H172374   5.741   6.620  13.279  0.6676 -0.1955 -0.0794
16961TIP3    H272375   5.838   6.585  13.168  1.5702  0.9829  0.3079
16962TIP3   OH272376   6.841   0.973  15.608 -0.3638 -0.2342  0.3683
16962TIP3    H172377   6.747   0.983  15.620 -0.5914 -1.3644 -0.3809
16962TIP3    H272378   6.852   0.884  15.575  0.9281  0.0443 -0.0036
16963TIP3   OH272379   2.900   5.724   6.242 -0.5584 -0.5957  0.3745
16963TIP3    H172380   2.975   5.670   6.267  1.8563  1.4587 -1.7576
16963TIP3    H272381   2.831   5.699   6.302  0.9957 -4.4897  0.8242
16964TIP3   OH272382   0.517   2.395  14.202 -0.6391 -0.2939 -0.2614
16964TIP3    H172383   0.476   2.314  14.233  0.2731 -2.0371 -3.1353
16964TIP3    H272384   0.611   2.378  14.209 -0.3889  1.2894  0.7269
16965TIP3   OH272385   4.004   2.451  15.406 -0.7382 -0.2618  0.8623
16965TIP3    H172386   3.979   2.417  15.492 -0.8543  0.8222  1.2715
16965TIP3    H272387   3.974   2.542  15.407  1.7133  0.6358  0.7614
16966TIP3   OH272388   2.831   6.745   2.002  0.4072  0.7399 -0.1195
16966TIP3    H172389   2.767   6.749   2.073  2.0831  0.8728  1.4912
16966TIP3    H272390   2.887   6.822   2.017  1.7596 -0.1170 -0.5752
16967TIP3   OH272391   3.536   3.724   0.635  0.2041 -0.0065 -0.0231
16967TIP3    H172392   3.547   3.817   0.612 -1.8600  0.5179  0.9285
16967TIP3    H272393   3.529   3.679   0.551  4.1225  0.1810 -0.6390
16968TIP3   OH272394   4.564   2.844   0.730 -0.3825  0.7774 -0.3753
16968TIP3    H172395   4.529   2.823   0.643 -1.4724 -2.2100  0.6393
16968TIP3    H272396   4.496   2.814   0.791  1.0735  1.1746  1.5383
16969TIP3   OH272397   2.296   0.057   6.154  0.1120 -0.4755 -0.1628
16969TIP3    H172398   2.350  -0.020   6.173 -0.5225 -1.2933 -1.5435
16969TIP3    H272399   2.274   0.048   6.061 -2.2678 -0.1012  0.3173
16970TIP3   OH272400   1.780   2.349   4.493 -0.0984 -0.3319 -0.6899
16970TIP3    H172401   1.751   2.437   4.519  0.1736  0.2241 -2.1587
16970TIP3    H272402   1.705   2.293   4.508 -0.6002  0.3399 -0.6472
16971TIP3   OH272403   4.672   0.939  11.552  0.2199  0.7132  0.3091
16971TIP3    H172404   4.733   0.926  11.479  1.4416  0.7181  1.3066
16971TIP3    H272405   4.646   1.031  11.545 -0.4195  0.4784 -0.6614
16972TIP3   OH272406   0.863   6.333  17.061 -0.4154  0.4190 -0.2812
16972TIP3    H172407   0.781   6.379  17.080 -0.8428 -0.4673  0.0936
16972TIP3    H272408   0.919   6.353  17.136 -0.5881  0.3464 -0.1308
16973TIP3   OH272409   6.687   3.411  17.102  0.1760  0.2406  0.1097
16973TIP3    H172410   6.737   3.493  17.096  0.1708  0.3448  1.2781
16973TIP3    H272411   6.671   3.400  17.196 -1.6704  0.0148 -0.1964
16974TIP3   OH272412   6.129   2.538   5.328  0.2899  0.1617  0.0860
16974TIP3    H172413   6.075   2.617   5.338  0.4335  0.2076  0.5524
16974TIP3    H272414   6.070   2.466   5.350 -0.4079 -0.0550 -2.2102
16975TIP3   OH272415   4.569   3.989  15.003  0.0053 -0.1604  0.1802
16975TIP3    H172416   4.559   3.894  15.005  2.9288 -0.5668 -0.5471
16975TIP3    H272417   4.479   4.023  15.001 -1.1007 -2.9398 -1.4680
16976TIP3   OH272418   1.545   0.706  16.549  0.4066 -0.2836 -0.2504
16976TIP3    H172419   1.494   0.768  16.602 -0.8396 -1.5669  0.1098
16976TIP3    H272420   1.633   0.708  16.588 -0.1526 -0.2648  1.0872
16977TIP3   OH272421   0.598   0.902   2.454  0.2940 -0.3523 -0.2414
16977TIP3    H172422   0.616   0.809   2.441 -0.4717 -0.5614  0.1272
16977TIP3    H272423   0.511   0.904   2.494  0.5702  0.4944  0.3384
16978TIP3   OH272424   2.309   5.475  11.132  0.1950  0.1251 -0.3230
16978TIP3    H172425   2.293   5.551  11.077  1.0896  0.4263 -0.1910
16978TIP3    H272426   2.293   5.400  11.075 -3.4536  0.2696  0.2797
16979TIP3   OH272427   0.394   0.552   2.954  0.0375  0.4284  0.0634
16979TIP3    H172428   0.371   0.537   3.046  1.2351 -1.7877  0.0728
16979TIP3    H272429   0.486   0.579   2.956  0.2139 -0.1080 -0.4981
16980TIP3   OH272430   3.576   3.368  10.656 -0.3422  0.2206  0.6632
16980TIP3    H172431   3.559   3.451  10.700  1.4055  1.2841 -0.5465
16980TIP3    H272432   3.635   3.320  10.715  2.0926  1.6880 -0.4391
16981TIP3   OH272433   4.238   3.984  15.471 -0.3016  0.2359  0.5689
16981TIP3    H172434   4.197   3.992  15.384 -1.3708  0.3883  1.0753
16981TIP3    H272435   4.258   3.891  15.479 -1.6778 -0.0616  0.7985
16982TIP3   OH272436   6.607   3.338  11.490  0.2207 -0.4710 -0.2999
16982TIP3    H172437   6.551   3.263  11.510  1.5782 -1.9376 -1.7548
16982TIP3    H272438   6.667   3.343  11.565  0.8512 -1.5654 -0.7222
16983TIP3   OH272439   5.755   2.179  11.429  0.1641 -0.0551 -0.2024
16983TIP3    H172440   5.762   2.093  11.470  1.1104  0.6258  1.1408
16983TIP3    H272441   5.778   2.164  11.337  1.9486 -0.9898  0.3465
16984TIP3   OH272442   4.307   1.301  10.643  0.0114  0.2174  0.3751
16984TIP3    H172443   4.394   1.341  10.635 -0.3583  1.0102  0.2422
16984TIP3    H272444   4.325   1.212  10.672  0.8574  0.4958  0.7513
16985TIP3   OH272445   6.169   4.467  16.903 -0.1335 -0.0772  0.4149
16985TIP3    H172446   6.126   4.520  16.836 -0.1249 -0.2880  0.2414
16985TIP3    H272447   6.108   4.466  16.977  0.7434  1.9230  1.2580
16986TIP3   OH272448   1.239   1.084   5.133 -0.0300  0.3742  0.2720
16986TIP3    H172449   1.249   0.998   5.173  0.9249  0.6621  0.6829
16986TIP3    H272450   1.173   1.128   5.186  0.8397  0.5588  1.2365
16987TIP3   OH272451   5.255   4.596  15.042  0.2395 -0.5069 -0.1273
16987TIP3    H172452   5.303   4.544  15.106  0.3680 -0.4034 -0.1399
16987TIP3    H272453   5.190   4.644  15.094  1.0572  0.4196  0.0752
16988TIP3   OH272454   5.493   2.703   3.779  0.9677 -0.1190  0.2016
16988TIP3    H172455   5.459   2.668   3.861  0.8397 -1.0305 -0.2238
16988TIP3    H272456   5.460   2.793   3.775  0.8927 -0.1028  1.0941
16989TIP3   OH272457   2.645   2.204  12.337  0.6480 -0.1215 -0.1156
16989TIP3    H172458   2.654   2.109  12.328  1.5252 -0.1062  0.4493
16989TIP3    H272459   2.716   2.241  12.285  0.9289  0.1851  0.4659
16990TIP3   OH272460   0.423   4.186  12.210  0.1107 -0.0422 -0.0208
16990TIP3    H172461   0.470   4.141  12.140 -0.0763  0.3265 -0.3869
16990TIP3    H272462   0.370   4.252  12.165 -0.6726 -0.3778  0.3881
16991TIP3   OH272463   4.571   6.409  10.767  0.2437 -0.1139 -0.0397
16991TIP3    H172464   4.643   6.470  10.779  0.1923  0.0484 -0.5462
16991TIP3    H272465   4.611   6.322  10.776  0.5154 -0.0254 -0.4134
16992TIP3   OH272466   1.929   5.527   3.348  0.1782  0.3047 -0.0405
16992TIP3    H172467   1.997   5.593   3.339 -0.3777  0.7323 -1.3627
16992TIP3    H272468   1.953   5.478   3.426  0.8212  1.8032  0.7393
16993TIP3   OH272469   0.843   4.454   4.775 -0.4395 -0.5551 -0.1307
16993TIP3    H172470   0.748   4.441   4.769 -0.6846  1.0086 -0.2283
16993TIP3    H272471   0.862   4.516   4.704  0.4690  0.0354  0.6151
16994TIP3   OH272472   0.397   6.410   3.656  0.0790 -0.3758 -0.4009
16994TIP3    H172473   0.349   6.402   3.739 -1.6443 -1.2915 -1.4388
16994TIP3    H272474   0.401   6.321   3.621  1.7845 -0.1855 -0.8094
16995TIP3   OH272475   5.855   6.284  13.140 -0.0182 -0.4706  0.1018
16995TIP3    H172476   5.842   6.351  13.207 -0.3909 -0.7267  0.2861
16995TIP3    H272477   5.879   6.206  13.190  1.1414 -0.3007 -0.1520
16996TIP3   OH272478   1.583   4.197  13.917 -0.7173 -0.4230  0.3715
16996TIP3    H172479   1.561   4.105  13.901  2.0452 -1.0450 -0.3240
16996TIP3    H272480   1.603   4.232  13.830  1.4704 -0.1190  0.9458
16997TIP3   OH272481   0.594   3.051   5.689 -0.2494 -0.1004 -0.3055
16997TIP3    H172482   0.650   3.044   5.611 -0.8462 -1.6794 -0.6151
16997TIP3    H272483   0.596   3.145   5.711  3.5399 -0.1816  0.4683
16998TIP3   OH272484   2.658   1.502  14.335  0.1135  0.0923 -0.2112
16998TIP3    H172485   2.750   1.510  14.358  0.9475 -2.7582 -2.0817
16998TIP3    H272486   2.639   1.409  14.343 -2.4650  0.5034 -0.5109
16999TIP3   OH272487   3.324   2.015   2.919  0.0814  0.8735 -0.2749
16999TIP3    H172488   3.280   2.044   2.840 -0.8782  1.3342  0.4091
16999TIP3    H272489   3.348   2.096   2.965 -1.5804  0.6402  1.0826
17000TIP3   OH272490   4.546   1.623  15.050  0.4306 -0.4897 -0.3600
17000TIP3    H172491   4.470   1.571  15.075  0.2348  0.7582  1.8514
17000TIP3    H272492   4.513   1.713  15.045  1.5858 -0.0338 -0.1421
17001TIP3   OH272493   1.435   2.722  11.757 -0.0678  0.4895 -0.1332
17001TIP3    H172494   1.344   2.718  11.785  0.4095  0.3106  1.4932
17001TIP3    H272495   1.477   2.778  11.822  0.5443  2.5384 -2.1611
17002TIP3   OH272496   1.384   4.162  15.509 -0.7738 -0.4613  0.3437
17002TIP3    H172497   1.301   4.120  15.533 -1.0397 -0.0914  0.0723
17002TIP3    H272498   1.431   4.171  15.592 -2.3262  2.2492  1.0305
17003TIP3   OH272499   5.838   6.242   0.499 -0.2648 -0.6229 -0.1429
17003TIP3    H172500   5.915   6.217   0.550 -1.0549 -0.1248  1.3521
17003TIP3    H272501   5.766   6.244   0.563 -0.8554  2.3901 -0.7593
17004TIP3   OH272502   6.549   1.645   2.153 -0.3097  0.2408  0.2883
17004TIP3    H172503   6.556   1.704   2.228 -1.7523 -0.3202  0.9016
17004TIP3    H272504   6.479   1.683   2.099  1.6939  1.4770 -1.6138
17005TIP3   OH272505   0.508   4.453   0.694 -0.1905 -0.2526  0.1185
17005TIP3    H172506   0.471   4.534   0.731  0.4632  0.0101  0.2125
17005TIP3    H272507   0.515   4.471   0.600  0.7033  0.1138  0.2426
17006TIP3   OH272508   2.678   0.493   4.101  0.2515 -0.0098 -0.7183
17006TIP3    H172509   2.634   0.517   4.182 -1.6405 -0.5193 -1.5295
17006TIP3    H272510   2.644   0.555   4.036  2.8113  1.3297 -0.9068
17007TIP3   OH272511   2.385   6.690   5.861 -0.0830  0.7695  0.7389
17007TIP3    H172512   2.331   6.629   5.911  1.1534  1.1876  2.7043
17007TIP3    H272513   2.436   6.634   5.802 -0.9758  0.1825  0.5017
17008TIP3   OH272514   0.848   5.318  13.713  0.1374 -0.6860 -0.3411
17008TIP3    H172515   0.790   5.367  13.656 -0.2917 -0.8112 -0.0199
17008TIP3    H272516   0.801   5.313  13.797  0.6290 -0.7454 -0.0629
17009TIP3   OH272517   6.159   3.652  12.999 -1.0436 -0.2139 -0.4179
17009TIP3    H172518   6.197   3.721  13.054 -0.1084  0.5055 -1.8983
17009TIP3    H272519   6.127   3.587  13.061  0.1567  0.4594  0.9777
17010TIP3   OH272520   3.994   3.289  11.399 -0.3902 -0.1513  0.2884
17010TIP3    H172521   3.919   3.250  11.354 -0.1030  0.1790 -0.4904
17010TIP3    H272522   3.965   3.298  11.490 -2.1892  2.0830 -0.3868
17011TIP3   OH272523   0.235   3.741  15.013 -0.0491 -0.0251  0.6479
17011TIP3    H172524   0.261   3.691  14.936  0.7754  0.3501  0.6712
17011TIP3    H272525   0.317   3.776  15.048 -0.4762  0.2988  1.3561
17012TIP3   OH272526   4.155   5.522   1.724 -0.1614 -0.0698  0.6543
17012TIP3    H172527   4.225   5.464   1.756 -0.3134 -0.8612 -0.3699
17012TIP3    H272528   4.104   5.544   1.802 -1.2157 -2.8524  0.8852
17013TIP3   OH272529   4.709   0.942   3.092  0.7853 -0.0551 -0.6866
17013TIP3    H172530   4.705   0.978   3.180 -2.7896 -0.9733 -0.2991
17013TIP3    H272531   4.705   0.847   3.105 -1.5292 -0.1624 -1.7711
17014TIP3   OH272532   2.937   0.590   5.234  0.0189 -0.0951  0.5341
17014TIP3    H172533   3.017   0.569   5.283 -0.1883 -2.4915  0.0087
17014TIP3    H272534   2.892   0.505   5.226 -0.5639  0.4195 -2.6750
17015TIP3   OH272535   3.446   3.511   6.387 -0.2479 -0.3308  0.3582
17015TIP3    H172536   3.443   3.606   6.387  2.2009 -0.0872  3.5112
17015TIP3    H272537   3.527   3.489   6.340  0.7264 -0.6175  2.0898
17016TIP3   OH272538   3.971   0.787  13.211  0.3016  0.5146 -0.0405
17016TIP3    H172539   3.995   0.698  13.237 -2.0983 -0.8806 -2.1886
17016TIP3    H272540   3.975   0.786  13.115 -2.0325  1.9918 -0.2194
17017TIP3   OH272541   5.572   6.402  13.878  0.4808 -0.4704  0.0394
17017TIP3    H172542   5.651   6.348  13.882  0.8322 -0.2482 -2.5601
17017TIP3    H272543   5.541   6.394  13.788 -2.2135 -0.1341  0.8350
17018TIP3   OH272544   2.036   3.137  16.863  0.3614 -0.6600  0.0903
17018TIP3    H172545   2.123   3.178  16.856  0.7465 -1.3002  0.9722
17018TIP3    H272546   1.975   3.211  16.866  1.0217 -0.1284  1.2330
17019TIP3   OH272547   6.011   2.344  10.912 -0.5146 -0.2426 -0.1294
17019TIP3    H172548   5.976   2.260  10.882 -0.5002  0.3835 -2.0288
17019TIP3    H272549   5.954   2.410  10.872 -0.5852  0.6820  1.4117
17020TIP3   OH272550   6.693   5.256   2.945 -0.1220  0.6575 -0.2005
17020TIP3    H172551   6.720   5.345   2.925 -1.4714  1.1100 -0.0984
17020TIP3    H272552   6.709   5.247   3.039 -2.3194  1.7071  0.3473
17021TIP3   OH272553   4.749   5.802   5.234  0.1735 -0.0348 -0.1124
17021TIP3    H172554   4.790   5.743   5.297  3.0014  0.5283 -1.2602
17021TIP3    H272555   4.821   5.828   5.176 -1.7961  1.4122 -2.0505
17022TIP3   OH272556   4.485   3.388  11.518 -0.4179  0.5092 -0.0255
17022TIP3    H172557   4.463   3.441  11.442 -1.2363  3.1390  1.8871
17022TIP3    H272558   4.426   3.313  11.513  1.7665 -1.2166 -3.5879
17023TIP3   OH272559   4.873   0.341   1.838 -0.3784 -0.2485 -0.4456
17023TIP3    H172560   4.855   0.310   1.749  2.4692 -1.3017 -0.7480
17023TIP3    H272561   4.860   0.436   1.833 -0.3889 -0.3027 -1.9408
17024TIP3   OH272562   6.536   0.720  14.451  0.1360  0.3186 -0.0341
17024TIP3    H172563   6.528   0.716  14.547  1.8603 -1.0813  0.0968
17024TIP3    H272564   6.522   0.630  14.422  0.7521  0.5223 -0.9973
17025TIP3   OH272565   4.588   0.670   2.626 -0.0694 -0.0151 -0.1445
17025TIP3    H172566   4.535   0.724   2.685  1.2742  1.7336 -0.4704
17025TIP3    H272567   4.662   0.641   2.680 -0.6177 -1.3388 -0.0575
17026TIP3   OH272568   3.073   0.221  13.180 -0.1513 -0.5097  0.6870
17026TIP3    H172569   3.007   0.164  13.219 -0.5213 -0.2230  0.4804
17026TIP3    H272570   3.049   0.227  13.087  0.2779 -0.5671  0.5708
17027TIP3   OH272571   1.244   5.135   3.921 -0.7498  0.1598 -0.3220
17027TIP3    H172572   1.205   5.222   3.922 -0.3190  0.3506  0.5159
17027TIP3    H272573   1.190   5.083   3.981  0.0186  0.3207  0.5351
17028TIP3   OH272574   3.418   6.520  14.179 -0.8250  0.2175 -0.3292
17028TIP3    H172575   3.399   6.426  14.179  0.3626 -0.0351 -0.8985
17028TIP3    H272576   3.416   6.545  14.272 -0.4426 -0.5255 -0.1138
17029TIP3   OH272577   2.134   4.652  10.563  0.5287 -0.4898 -0.0013
17029TIP3    H172578   2.181   4.673  10.644 -0.2421 -1.2185  0.6407
17029TIP3    H272579   2.129   4.557  10.561 -1.3973 -0.4248  0.2189
17030TIP3   OH272580   2.696   0.333  14.542  0.2207  0.1805 -0.0457
17030TIP3    H172581   2.770   0.393  14.527  0.4026 -0.6325 -3.2108
17030TIP3    H272582   2.644   0.376  14.610  2.0912  2.2335  0.2191
17031TIP3   OH272583   4.866   2.348  13.615 -0.0166  0.2102 -0.4328
17031TIP3    H172584   4.934   2.319  13.676  1.6673  1.3028 -1.6729
17031TIP3    H272585   4.871   2.286  13.543  0.1231  0.6509 -0.8088
17032TIP3   OH272586   6.372   1.330   2.706  0.4890  0.1070  0.0717
17032TIP3    H172587   6.278   1.346   2.691  0.7580  1.1444 -0.6454
17032TIP3    H272588   6.395   1.262   2.643  0.2277 -0.1264  0.2263
17033TIP3   OH272589   5.259   0.825   0.262  0.0103 -0.1361  0.1784
17033TIP3    H172590   5.315   0.763   0.308 -1.1451 -0.3296  1.3858
17033TIP3    H272591   5.320   0.885   0.219  1.1395 -0.7645  0.8420
17034TIP3   OH272592   6.399   0.337  16.601 -0.2523  0.3357 -0.0505
17034TIP3    H172593   6.323   0.287  16.573  0.7282  0.6402 -3.7303
17034TIP3    H272594   6.364   0.403  16.660 -2.2673 -1.5647  0.9984
17035TIP3   OH272595   5.671   4.735  16.695  0.3033 -0.4435 -0.2354
17035TIP3    H172596   5.677   4.665  16.760  0.8476 -0.1618  0.0282
17035TIP3    H272597   5.634   4.810  16.743 -0.1363 -0.5038 -0.4784
17036TIP3   OH272598   3.285   1.507  15.141 -0.6211  0.1845  0.2234
17036TIP3    H172599   3.209   1.462  15.105 -0.7032 -0.5876  1.3233
17036TIP3    H272600   3.337   1.438  15.183 -0.5451  1.0236  1.5897
17037TIP3   OH272601   6.484   5.304  11.200 -0.0068  0.0895  0.1106
17037TIP3    H172602   6.531   5.234  11.155 -0.4006 -0.3384  0.3564
17037TIP3    H272603   6.426   5.341  11.134 -0.2720 -0.2530  0.1485
17038TIP3   OH272604   2.914   6.557   3.255 -0.1233  0.6317  0.0573
17038TIP3    H172605   3.004   6.542   3.281 -0.4634  0.9478  1.5313
17038TIP3    H272606   2.880   6.470   3.232 -0.7083 -0.3321  3.8987
17039TIP3   OH272607   4.891   6.208  16.455  0.3086  0.3714  0.8980
17039TIP3    H172608   4.975   6.253  16.470 -0.7769  2.5337  0.9739
17039TIP3    H272609   4.854   6.196  16.542  0.0291  0.5399  0.8071
17040TIP3   OH272610   0.830   5.021  12.283 -0.0131 -0.0656 -0.2960
17040TIP3    H172611   0.910   5.013  12.230  0.7814  2.3070  0.4221
17040TIP3    H272612   0.760   5.031  12.219  0.4738 -0.5759 -0.9290
17041TIP3   OH272613   2.102   2.197   2.958 -0.0337 -0.0280 -0.0032
17041TIP3    H172614   2.107   2.103   2.940  0.8458  0.0606 -0.2642
17041TIP3    H272615   2.012   2.221   2.935 -0.7572 -1.0952  1.5496
17042TIP3   OH272616   2.413   3.227   0.147 -0.5753 -0.0388 -0.0334
17042TIP3    H172617   2.425   3.301   0.206 -1.0662  0.5077 -0.6108
17042TIP3    H272618   2.466   3.157   0.185  1.3693  1.1401 -0.4672
17043TIP3   OH272619   5.809   1.273   3.918  0.0761  0.3036 -0.4747
17043TIP3    H172620   5.773   1.273   3.829  0.1891  0.9244 -0.5250
17043TIP3    H272621   5.758   1.340   3.964  1.8348  1.9614 -0.8262
17044TIP3   OH272622   1.629   4.648   5.882  0.2507 -0.1967 -0.2741
17044TIP3    H172623   1.658   4.693   5.962  0.8006 -0.6194 -0.2318
17044TIP3    H272624   1.703   4.592   5.858 -0.0675 -0.3723 -0.8573
17045TIP3   OH272625   2.959   0.994  15.752 -0.9135  0.2932  0.0565
17045TIP3    H172626   2.991   0.914  15.795  1.2773  0.9133 -0.3166
17045TIP3    H272627   2.908   0.962  15.678 -1.1272 -0.7585  0.6351
17046TIP3   OH272628   2.402   5.217  13.639  0.6206 -0.2572  0.6053
17046TIP3    H172629   2.378   5.149  13.702 -0.0632  0.7907  1.5174
17046TIP3    H272630   2.362   5.297  13.674 -0.6397  0.2083 -1.6765
17047TIP3   OH272631   5.510   3.851   0.938  0.2849  0.0661 -0.0121
17047TIP3    H172632   5.422   3.831   0.904  0.1461 -3.1505  1.8310
17047TIP3    H272633   5.547   3.912   0.874 -2.8133  0.6193 -1.4864
17048TIP3   OH272634   5.916   4.101  12.717  0.2751  0.4008 -0.2820
17048TIP3    H172635   5.940   4.078  12.627 -2.1440 -1.8896 -0.4861
17048TIP3    H272636   5.820   4.109  12.714  0.1886  0.7172  1.9845
17049TIP3   OH272637   0.072   0.040  14.097 -0.1596 -0.3677 -0.2627
17049TIP3    H172638   0.052   0.083  14.014 -1.2258  0.7350  0.5272
17049TIP3    H272639   0.135   0.098  14.140 -0.8467 -0.0761  0.3797
17050TIP3   OH272640   1.869   5.839   6.040 -0.1971  0.2004  0.3505
17050TIP3    H172641   1.833   5.898   5.974  0.5164  0.0387 -0.1989
17050TIP3    H272642   1.847   5.751   6.009  0.8354  0.0853 -0.1263
17051TIP3   OH272643   0.915   3.046   0.678  0.4252 -0.0116  0.3511
17051TIP3    H172644   0.844   3.101   0.645  0.6479 -0.0697 -0.2335
17051TIP3    H272645   0.941   3.087   0.761 -0.5881 -0.2516  0.8035
17052TIP3   OH272646   1.240   1.694   3.298  0.2999  0.0619 -0.0186
17052TIP3    H172647   1.277   1.721   3.382  0.1145  1.8234 -0.4626
17052TIP3    H272648   1.302   1.728   3.233 -0.9486  1.1364 -0.6867
17053TIP3   OH272649   2.402   5.908   0.584  0.8992  0.1939 -0.0854
17053TIP3    H172650   2.444   5.822   0.592 -1.0961 -1.0868 -2.1134
17053TIP3    H272651   2.440   5.946   0.504  1.9880  1.4028  0.9555
17054TIP3   OH272652   5.588   6.154  16.110 -0.2473  0.8300  0.7102
17054TIP3    H172653   5.667   6.173  16.161  0.1100  1.4638 -0.0588
17054TIP3    H272654   5.523   6.128  16.175  0.0567  2.0664  1.5532
17055TIP3   OH272655   3.191   0.459  16.626 -0.4375 -0.1174  0.2808
17055TIP3    H172656   3.104   0.473  16.588 -0.1677  0.7754 -0.0333
17055TIP3    H272657   3.251   0.468  16.552 -0.1736 -2.4930  0.1543
17056TIP3   OH272658   2.944   6.744   4.068  0.3808 -0.4027 -0.7995
17056TIP3    H172659   2.919   6.652   4.080  1.1542 -0.4277  0.8507
17056TIP3    H272660   2.902   6.769   3.985  0.6072 -2.3854 -1.5850
17057TIP3   OH272661   2.821   4.246   1.404  0.1432 -0.3221 -0.0640
17057TIP3    H172662   2.911   4.277   1.397  0.0440 -0.1418 -0.7234
17057TIP3    H272663   2.819   4.165   1.352  0.1182 -0.7782  0.6457
17058TIP3   OH272664   1.275   6.277  12.548 -0.4598 -0.1839  0.0178
17058TIP3    H172665   1.243   6.364  12.571  2.0872  0.5259  1.2755
17058TIP3    H272666   1.335   6.253  12.619  0.0288 -2.3408 -1.0162
17059TIP3   OH272667   0.879   3.036  14.090 -0.2573 -0.4168 -0.4195
17059TIP3    H172668   0.842   2.960  14.134  0.6656  0.0016  1.1565
17059TIP3    H272669   0.970   3.038  14.119 -0.1512  1.0373 -0.7833
17060TIP3   OH272670   5.273   5.146   3.405 -0.5644  0.4053 -0.2935
17060TIP3    H172671   5.357   5.145   3.359  0.1264 -1.4455  0.8536
17060TIP3    H272672   5.254   5.239   3.419  0.1733  0.9398 -2.4921
17061TIP3   OH272673   4.079   2.869   0.752  0.6873 -0.4454 -0.2411
17061TIP3    H172674   4.122   2.784   0.742 -0.7030 -0.9873 -2.1486
17061TIP3    H272675   4.000   2.849   0.803 -0.2973 -0.5866 -1.7579
17062TIP3   OH272676   3.232   4.891   4.111  0.0471  0.0834  0.5438
17062TIP3    H172677   3.250   4.837   4.189  1.4941  0.3083  0.4014
17062TIP3    H272678   3.176   4.836   4.056  0.6537 -0.8781  0.8567
17063TIP3   OH272679   6.129   6.833  12.297 -0.0137 -0.1647  0.1951
17063TIP3    H172680   6.166   6.799  12.216 -1.6490 -0.8439 -0.3078
17063TIP3    H272681   6.170   6.780  12.366  1.3885  0.4249 -0.1558
17064TIP3   OH272682   3.457   5.388  10.767  0.0236 -0.7963 -0.1946
17064TIP3    H172683   3.402   5.311  10.761  0.2227 -1.2037  2.2996
17064TIP3    H272684   3.405   5.452  10.816  1.0346 -0.5236  0.5656
17065TIP3   OH272685   6.484   0.966   6.195  0.0729  0.7865 -0.3695
17065TIP3    H172686   6.564   0.913   6.188  0.2824  1.1765 -0.9024
17065TIP3    H272687   6.493   1.011   6.279 -0.0618  0.0650  0.0504
17066TIP3   OH272688   1.961   3.985  13.890  0.2495 -0.4283  0.1387
17066TIP3    H172689   2.022   4.012  13.822 -0.6479  2.2032  0.2628
17066TIP3    H272690   1.892   3.937  13.844  0.4612 -0.0404 -0.5848
17067TIP3   OH272691   4.503   0.181  12.011  0.0657  0.5114  0.2268
17067TIP3    H172692   4.512   0.222  12.097  0.3179  2.1576 -0.5636
17067TIP3    H272693   4.508   0.253  11.948 -0.0037 -0.6668 -1.1914
17068TIP3   OH272694   5.252   6.379  16.808  0.3240 -0.3228  0.4592
17068TIP3    H172695   5.285   6.463  16.777 -1.4444  0.6089  0.9718
17068TIP3    H272696   5.270   6.318  16.737  2.7980  0.1413  0.5853
17069TIP3   OH272697   3.516   0.249   5.090  0.5638  0.4627 -0.0455
17069TIP3    H172698   3.436   0.289   5.056 -0.3437  0.8448  2.3226
17069TIP3    H272699   3.574   0.323   5.108  0.6073  0.3592  0.2453
17070TIP3   OH272700   2.642   0.536  12.477 -0.1048  0.2453 -0.2043
17070TIP3    H172701   2.584   0.463  12.501  0.9420 -0.2147  1.0595
17070TIP3    H272702   2.646   0.590  12.556  1.8091 -0.1671  0.0153
17071TIP3   OH272703   0.798   0.488  14.760 -0.4817  0.0532  0.3753
17071TIP3    H172704   0.874   0.529  14.720 -1.0374  0.8993  0.1480
17071TIP3    H272705   0.742   0.562  14.785 -1.3840 -0.5567  0.2024
17072TIP3   OH272706   0.062   2.940  12.160  0.4356 -0.0944 -0.5250
17072TIP3    H172707   0.047   2.996  12.236 -0.8604 -0.6635 -0.3381
17072TIP3    H272708   0.102   2.861  12.196 -1.2367 -0.8457 -0.2429
17073TIP3   OH272709   1.098   6.352   2.259 -0.1929  0.3909 -0.2236
17073TIP3    H172710   1.089   6.411   2.334  2.1542 -0.8874  1.1742
17073TIP3    H272711   1.164   6.393   2.203 -1.2775  0.8844 -1.1895
17074TIP3   OH272712   1.153   2.625  11.294  0.2394 -0.1131 -0.7342
17074TIP3    H172713   1.194   2.539  11.304 -0.0144 -0.1682 -0.1470
17074TIP3    H272714   1.211   2.684  11.343  1.6065  0.4421 -2.8693
17075TIP3   OH272715   0.199   1.033   1.286 -0.1312 -0.6627 -0.2184
17075TIP3    H172716   0.186   1.121   1.322  2.1913 -0.3437  0.0328
17075TIP3    H272717   0.191   1.044   1.191  1.0968  0.0752 -0.2673
17076TIP3   OH272718   5.876   2.432   4.406 -0.1956  0.2799 -0.2843
17076TIP3    H172719   5.852   2.402   4.493 -1.0570  0.0981 -0.5804
17076TIP3    H272720   5.959   2.386   4.388 -0.5022 -0.4279  0.0544
17077TIP3   OH272721   5.168   1.369  12.662 -0.9608  0.4863  0.2883
17077TIP3    H172722   5.179   1.417  12.580 -0.2339  1.4446  0.9167
17077TIP3    H272723   5.136   1.436  12.724  2.2896  0.8016  1.8057
17078TIP3   OH272724   5.752   3.539  16.975 -0.1796  0.4275  0.0078
17078TIP3    H172725   5.815   3.498  17.035 -0.1793  1.1425  0.5095
17078TIP3    H272726   5.705   3.465  16.936 -0.7264 -0.0604  1.4910
17079TIP3   OH272727   2.886   3.145  16.879  0.0379 -0.1669 -0.3893
17079TIP3    H172728   2.844   3.077  16.827 -0.9244  0.3866 -0.3601
17079TIP3    H272729   2.845   3.139  16.965  0.6395 -0.1768 -0.0981
17080TIP3   OH272730   4.788   6.468  14.694  0.0526  0.2614 -0.3633
17080TIP3    H172731   4.836   6.395  14.733  0.3759  1.1886  1.0426
17080TIP3    H272732   4.855   6.531  14.670 -0.3682  1.3950  1.2525
17081TIP3   OH272733   6.330   2.134   3.115 -0.2989 -0.0308  0.5574
17081TIP3    H172734   6.395   2.186   3.162 -0.7564 -0.4088  1.6546
17081TIP3    H272735   6.341   2.045   3.150  0.0738 -0.5569 -0.8562
17082TIP3   OH272736   3.678   3.236  17.188 -0.2272 -0.3627 -0.2074
17082TIP3    H172737   3.585   3.216  17.187 -0.2920 -0.0447 -1.0122
17082TIP3    H272738   3.711   3.204  17.104  0.3902 -0.4733  0.0684
17083TIP3   OH272739   0.931   4.114  12.127 -0.0875 -0.5975 -0.0876
17083TIP3    H172740   1.002   4.071  12.080  0.2494 -1.8790  1.5188
17083TIP3    H272741   0.881   4.043  12.167 -1.0719  0.3824  0.5030
17084TIP3   OH272742   6.647   2.623  12.945 -0.2124 -0.4486  0.2172
17084TIP3    H172743   6.702   2.660  12.877  0.3161  0.1268  0.9374
17084TIP3    H272744   6.570   2.589  12.899 -0.3784  0.9035 -0.5333
17085TIP3   OH272745   3.590   4.425  11.168 -0.2370  0.3212  0.3906
17085TIP3    H172746   3.641   4.504  11.147  0.6732 -0.6347 -1.2857
17085TIP3    H272747   3.611   4.406  11.259 -0.1810  1.8035  0.7074
17086TIP3   OH272748   1.760   2.389   1.749 -0.3900  0.2183  0.4503
17086TIP3    H172749   1.732   2.480   1.750  1.1892  0.7668 -0.5369
17086TIP3    H272750   1.847   2.392   1.708 -1.4908 -2.0598 -2.3503
17087TIP3   OH272751   2.582   4.756   1.485 -0.1376  0.3491 -0.2951
17087TIP3    H172752   2.604   4.667   1.458  4.1403  0.8076  0.9246
17087TIP3    H272753   2.515   4.744   1.553 -1.3047 -1.6939 -1.7096
17088TIP3   OH272754   6.640   5.632   4.395 -0.3243 -0.5147  0.1721
17088TIP3    H172755   6.696   5.576   4.342  1.0858 -1.9726  2.9317
17088TIP3    H272756   6.699   5.698   4.432 -1.4270  1.0251 -0.7214
17089TIP3   OH272757   1.752   3.572   2.577 -0.0095  0.0354 -0.0870
17089TIP3    H172758   1.841   3.543   2.555  0.2494  0.8104 -0.1216
17089TIP3    H272759   1.694   3.511   2.533  0.5119 -0.5418  0.0173
17090TIP3   OH272760   0.857   3.041  15.255 -0.2328 -0.2285 -0.2744
17090TIP3    H172761   0.951   3.041  15.270 -0.3757 -0.6451  0.6361
17090TIP3    H272762   0.848   3.043  15.159  0.7090 -1.4841 -0.4083
17091TIP3   OH272763   1.835   4.331   2.624  0.1949 -0.7427  0.0094
17091TIP3    H172764   1.796   4.271   2.688 -2.3049  1.8022  1.1291
17091TIP3    H272765   1.864   4.406   2.676  0.2556  0.4022 -1.6028
17092TIP3   OH272766   6.777   3.149  14.050 -0.1886  0.2196 -0.0216
17092TIP3    H172767   6.723   3.201  14.109  0.9152  1.0009  0.3283
17092TIP3    H272768   6.741   3.166  13.963  0.0171  1.3945  0.1169
17093TIP3   OH272769   4.891   3.729  13.939  0.1186 -0.0310 -0.4070
17093TIP3    H172770   4.840   3.809  13.951 -0.5525 -0.5510  0.3200
17093TIP3    H272771   4.940   3.720  14.021  1.2110  0.3310 -0.9975
17094TIP3   OH272772   2.964   2.359  17.015  0.7784 -0.1598 -0.1469
17094TIP3    H172773   3.028   2.429  17.002 -1.1296  1.2751 -2.8469
17094TIP3    H272774   2.888   2.402  17.055 -0.2302 -0.7235 -1.3653
17095TIP3   OH272775   3.633   6.761  12.301  0.4876  0.5378  0.1994
17095TIP3    H172776   3.682   6.689  12.261 -0.3134  0.7342 -1.2319
17095TIP3    H272777   3.602   6.726  12.384 -1.1611 -1.3636 -1.0946
17096TIP3   OH272778   3.136   4.203  11.112  0.0576 -0.0649 -0.8875
17096TIP3    H172779   3.104   4.252  11.036 -0.0659  0.3505 -0.5674
17096TIP3    H272780   3.149   4.114  11.079  0.4853  0.2265 -1.5309
17097TIP3   OH272781   4.348   1.531   3.318 -0.5348  0.5174 -0.6257
17097TIP3    H172782   4.372   1.571   3.235 -1.3026  0.5974 -0.8210
17097TIP3    H272783   4.253   1.518   3.312 -0.4778 -0.2492 -0.0984
17098TIP3   OH272784   5.933   5.918  12.330  0.5449  0.3954  0.1433
17098TIP3    H172785   5.919   5.829  12.361 -3.7323  0.8647  0.0375
17098TIP3    H272786   5.992   5.908  12.255 -1.2208 -2.6378 -1.0207
17099TIP3   OH272787   1.825   6.469  16.394  0.0178 -0.4009  0.3162
17099TIP3    H172788   1.886   6.396  16.408  2.1927  0.8752 -1.7149
17099TIP3    H272789   1.863   6.541  16.444 -1.3728 -0.2454  1.2062
17100TIP3   OH272790   1.881   6.711  12.003 -0.6755  0.1647  0.5477
17100TIP3    H172791   1.975   6.709  12.018 -0.6435  1.1884  0.5222
17100TIP3    H272792   1.852   6.792  12.044 -1.5374 -0.1022  0.4798
17101TIP3   OH272793   4.634   1.998   3.414  0.0481 -0.3369  0.4198
17101TIP3    H172794   4.605   2.065   3.476 -1.6518 -0.9575  0.3431
17101TIP3    H272795   4.584   2.016   3.334  0.3013 -1.1004  0.0804
17102TIP3   OH272796   3.469   0.590   1.300 -0.1556  0.1941  0.9714
17102TIP3    H172797   3.549   0.611   1.252 -0.9282 -0.4614 -0.6800
17102TIP3    H272798   3.450   0.668   1.351  1.4939  0.3786  1.3562
17103TIP3   OH272799   2.112   3.889  12.718  0.2176 -0.1185  0.3948
17103TIP3    H172800   2.030   3.896  12.669  1.2624  2.2553 -1.2249
17103TIP3    H272801   2.180   3.883  12.651  1.4374 -1.8753  1.7043
17104TIP3   OH272802   4.772   5.965  16.263 -0.3766  0.9067  0.4393
17104TIP3    H172803   4.793   5.913  16.185  0.9784  1.2566  0.5493
17104TIP3    H272804   4.777   5.903  16.336  0.5823  1.0409  0.4946
17105TIP3   OH272805   4.394   4.695  13.495 -0.2506 -0.3101  0.1179
17105TIP3    H172806   4.472   4.720  13.446 -0.5939 -0.3686 -0.4812
17105TIP3    H272807   4.350   4.631  13.438 -1.2056  0.4125  0.0032
17106TIP3   OH272808   3.635   4.093   5.505  0.0266  0.0633 -0.2831
17106TIP3    H172809   3.574   4.048   5.445 -0.4783  0.1841  0.1320
17106TIP3    H272810   3.683   4.154   5.449 -0.1979 -0.0725 -0.6293
17107TIP3   OH272811   5.201   2.564   1.601  0.0637  0.4823 -0.2904
17107TIP3    H172812   5.114   2.562   1.560 -0.8946  0.6243  1.5955
17107TIP3    H272813   5.245   2.638   1.561 -0.3283 -0.1272 -1.9307
17108TIP3   OH272814   1.404   3.065   4.210 -0.0049 -0.6403 -0.0893
17108TIP3    H172815   1.498   3.076   4.199  0.1417 -0.1298  1.4440
17108TIP3    H272816   1.394   3.023   4.295 -1.1610 -0.7996 -0.2841
17109TIP3   OH272817   3.791   5.069  12.321 -0.5596  0.0248  0.2323
17109TIP3    H172818   3.813   5.156  12.288 -0.2052 -0.3475 -0.5320
17109TIP3    H272819   3.749   5.025  12.248  0.1117 -0.7595  0.3006
17110TIP3   OH272820   0.524   4.200   1.630 -0.1732  0.6477  0.5842
17110TIP3    H172821   0.526   4.295   1.639  0.2804  0.4459  3.6749
17110TIP3    H272822   0.431   4.178   1.627 -0.3596  1.1057  2.0671
17111TIP3   OH272823   6.647   1.019  11.375 -0.2290  0.2203 -0.1120
17111TIP3    H172824   6.617   1.001  11.464 -2.0484  0.2104 -0.6872
17111TIP3    H272825   6.570   1.055  11.331  0.4010 -0.5419 -1.9130
17112TIP3   OH272826   5.142   6.127  16.721  0.7919  0.3799 -0.1131
17112TIP3    H172827   5.201   6.138  16.647  0.8863  3.3000  0.2511
17112TIP3    H272828   5.065   6.084  16.684  1.4194  0.4549 -1.5778
17113TIP3   OH272829   0.389   2.138   4.543  0.0748 -0.6696 -0.0473
17113TIP3    H172830   0.308   2.112   4.587  0.0401 -1.2630 -0.4486
17113TIP3    H272831   0.393   2.233   4.554 -0.1165 -0.7605  0.9129
17114TIP3   OH272832   2.724   4.397   4.084 -0.3534 -0.1552  0.4790
17114TIP3    H172833   2.665   4.446   4.142 -0.2081  0.2776  0.2672
17114TIP3    H272834   2.739   4.456   4.010  0.4745 -0.1926  0.6039
17115TIP3   OH272835   5.909   4.961  15.508 -0.4820 -0.2296  0.0467
17115TIP3    H172836   5.934   4.893  15.570  0.1192  0.1381  0.2206
17115TIP3    H272837   5.892   5.038  15.562 -1.1231 -0.2313 -0.1485
17116TIP3   OH272838   1.818   3.998  13.036  0.0898  0.0324 -0.4126
17116TIP3    H172839   1.809   3.909  13.071 -1.0401  0.7768  1.3086
17116TIP3    H272840   1.814   3.987  12.941 -3.4181 -1.4972 -0.2326
17117TIP3   OH272841   3.343   4.274  16.730 -0.6326 -0.5671  0.1493
17117TIP3    H172842   3.333   4.199  16.671 -0.0059 -0.4846 -0.0644
17117TIP3    H272843   3.432   4.306  16.714 -0.6714 -0.1701  0.7025
17118TIP3   OH272844   1.484   4.966   4.373  0.8735  0.0199  0.0937
17118TIP3    H172845   1.556   5.029   4.378  0.6734  0.3512 -0.9858
17118TIP3    H272846   1.498   4.919   4.292  0.5745 -0.7972  0.5058
17119TIP3   OH272847   5.261   3.958   4.886 -0.2483 -0.0151 -0.5789
17119TIP3    H172848   5.292   3.869   4.904 -1.6912 -0.3256  0.6214
17119TIP3    H272849   5.201   3.948   4.812 -0.9821 -0.1719  0.0320
17120TIP3   OH272850   4.281   6.165   5.943 -1.0077 -0.4170 -0.2653
17120TIP3    H172851   4.191   6.190   5.966 -1.1522  1.5054 -2.5121
17120TIP3    H272852   4.295   6.204   5.856  2.3474  0.2608  0.4381
17121TIP3   OH272853   2.414   4.909   1.801 -0.3928 -0.5200 -0.1640
17121TIP3    H172854   2.411   4.818   1.769  0.7423 -1.1433  1.3647
17121TIP3    H272855   2.400   4.901   1.896 -0.9589  0.9944 -0.0956
17122TIP3   OH272856   3.977   6.628   2.951 -0.3416  0.4216 -0.6855
17122TIP3    H172857   4.003   6.646   2.861  0.1863  2.2891 -0.2003
17122TIP3    H272858   3.894   6.674   2.962 -1.2020 -1.0691 -0.6312
17123TIP3   OH272859   2.737   5.923  15.418  0.2349  0.1579  0.5964
17123TIP3    H172860   2.666   5.985  15.407 -0.0413  0.2254  2.4165
17123TIP3    H272861   2.720   5.854  15.354 -0.5635  0.9557 -0.0657
17124TIP3   OH272862   4.017   0.937  16.660 -0.7298  0.4843 -0.2594
17124TIP3    H172863   4.083   0.873  16.686 -2.3724 -0.9559  0.5060
17124TIP3    H272864   4.066   1.020  16.654  1.3061 -0.6664 -0.6015
17125TIP3   OH272865   0.794   1.100   1.649 -0.0720  0.1742 -0.4653
17125TIP3    H172866   0.808   1.162   1.578 -0.7851  1.0779  0.1608
17125TIP3    H272867   0.807   1.014   1.609 -1.5528  0.6038 -1.9745
17126TIP3   OH272868   6.813   6.386  13.199 -0.1543 -0.5912  0.1903
17126TIP3    H172869   6.880   6.363  13.264 -0.7156  1.8556  1.7757
17126TIP3    H272870   6.730   6.372  13.244 -0.5446  1.7174  0.3278
17127TIP3   OH272871   4.406   1.313   2.496 -0.2034  0.2224 -0.1723
17127TIP3    H172872   4.489   1.272   2.522  0.0146  0.4306 -0.5323
17127TIP3    H272873   4.387   1.375   2.566  0.7298  1.2772 -0.8217
17128TIP3   OH272874   0.085   1.769  16.071  0.4652  0.1302 -0.2603
17128TIP3    H172875   0.173   1.783  16.035 -0.8456  0.0960 -3.8364
17128TIP3    H272876   0.036   1.846  16.046 -0.9747 -0.6141  0.1581
17129TIP3   OH272877   1.253   6.595  11.559 -0.3662 -0.7051 -0.1203
17129TIP3    H172878   1.216   6.652  11.627  0.2342 -0.7312  0.2335
17129TIP3    H272879   1.276   6.515  11.605 -0.0312 -0.7554 -0.3744
17130TIP3   OH272880   5.083   1.869   3.649 -0.3681  0.3513  0.8957
17130TIP3    H172881   5.090   1.963   3.666 -0.0534  0.3006  1.0545
17130TIP3    H272882   5.166   1.845   3.609 -0.8434  0.3339 -0.1206
17131TIP3   OH272883   5.812   4.215   4.210  0.0046 -0.2894 -0.4371
17131TIP3    H172884   5.836   4.206   4.303 -0.0496  0.1230 -0.3818
17131TIP3    H272885   5.759   4.137   4.192 -1.5170  0.5110  0.3681
17132TIP3   OH272886   0.523   4.698  13.359 -0.0989 -0.8136 -0.5523
17132TIP3    H172887   0.482   4.739  13.283  1.9872  0.9476 -0.8405
17132TIP3    H272888   0.578   4.629  13.322 -1.2196 -1.8517 -0.3412
17133TIP3   OH272889   2.656   0.187   3.481  0.1256 -0.1481 -0.2801
17133TIP3    H172890   2.616   0.215   3.564  0.9706  1.5957 -0.3997
17133TIP3    H272891   2.599   0.225   3.414  0.7571  0.4883 -0.4632
17134TIP3   OH272892   5.549   2.687   1.949  0.8558 -0.4585  0.0834
17134TIP3    H172893   5.582   2.713   1.863  0.7727  1.9501  0.7039
17134TIP3    H272894   5.609   2.727   2.011 -1.5891  1.8704  1.1878
17135TIP3   OH272895   3.126   4.875   1.024 -0.2154 -0.9048  0.3441
17135TIP3    H172896   3.060   4.942   1.010 -0.6237 -1.1887  0.8571
17135TIP3    H272897   3.192   4.917   1.079  0.9923 -0.0388 -1.6572
17136TIP3   OH272898   0.681   1.994  11.177  0.8017  0.2904 -0.6895
17136TIP3    H172899   0.639   2.065  11.129  0.3014 -0.0907 -0.8196
17136TIP3    H272900   0.734   1.949  11.112  0.0644 -0.2726 -0.9151
17137TIP3   OH272901   3.520   1.587   1.626 -0.6821 -0.0107 -0.1622
17137TIP3    H172902   3.565   1.670   1.635 -1.1951  0.2502  0.0490
17137TIP3    H272903   3.587   1.521   1.641 -0.0406  0.3461 -1.3899
17138TIP3   OH272904   5.259   3.505   1.631  0.1998  0.0882 -0.2930
17138TIP3    H172905   5.180   3.482   1.680  0.8548 -1.3093  0.1383
17138TIP3    H272906   5.270   3.599   1.647  1.2325 -0.5505  3.5228
17139TIP3   OH272907   3.037   5.575   6.610  0.0737  0.1638  0.0855
17139TIP3    H172908   3.090   5.602   6.534  1.4096  0.9483  1.2518
17139TIP3    H272909   2.953   5.549   6.572  1.2556 -1.1635 -1.8626
17140TIP3   OH272910   5.777   2.943   5.531  0.1503 -0.1126 -0.5552
17140TIP3    H172911   5.828   3.023   5.544 -0.2429  0.0744 -0.1177
17140TIP3    H272912   5.828   2.875   5.575  0.3334 -0.0419 -0.6593
17141TIP3   OH272913   2.454   0.991   1.681  0.1401  0.6305  0.1887
17141TIP3    H172914   2.543   1.004   1.715  0.1358  2.4726 -0.4110
17141TIP3    H272915   2.466   0.940   1.601  0.4973 -0.4402  0.9042
17142TIP3   OH272916   6.101   3.833   4.474  0.4622  0.1315  0.2967
17142TIP3    H172917   6.023   3.818   4.528  0.6017 -0.2687  0.3932
17142TIP3    H272918   6.156   3.756   4.490  0.7923  0.3205  0.0815
17143TIP3   OH272919   6.240   4.824   1.922 -0.1038 -0.1953 -0.2634
17143TIP3    H172920   6.332   4.850   1.927 -0.1842 -0.1849  1.4199
17143TIP3    H272921   6.239   4.751   1.859  1.1224 -0.4693  0.0157
17144TIP3   OH272922   3.909   0.831   5.280 -0.5731 -0.5756 -0.1552
17144TIP3    H172923   3.864   0.837   5.196  0.5885  0.1844 -0.7528
17144TIP3    H272924   3.993   0.790   5.259  0.7047  1.7376  0.1917
17145TIP3   OH272925   2.288   2.608   0.513 -0.7111 -0.0533  0.2495
17145TIP3    H172926   2.209   2.596   0.460 -0.0700  0.2789 -0.8088
17145TIP3    H272927   2.264   2.575   0.600 -1.5834 -1.2077 -0.4069
17146TIP3   OH272928   3.388   6.192   4.381 -0.2261 -0.2202  0.2138
17146TIP3    H172929   3.432   6.109   4.359 -0.1188 -0.0562 -0.1918
17146TIP3    H272930   3.411   6.251   4.309  0.1670  0.3332  0.7810
17147TIP3   OH272931   2.629   6.331  13.428  0.3091 -1.1300 -0.0551
17147TIP3    H172932   2.643   6.281  13.347 -1.5640 -0.4344 -0.8683
17147TIP3    H272933   2.552   6.384  13.410  0.1441 -0.5783  2.0413
17148TIP3   OH272934   2.051   0.186  13.554  0.2634 -0.2087  0.0118
17148TIP3    H172935   2.119   0.227  13.501  0.0911  0.7403  0.5176
17148TIP3    H272936   2.091   0.106  13.587  0.8386 -0.0968 -0.4067
17149TIP3   OH272937   4.168   3.556   6.515  0.0137  0.5157 -0.2040
17149TIP3    H172938   4.112   3.514   6.581 -0.7092  0.0088 -1.1087
17149TIP3    H272939   4.154   3.504   6.436  1.3076  0.7680 -0.6203
17150TIP3   OH272940   5.158   1.660   1.505 -0.1272 -0.3117  0.1011
17150TIP3    H172941   5.142   1.603   1.579  1.6474 -1.9370 -0.6872
17150TIP3    H272942   5.197   1.739   1.543 -0.4089 -0.5945  0.9984
17151TIP3   OH272943   1.890   0.303   0.059  0.5778 -0.2341 -0.4434
17151TIP3    H172944   1.798   0.324   0.043  0.4479 -1.2933 -1.2301
17151TIP3    H272945   1.889   0.261   0.145  0.7049  1.9534  0.6744
17152TIP3   OH272946   4.854   4.124  11.464  0.3007 -0.0900  0.0051
17152TIP3    H172947   4.929   4.175  11.494  0.9511 -1.1910  0.2937
17152TIP3    H272948   4.873   4.104  11.373  0.3898 -0.4430  0.1025
17153TIP3   OH272949   2.227   4.449   2.911 -0.0602  0.3763 -0.1893
17153TIP3    H172950   2.181   4.391   2.850 -0.9469  1.4608 -0.5936
17153TIP3    H272951   2.157   4.498   2.955  0.5745 -0.1653  1.5026
17154TIP3   OH272952   5.645   4.376   4.966 -0.5248 -0.3046 -0.1474
17154TIP3    H172953   5.709   4.422   5.021 -0.4951 -1.2248  0.6158
17154TIP3    H272954   5.565   4.376   5.018 -0.4697 -1.2762 -0.0470
17155TIP3   OH272955   1.093   2.430  13.365 -0.3278 -0.3801 -0.3396
17155TIP3    H172956   1.073   2.403  13.455  0.1767  1.9100  0.5170
17155TIP3    H272957   1.178   2.474  13.372 -0.4231  0.0896 -1.9052
17156TIP3   OH272958   1.337   2.605   2.096 -0.7801  0.2378  0.2013
17156TIP3    H172959   1.352   2.694   2.127 -0.3067  0.1934  0.1098
17156TIP3    H272960   1.269   2.614   2.029  1.0536  0.9057 -1.6521
17157TIP3   OH272961   4.064   5.242   1.976 -0.0788 -0.5711 -0.1516
17157TIP3    H172962   3.984   5.294   1.968 -1.1359 -2.3601 -2.4873
17157TIP3    H272963   4.130   5.305   2.005 -1.4924  1.8753 -1.8255
17158TIP3   OH272964   6.255   2.509   0.194  0.0057 -0.2764  0.0144
17158TIP3    H172965   6.340   2.488   0.233 -0.1507  0.2462  0.6472
17158TIP3    H272966   6.191   2.472   0.254 -0.2422  0.6370  0.3338
17159TIP3   OH272967   3.438   4.610  17.172  0.0714 -0.5366 -0.1494
17159TIP3    H172968   3.478   4.633  17.256  1.1637  0.6501 -0.9519
17159TIP3    H272969   3.378   4.683  17.154  0.1059 -0.6140 -0.5772
17160TIP3   OH272970   0.115   5.054   0.835  0.1445  0.1469 -0.1136
17160TIP3    H172971   0.202   5.017   0.821 -0.7126 -1.4224 -1.8589
17160TIP3    H272972   0.076   5.057   0.747 -1.6105  0.6320  0.6368
17161TIP3   OH272973   5.267   0.881  12.506  0.5740  0.2691 -0.0550
17161TIP3    H172974   5.296   0.970  12.488 -0.4344  0.6790  0.2981
17161TIP3    H272975   5.346   0.836  12.537  0.5077  1.9227  2.9481
17162TIP3   OH272976   0.232   3.581   1.849  0.0691  0.0922  0.5748
17162TIP3    H172977   0.324   3.554   1.856  0.4567  1.1039 -0.4678
17162TIP3    H272978   0.207   3.603   1.939  1.4458  1.6880  0.6176
17163TIP3   OH272979   4.017   4.016  17.079  0.3347  1.1433 -0.4903
17163TIP3    H172980   3.925   4.031  17.057  0.0151  1.5544  1.0106
17163TIP3    H272981   4.053   4.104  17.091  0.6766  0.9583 -0.1336
17164TIP3   OH272982   4.096   5.432  10.449  0.0395 -0.1638 -0.6943
17164TIP3    H172983   4.068   5.508  10.500 -0.5720 -1.4374  0.9648
17164TIP3    H272984   4.189   5.422  10.472 -0.1561 -0.5499 -0.0442
17165TIP3   OH272985   1.179   6.194  16.015  0.4098  0.1896  0.1320
17165TIP3    H172986   1.221   6.257  16.073 -0.1520  0.3425  0.3787
17165TIP3    H272987   1.240   6.183  15.942  1.2861 -0.2782  0.9247
17166TIP3   OH272988   4.569   0.133  16.461 -0.0509  0.1509  0.3826
17166TIP3    H172989   4.489   0.173  16.425  0.2849 -0.9657 -1.7965
17166TIP3    H272990   4.577   0.050  16.414  1.5617 -0.5010  1.7086
17167TIP3   OH272991   0.619   1.757   3.986 -0.0540 -0.0109  0.1358
17167TIP3    H172992   0.696   1.772   3.930 -0.4987 -0.8106 -0.7113
17167TIP3    H272993   0.552   1.723   3.927 -0.5527 -0.8468  1.1468
17168TIP3   OH272994   0.235   1.188   3.707  0.2225  0.4478 -0.1130
17168TIP3    H172995   0.161   1.234   3.666  1.1193  0.7139 -1.5175
17168TIP3    H272996   0.291   1.164   3.633  1.1297 -0.4884  0.8555
17169TIP3   OH272997   2.604   5.839   2.797 -0.1522  0.2893 -0.8428
17169TIP3    H172998   2.516   5.802   2.801  0.6233 -1.5573  0.3661
17169TIP3    H272999   2.615   5.866   2.706 -1.4616 -0.7313 -1.3339
17170TIP3   OH273000   2.003   1.112   3.179  0.4101 -0.2267 -1.0131
17170TIP3    H173001   1.960   1.169   3.242  0.6587 -1.7994  0.6816
17170TIP3    H273002   1.934   1.085   3.118 -0.2919 -0.2140 -0.2308
17171TIP3   OH273003   6.795   1.352  15.912 -0.2665  0.0396 -0.0966
17171TIP3    H173004   6.760   1.329  15.826 -0.0955 -0.4282 -0.0468
17171TIP3    H273005   6.881   1.390  15.893 -0.0784 -0.3914 -0.1116
17172TIP3   OH273006   5.137   0.171   5.230  0.0043  0.0329  0.1647
17172TIP3    H173007   5.084   0.173   5.310 -1.1945  0.8482 -0.6250
17172TIP3    H273008   5.110   0.091   5.185 -1.6253  1.1214 -0.8980
17173TIP3   OH273009   6.825   3.751   3.918  0.0986 -0.1717  0.2011
17173TIP3    H173010   6.808   3.817   3.986 -0.4952  0.0786 -0.1867
17173TIP3    H273011   6.862   3.800   3.845  0.9295 -0.4721  0.4099
17174TIP3   OH273012   3.109   1.154   6.752 -0.8127 -0.3396 -0.1078
17174TIP3    H173013   3.063   1.235   6.732  1.3251  1.9446  3.1739
17174TIP3    H273014   3.044   1.099   6.795 -1.8938  0.2489 -0.9368
17175TIP3   OH273015   1.019   5.512  12.106 -0.2116 -0.3199  0.3822
17175TIP3    H173016   1.100   5.494  12.058 -0.8229 -1.4924 -0.2497
17175TIP3    H273017   1.044   5.506  12.198  0.2622 -1.5071  0.1966
17176TIP3   OH273018   1.507   5.259  14.550  0.5071  0.5716  0.1751
17176TIP3    H173019   1.593   5.290  14.523 -0.6877  2.2818 -1.9812
17176TIP3    H273020   1.515   5.242  14.643  2.5046  3.1559  0.5720
17177TIP3   OH273021   3.785   4.902   1.099  0.4529  0.3295  0.0705
17177TIP3    H173022   3.841   4.869   1.169 -0.3194  0.3593  0.7270
17177TIP3    H273023   3.705   4.929   1.144 -0.5276 -0.7267 -0.9527
17178TIP3   OH273024   5.551   5.928   4.348 -0.0945  0.1275 -0.1952
17178TIP3    H173025   5.535   6.010   4.393 -1.9833  0.3335 -1.1618
17178TIP3    H273026   5.562   5.953   4.256  0.8486 -0.5658 -0.2886
17179TIP3   OH273027   2.367   3.928   3.969  0.0222 -0.0721  0.5108
17179TIP3    H173028   2.332   4.012   3.940 -0.4750 -0.4343  0.0488
17179TIP3    H273029   2.313   3.862   3.924  0.3238 -0.6373  0.9639
17180TIP3   OH273030   4.599   2.922   1.133  0.1872 -0.2964  0.2887
17180TIP3    H173031   4.586   2.985   1.062  2.1716 -1.4354 -1.1804
17180TIP3    H273032   4.621   2.976   1.209 -0.5995  0.8940 -0.3035
17181TIP3   OH273033   4.894   4.943   4.185  0.0202  0.7678 -0.0973
17181TIP3    H173034   4.977   4.984   4.213  0.1412  0.8219 -0.5336
17181TIP3    H273035   4.895   4.951   4.090  0.0138 -0.1989 -0.1799
17182TIP3   OH273036   6.630   6.746  13.338  0.2765  0.1600 -0.1665
17182TIP3    H173037   6.719   6.712  13.333  0.8570  1.0490  2.3273
17182TIP3    H273038   6.581   6.679  13.386  0.2846  0.7576  0.7152
17183TIP3   OH273039   1.858   5.642   0.135  0.1086  0.1519  0.2366
17183TIP3    H173040   1.845   5.691   0.216 -0.2549  0.4132  0.0223
17183TIP3    H273041   1.811   5.560   0.149  0.0403  0.1998  0.2861
17184TIP3   OH273042   0.874   2.638   3.840 -0.4233  0.0780 -0.1816
17184TIP3    H173043   0.942   2.682   3.789 -0.6502 -0.8800 -1.3651
17184TIP3    H273044   0.877   2.680   3.925  2.0660 -0.3187  0.0031
17185TIP3   OH273045   4.579   0.139   3.356  0.0334  0.0964  0.0348
17185TIP3    H173046   4.533   0.216   3.323 -1.3953 -1.4066 -1.7163
17185TIP3    H273047   4.656   0.131   3.300 -0.9886 -0.9325 -1.3110
17186TIP3   OH273048   1.840   6.390  12.837 -0.2111  0.0064 -0.2837
17186TIP3    H173049   1.777   6.337  12.888  0.6313 -0.5627  0.2008
17186TIP3    H273050   1.917   6.334  12.831  0.7860  1.2560  0.4117
17187TIP3   OH273051   0.613   3.755   3.368 -0.3989 -0.9583  0.1054
17187TIP3    H173052   0.577   3.673   3.401 -1.5652 -0.8653 -0.8535
17187TIP3    H273053   0.537   3.803   3.335  0.3961  0.0453 -0.3250
17188TIP3   OH273054   3.045   6.635  14.146 -0.6661  0.0308 -0.4787
17188TIP3    H173055   2.986   6.666  14.215 -0.1333  0.1414 -0.0745
17188TIP3    H273056   2.989   6.630  14.068 -1.6795 -1.6875  0.3082
17189TIP3   OH273057   2.246   3.109  13.752 -0.2615  0.7284 -0.6760
17189TIP3    H173058   2.248   3.177  13.820  0.3553 -0.6724  0.7799
17189TIP3    H273059   2.333   3.110  13.714  0.2588 -0.2015  0.4045
17190TIP3   OH273060   4.876   6.723   5.423  0.0685 -0.1224 -0.3015
17190TIP3    H173061   4.782   6.715   5.440  0.0087  1.8794  0.6583
17190TIP3    H273062   4.885   6.705   5.329 -1.1461 -1.0525 -0.2728
17191TIP3   OH273063   6.428   2.700   0.775  0.1437  0.4113 -0.0872
17191TIP3    H173064   6.430   2.786   0.733  0.1798  0.8842  0.8744
17191TIP3    H273065   6.457   2.716   0.865 -0.7220 -0.4649  0.3605
17192TIP3   OH273066   2.086   1.593   2.771 -0.1525  0.1154  0.3982
17192TIP3    H173067   2.143   1.559   2.841  1.6146 -1.7073 -1.7739
17192TIP3    H273068   2.138   1.662   2.730 -0.3533 -0.1860 -0.3676
17193TIP3   OH273069   1.084   3.709  10.980  0.6010 -0.0001 -0.2981
17193TIP3    H173070   1.083   3.689  11.074 -0.3064 -1.3687 -0.5754
17193TIP3    H273071   1.111   3.627  10.938  3.0883  1.1595 -1.1554
17194TIP3   OH273072   2.861   5.350   0.493  0.0700 -0.7762  0.1510
17194TIP3    H173073   2.955   5.356   0.511 -0.1013  0.0792  0.8266
17194TIP3    H273074   2.819   5.376   0.575 -0.7545 -0.6727 -0.2897
17195TIP3   OH273075   6.002   1.915  12.480 -0.1973  0.5049 -0.4845
17195TIP3    H173076   5.948   1.854  12.430  0.3041  0.9568 -1.6278
17195TIP3    H273077   6.068   1.944  12.418  0.2717  1.3274  0.3746
17196TIP3   OH273078   4.480   2.535   3.175 -0.0997 -0.2108 -0.3415
17196TIP3    H173079   4.408   2.547   3.237  0.2817  1.5783 -0.1937
17196TIP3    H273080   4.447   2.570   3.092  0.3900  0.1036 -0.4111
17197TIP3   OH273081   0.973   5.836  11.451 -0.2361  0.3107  0.2949
17197TIP3    H173082   1.032   5.780  11.400 -1.8091  0.3043 -1.6112
17197TIP3    H273083   0.969   5.793  11.537 -0.0241 -1.5345 -0.5570
17198TIP3   OH273084   2.068   3.066  12.036 -0.9079 -0.1443 -0.4284
17198TIP3    H173085   2.076   3.065  11.941  2.4676 -0.4159 -0.2674
17198TIP3    H273086   2.060   2.974  12.061 -1.2812 -0.1092 -0.4139
17199TIP3   OH273087   1.055   2.298  17.151 -0.2968 -0.0452 -0.0438
17199TIP3    H173088   0.975   2.347  17.169  0.2633  0.3040  1.6856
17199TIP3    H273089   1.055   2.227  17.216  0.7465 -0.0843 -0.0686
17200TIP3   OH273090   3.656   3.469  12.579  0.2021 -0.0493 -0.7213
17200TIP3    H173091   3.748   3.448  12.564  0.9564  1.5894  1.1712
17200TIP3    H273092   3.620   3.486  12.492  1.7080 -0.5586 -1.4712
17201TIP3   OH273093   2.693   5.386  11.891 -0.2940 -0.1623 -0.1959
17201TIP3    H173094   2.771   5.382  11.836  1.3448 -0.8046  2.0404
17201TIP3    H273095   2.668   5.478  11.891  0.4930  0.0552 -0.9163
17202TIP3   OH273096   1.816   1.915   5.023  0.1502  0.3923  0.3287
17202TIP3    H173097   1.799   1.991   5.079 -0.5430 -0.0325  0.7280
17202TIP3    H273098   1.776   1.937   4.939 -1.7672 -0.2611  1.0143
17203TIP3   OH273099   1.930   4.896   0.668  0.0706 -0.7864  0.4285
17203TIP3    H173100   1.913   4.981   0.628 -1.0955 -0.5825  1.3169
17203TIP3    H273101   1.848   4.847   0.660  0.5520 -1.6251  0.4273
17204TIP3   OH273102   4.547   6.342  13.780 -0.1377  0.1412 -0.0061
17204TIP3    H173103   4.478   6.405  13.759  0.1851  0.0530 -1.3945
17204TIP3    H273104   4.511   6.258  13.752  0.1030 -0.0567  0.2770
17205TIP3   OH273105   1.988   4.404   3.058 -0.6822  0.1102  0.3425
17205TIP3    H173106   2.066   4.356   3.087  0.8256  2.1177 -0.1130
17205TIP3    H273107   1.972   4.468   3.127  0.1363  1.8683 -1.0003
17206TIP3   OH273108   3.667   3.341   4.976  0.1942 -0.2204 -0.5802
17206TIP3    H173109   3.732   3.379   4.918  0.6559 -0.3284 -0.1462
17206TIP3    H273110   3.624   3.416   5.018  0.7919 -0.1596 -0.0614
17207TIP3   OH273111   6.810   4.359  14.784  0.4528  0.0788  0.7946
17207TIP3    H173112   6.779   4.271  14.804 -3.0043  0.8625 -0.4182
17207TIP3    H273113   6.826   4.399  14.869  2.8422 -1.8300  1.3667
17208TIP3   OH273114   0.729   2.853  11.693  0.1455  0.1165 -0.4059
17208TIP3    H173115   0.734   2.888  11.782 -0.3345  1.1286 -0.7610
17208TIP3    H273116   0.798   2.787  11.689  0.4637  0.3732  0.5751
17209TIP3   OH273117   2.440   3.041   4.702  0.2763 -0.1900 -0.1595
17209TIP3    H173118   2.451   3.049   4.607 -0.9883 -0.4068 -0.3355
17209TIP3    H273119   2.440   2.947   4.718 -0.4490 -0.1839 -0.0793
17210TIP3   OH273120   2.984   0.513  13.820  0.2254 -0.3883  0.1669
17210TIP3    H173121   2.985   0.601  13.858  1.2663 -0.6982  0.9013
17210TIP3    H273122   2.971   0.455  13.895 -0.6308 -0.8726 -0.3316
17211TIP3   OH273123   4.163   6.070  13.525 -0.0845 -0.6716 -0.2132
17211TIP3    H173124   4.231   6.136  13.527  0.2440 -0.8759 -2.3000
17211TIP3    H273125   4.202   5.994  13.568  0.5348 -0.3731 -0.2400
17212TIP3   OH273126   5.636   3.739   4.598  0.0546 -0.2051  0.3585
17212TIP3    H173127   5.625   3.646   4.577  0.4357  0.3110 -2.4528
17212TIP3    H273128   5.605   3.786   4.520  1.6073  1.9704  0.9536
17213TIP3   OH273129   4.503   5.884   4.753  0.3525 -0.4311  0.7295
17213TIP3    H173130   4.435   5.849   4.696  0.0194 -0.2980  1.0437
17213TIP3    H273131   4.581   5.832   4.732  0.7508  0.8276 -1.1850
17214TIP3   OH273132   4.940   6.500  15.954 -0.5939  0.3759 -0.5033
17214TIP3    H173133   5.017   6.530  16.002 -0.6103  0.5474 -0.5841
17214TIP3    H273134   4.956   6.527  15.863  0.2277 -1.4274 -0.9353
17215TIP3   OH273135   6.567   4.290  16.269 -0.3931  0.0265 -0.0215
17215TIP3    H173136   6.587   4.351  16.198 -0.9702  0.8951  0.5357
17215TIP3    H273137   6.477   4.312  16.294 -0.5972 -1.0441  0.2119
17216TIP3   OH273138   4.132   2.798  17.184 -0.2595 -0.1837 -0.1288
17216TIP3    H173139   4.100   2.794  17.094 -0.8627 -0.4303  0.0901
17216TIP3    H273140   4.138   2.891  17.203 -1.8983 -0.1042  0.1697
17217TIP3   OH273141   0.977   3.627   4.275 -0.1670 -0.3493 -0.2223
17217TIP3    H173142   0.949   3.607   4.364 -0.7650 -0.9968 -0.5481
17217TIP3    H273143   1.058   3.677   4.286 -1.7183  2.1126  0.7630
17218TIP3   OH273144   3.089   4.731   0.332  1.1339  0.4942  0.0163
17218TIP3    H173145   3.025   4.717   0.401  1.5340  0.1742  0.3257
17218TIP3    H273146   3.055   4.805   0.282  0.9200  0.8210  0.6407
17219TIP3   OH273147   6.408   4.625  12.724 -0.2950 -0.0026 -0.6968
17219TIP3    H173148   6.384   4.633  12.632  0.7421  0.7438 -0.9253
17219TIP3    H273149   6.473   4.694  12.738  0.7737 -1.1281  0.1721
17220TIP3   OH273150   1.896   1.271   5.286 -0.2238  0.4301 -0.2724
17220TIP3    H173151   1.809   1.270   5.246 -0.3528  0.2331  0.0163
17220TIP3    H273152   1.936   1.352   5.254 -0.1484  0.0497 -1.1835
17221TIP3   OH273153   1.064   2.026   5.567 -0.0512  0.0201  0.9250
17221TIP3    H173154   1.133   2.030   5.501 -0.3643 -0.0743  0.5865
17221TIP3    H273155   1.062   2.114   5.605 -0.4207  0.3137  0.2350
17222TIP3   OH273156   1.177   3.905  13.492  0.2901 -0.6147 -0.2436
17222TIP3    H173157   1.171   3.949  13.407 -2.0099 -1.5096 -0.6267
17222TIP3    H273158   1.154   3.814  13.473  3.3021 -1.6912  0.7903
17223TIP3   OH273159   1.567   3.780  13.178  0.5475  0.4375  0.0774
17223TIP3    H173160   1.659   3.773  13.153  0.4512  2.7110 -1.2482
17223TIP3    H273161   1.520   3.732  13.110  0.5638  2.9524 -1.8424
17224TIP3   OH273162   5.710   0.603   3.872 -0.0765  0.4475 -0.2030
17224TIP3    H173163   5.631   0.644   3.838 -0.6866  0.6207  1.3616
17224TIP3    H273164   5.697   0.598   3.967  1.6508  0.1952  0.0684
17225TIP3   OH273165   0.236   0.589   1.861  0.0924  0.1016  0.0596
17225TIP3    H173166   0.251   0.645   1.785  1.6384  1.5694  1.3445
17225TIP3    H273167   0.280   0.635   1.933 -1.1880 -1.2851  1.8212
17226TIP3   OH273168   1.621   5.669   4.943 -0.5637  0.6794  0.1658
17226TIP3    H173169   1.552   5.691   4.880 -0.2182 -0.5289 -0.6886
17226TIP3    H273170   1.683   5.615   4.892  0.0554  0.2134  1.3776
17227TIP3   OH273171   5.934   2.704  14.196 -0.2739 -0.1502  0.2723
17227TIP3    H173172   5.969   2.641  14.259  3.1092  1.6485  0.4259
17227TIP3    H273173   5.962   2.672  14.111  1.5964  1.1062  0.3615
17228TIP3   OH273174   1.833   0.566  12.365 -0.3657 -0.2696  0.3552
17228TIP3    H173175   1.829   0.572  12.460  1.8861 -2.1319  0.6441
17228TIP3    H273176   1.908   0.619  12.340 -1.3275  0.7512 -0.4959
17229TIP3   OH273177   2.566   0.894  11.919  0.7318 -0.2129 -0.2928
17229TIP3    H173178   2.641   0.952  11.931  0.7903  0.3903 -3.0520
17229TIP3    H273179   2.494   0.939  11.961  1.2373  0.8063 -0.4905
17230TIP3   OH273180   2.577   2.442   1.277 -0.4826  0.2808  0.3279
17230TIP3    H173181   2.529   2.424   1.196 -0.4205 -0.1561  0.3869
17230TIP3    H273182   2.544   2.378   1.340 -1.2292  1.2362  0.9305
17231TIP3   OH273183   3.819   0.594   4.509 -0.1164 -0.3062  0.4825
17231TIP3    H173184   3.758   0.668   4.520  0.6068  0.5332 -0.8233
17231TIP3    H273185   3.834   0.562   4.598 -2.9731 -1.0146  0.8271
17232TIP3   OH273186   4.366   3.099   1.401  0.2103 -0.1648 -0.2594
17232TIP3    H173187   4.284   3.091   1.449  0.4049 -1.6282 -0.1259
17232TIP3    H273188   4.340   3.099   1.309  0.0592 -0.7718 -0.2198
17233TIP3   OH273189   6.447   0.694   4.774 -0.4754  0.2496 -0.6656
17233TIP3    H173190   6.384   0.757   4.810  1.2342  1.0317  1.1030
17233TIP3    H273191   6.468   0.729   4.688  1.3328  2.9105  0.7098
17234TIP3   OH273192   5.109   3.120   4.826  0.5081 -0.3492  0.4723
17234TIP3    H173193   5.068   3.169   4.754 -0.2713  0.4008  1.4021
17234TIP3    H273194   5.171   3.182   4.864  0.9168 -0.7432  0.4500
17235TIP3   OH273195   1.790   6.729  10.708  0.1494 -0.4409  0.5152
17235TIP3    H173196   1.858   6.726  10.640 -0.6888 -1.8822 -0.3049
17235TIP3    H273197   1.711   6.758  10.662  0.3257  2.0764  1.6279
17236TIP3   OH273198   0.407   3.455  14.015  0.1847  0.0374  0.7792
17236TIP3    H173199   0.501   3.472  14.016  0.6547 -1.5346  5.1292
17236TIP3    H273200   0.392   3.410  13.932  2.8114  1.9644 -0.9106
17237TIP3   OH273201   3.271   5.521   0.421  0.6429  0.2184 -0.2606
17237TIP3    H173202   3.285   5.578   0.497 -0.0479  2.8802 -1.9944
17237TIP3    H273203   3.310   5.438   0.446 -1.4599  0.2013  3.8731
17238TIP3   OH273204   4.921   5.073   5.456  0.0607  0.1030  0.5203
17238TIP3    H173205   4.862   5.135   5.414  1.5769  0.5716 -1.0266
17238TIP3    H273206   4.873   4.990   5.456 -0.9365  0.6653  0.1430
17239TIP3   OH273207   4.406   2.440  13.680 -0.1502  0.2243 -0.2150
17239TIP3    H173208   4.392   2.437  13.775 -0.5109 -2.5259 -0.2788
17239TIP3    H273209   4.494   2.476  13.670  0.8174 -1.5317  1.3248
17240TIP3   OH273210   6.365   1.255   0.430  0.4138 -0.4180  1.0638
17240TIP3    H173211   6.397   1.344   0.442  0.2518 -0.3215  0.7852
17240TIP3    H273212   6.286   1.250   0.484 -1.4545  0.6293 -1.3895
17241TIP3   OH273213   0.134   4.611   2.471 -0.2842 -0.1521 -0.3244
17241TIP3    H173214   0.170   4.523   2.472  1.5892  0.5616 -0.6227
17241TIP3    H273215   0.200   4.663   2.424 -0.9441  1.5595  0.5623
17242TIP3   OH273216   5.879   1.193   0.182 -0.6594  0.4176  0.4743
17242TIP3    H173217   5.845   1.272   0.223  0.3482  0.5661  1.0331
17242TIP3    H273218   5.963   1.218   0.145  0.1730 -0.6505  1.5820
17243TIP3   OH273219   6.197   6.311  11.916 -0.1019  0.0261 -0.5360
17243TIP3    H173220   6.182   6.352  12.001 -1.0875 -2.8301  0.7796
17243TIP3    H273221   6.109   6.296  11.881  0.2402 -0.6272 -1.1307
17244TIP3   OH273222   1.485   5.289   4.953  0.1247  0.1827 -0.4786
17244TIP3    H173223   1.453   5.353   4.890  2.6499 -0.6706 -2.8325
17244TIP3    H273224   1.553   5.336   5.002  1.2758 -0.3604 -1.5161
17245TIP3   OH273225   0.871   4.404   0.547  0.0454  0.6174  0.0829
17245TIP3    H173226   0.904   4.316   0.530  1.5849  1.3295 -0.8035
17245TIP3    H273227   0.891   4.420   0.639 -0.2631  0.0372  0.2517
17246TIP3   OH273228   1.343   3.535   4.740 -0.2620  0.3421  0.2275
17246TIP3    H173229   1.247   3.531   4.743 -0.2526  0.3403  0.7613
17246TIP3    H273230   1.364   3.612   4.793 -0.0074  0.9360 -0.7212
17247TIP3   OH273231   0.197   2.432   2.896  0.9275 -0.5950 -0.5990
17247TIP3    H173232   0.138   2.357   2.902 -0.3487  0.4593  4.1530
17247TIP3    H273233   0.153   2.493   2.837 -2.7136 -0.1162  2.2359
17248TIP3   OH273234   4.322   2.740   3.807  0.3404 -0.1620 -0.2045
17248TIP3    H173235   4.283   2.810   3.860 -0.4495 -1.5307  1.0901
17248TIP3    H273236   4.394   2.707   3.860 -0.3662 -1.4554 -0.0198
17249TIP3   OH273237   6.680   6.383   5.473 -0.1288 -0.3387 -0.1674
17249TIP3    H173238   6.593   6.397   5.511  0.5350  1.5957  0.7633
17249TIP3    H273239   6.732   6.457   5.504  1.6928 -1.1047 -1.2341
17250TIP3   OH273240   0.219   6.406  12.898  0.5616 -0.0749  0.3446
17250TIP3    H173241   0.159   6.354  12.952  0.5029  1.5664  1.9533
17250TIP3    H273242   0.299   6.414  12.950  0.0779  2.5595  0.8384
17251TIP3   OH273243   0.581   3.533  14.344  0.5324 -0.4461  0.3882
17251TIP3    H173244   0.581   3.442  14.373  0.5197 -0.4003  0.5297
17251TIP3    H273245   0.670   3.563  14.360  0.8696 -0.7817 -0.7448
17252TIP3   OH273246   5.060   1.308   1.272 -0.3384 -0.1297 -0.0618
17252TIP3    H173247   5.074   1.372   1.203 -2.1163 -0.6209 -0.9296
17252TIP3    H273248   5.063   1.224   1.228  0.9746 -0.6193  0.9043
17253TIP3   OH273249   2.511   4.763  16.426 -0.0823 -0.7182  0.0580
17253TIP3    H173250   2.533   4.675  16.397  0.8783 -0.7012  0.6681
17253TIP3    H273251   2.593   4.812  16.418 -0.3662 -0.1305  0.6194
17254TIP3   OH273252   4.132   1.768   0.598 -0.7097  0.3453 -0.0211
17254TIP3    H173253   4.089   1.686   0.574  1.6500 -0.4787 -1.8036
17254TIP3    H273254   4.132   1.819   0.517  0.0620  1.0512  0.4184
17255TIP3   OH273255   1.886   5.089   6.031 -0.4668  0.2257  0.2290
17255TIP3    H173256   1.872   5.142   6.109 -1.2850  1.8904 -0.9828
17255TIP3    H273257   1.916   5.005   6.064  2.5159  1.8882  2.2089
17256TIP3   OH273258   1.698   6.246  14.388 -0.0240  0.1479 -0.3932
17256TIP3    H173259   1.651   6.197  14.456  1.6963  2.3204  2.6175
17256TIP3    H273260   1.728   6.179  14.327 -3.8186 -1.6798 -0.5568
17257TIP3   OH273261   5.395   1.380   0.430 -0.2313 -0.5560  0.1291
17257TIP3    H173262   5.390   1.360   0.523  2.5567 -0.0929  0.4828
17257TIP3    H273263   5.426   1.471   0.426 -0.3915 -0.5325 -1.2438
17258TIP3   OH273264   2.457   5.919   1.365  0.3235 -0.3781  0.4934
17258TIP3    H173265   2.545   5.896   1.335  0.7362 -1.2940  2.3229
17258TIP3    H273266   2.417   5.835   1.388 -0.4613  0.1805  1.1933
17259TIP3   OH273267   3.111   0.388   2.075 -0.5322  0.6342 -0.3964
17259TIP3    H173268   3.063   0.468   2.100 -1.5036 -0.5597  1.8048
17259TIP3    H273269   3.168   0.417   2.003 -0.3676  3.4603  0.7186
17260TIP3   OH273270   6.325   1.831  14.497 -0.4625  0.5681  0.0955
17260TIP3    H173271   6.286   1.746  14.517  0.5362  0.5060  2.0709
17260TIP3    H273272   6.381   1.815  14.420 -0.7374 -0.4203  0.0952
17261TIP3   OH273273   2.274   4.913  14.948 -0.2879  0.4592 -0.3098
17261TIP3    H173274   2.265   4.978  15.018  0.3979  1.0652 -0.7677
17261TIP3    H273275   2.363   4.880  14.956 -1.4698 -2.6253  1.7533
17262TIP3   OH273276   1.155   2.940   2.051  0.0180 -0.2908 -0.4779
17262TIP3    H173277   1.201   2.990   2.118 -0.2718  1.4236 -1.5078
17262TIP3    H273278   1.075   2.911   2.093  0.0530  0.3699  0.0572
17263TIP3   OH273279   1.878   3.937   1.313 -0.4609 -0.2161  0.6494
17263TIP3    H173280   1.880   3.862   1.253  2.4207  0.3009 -0.0234
17263TIP3    H273281   1.958   3.930   1.364 -0.1799  2.2976  0.6820
17264TIP3   OH273282   0.989   0.193   4.766 -0.3496 -0.4849  0.4683
17264TIP3    H173283   1.023   0.104   4.756 -1.4677 -0.8781 -0.0082
17264TIP3    H273284   0.907   0.193   4.717 -0.1737  0.9320  0.1124
17265TIP3   OH273285   1.844   5.722   2.972 -0.4842 -0.5400  0.2570
17265TIP3    H173286   1.832   5.781   2.898  0.3164  2.4713  2.3439
17265TIP3    H273287   1.901   5.653   2.939  0.4051  1.0630 -1.7595
17266TIP3   OH273288   0.456   1.376  14.641 -0.5192 -0.6077 -0.0002
17266TIP3    H173289   0.529   1.392  14.700 -0.8184 -0.1431  0.2505
17266TIP3    H273290   0.411   1.299  14.676 -1.0494  0.0204  0.7350
17267TIP3   OH273291   6.231   1.486   2.489  0.4214 -0.2366  0.2000
17267TIP3    H173292   6.315   1.469   2.446  0.2726 -1.0543  0.2232
17267TIP3    H273293   6.182   1.404   2.480 -1.0128  0.7270 -1.2496
17268TIP3   OH273294   1.917   4.246   6.423  0.5915  0.6524  0.3330
17268TIP3    H173295   1.920   4.325   6.370  2.5204 -0.2091 -0.9407
17268TIP3    H273296   1.829   4.246   6.461  1.1010  4.3298  1.9095
17269TIP3   OH273297   1.760   6.155   4.967  0.0556  0.5528 -0.1644
17269TIP3    H173298   1.812   6.074   4.957  1.0253  1.2644 -1.1497
17269TIP3    H273299   1.764   6.196   4.881  2.1498  3.1498  1.0252
17270TIP3   OH273300   1.926   2.022  14.362  0.5622 -0.6599 -0.0938
17270TIP3    H173301   1.954   2.083  14.294  0.0634  1.8670  1.7939
17270TIP3    H273302   2.000   1.962  14.372  3.0116  2.2176  0.7198
17271TIP3   OH273303   4.918   1.873  11.343 -0.1196 -0.2015 -0.1487
17271TIP3    H173304   4.870   1.924  11.277  0.0132 -0.8344 -0.7352
17271TIP3    H273305   4.995   1.927  11.363  0.5364 -0.6226 -1.4976
17272TIP3   OH273306   2.369   1.080   3.916  0.3658 -0.5431 -0.2930
17272TIP3    H173307   2.442   1.097   3.857  0.3425 -0.9211 -0.4324
17272TIP3    H273308   2.408   1.034   3.991  0.2683 -0.7768 -0.3836
17273TIP3   OH273309   4.332   5.531   1.070  0.1043  0.7648 -0.0473
17273TIP3    H173310   4.292   5.606   1.113 -1.2825  0.1189 -0.1762
17273TIP3    H273311   4.306   5.539   0.978 -2.2399 -1.2055  0.3663
17274TIP3   OH273312   3.948   1.510  14.593 -0.1584 -0.1605  0.0505
17274TIP3    H173313   3.967   1.603  14.603 -0.9801  0.0236 -0.0422
17274TIP3    H273314   3.902   1.485  14.673  0.4663 -0.5981  0.2776
17275TIP3   OH273315   1.559   1.122   1.116 -0.4181  0.5153 -0.1514
17275TIP3    H173316   1.605   1.038   1.109 -2.0136 -0.7122  2.4023
17275TIP3    H273317   1.606   1.180   1.057  2.2156 -1.5482 -0.2799
17276TIP3   OH273318   0.358   3.432  12.759 -0.0187  0.4655 -0.0123
17276TIP3    H173319   0.263   3.426  12.774 -0.2092  0.1436 -1.1878
17276TIP3    H273320   0.380   3.523  12.776 -0.5646  0.5593  0.1970
17277TIP3   OH273321   5.313   5.739  14.653  0.3611  0.2568  0.3721
17277TIP3    H173322   5.348   5.672  14.712 -2.5033 -0.5823  1.3080
17277TIP3    H273323   5.290   5.690  14.573  1.7251  0.8916 -0.4469
17278TIP3   OH273324   1.058   3.752  15.972 -0.5235  0.4912 -0.2158
17278TIP3    H173325   1.008   3.670  15.977  0.1434  0.1603  2.2084
17278TIP3    H273326   1.126   3.743  16.039  0.2315  2.6210 -0.6106
17279TIP3   OH273327   2.694   4.642   0.239  0.3089  0.3270  0.5146
17279TIP3    H173328   2.628   4.584   0.278 -0.8301  0.4432 -1.1375
17279TIP3    H273329   2.697   4.718   0.297 -0.5444  0.0247  0.9716
17280TIP3   OH273330   2.297   4.440  16.025 -0.8210  0.1451 -0.9274
17280TIP3    H173331   2.292   4.513  15.963 -2.3176 -0.3970 -1.4794
17280TIP3    H273332   2.348   4.373  15.980  0.4863  0.7916 -0.4520
17281TIP3   OH273333   6.786   4.133  16.351  1.2332 -0.5857 -0.0615
17281TIP3    H173334   6.831   4.118  16.267  0.8746 -2.5556  0.0399
17281TIP3    H273335   6.699   4.165  16.325  0.9588 -1.6303 -0.4909
17282TIP3   OH273336   3.092   2.583   1.959  0.0032 -0.1298 -0.9498
17282TIP3    H173337   3.185   2.573   1.976  0.5419  1.9826 -2.2693
17282TIP3    H273338   3.087   2.606   1.866 -1.7477  0.7162 -0.6921
17283TIP3   OH273339   2.774   3.096   4.203  0.3465  0.7407 -0.3725
17283TIP3    H173340   2.702   3.034   4.201  0.2471  0.8650 -0.9869
17283TIP3    H273341   2.763   3.144   4.285  0.5890 -0.2351  0.2429
17284TIP3   OH273342   0.700   5.045   0.551  0.1160  0.2358  0.3957
17284TIP3    H173343   0.743   4.963   0.577 -1.6029 -1.0822 -0.6537
17284TIP3    H273344   0.762   5.113   0.575  2.0537 -1.4294  0.4465
17285TIP3   OH273345   5.941   3.202   0.664 -0.3393 -0.2410  0.3070
17285TIP3    H173346   5.977   3.277   0.711  0.6522  0.0956 -0.9407
17285TIP3    H273347   5.847   3.220   0.659 -0.6580 -0.7331  2.8956
17286TIP3   OH273348   4.355   4.081   3.458  0.2268 -0.1715 -0.2975
17286TIP3    H173349   4.260   4.070   3.458  0.1587  0.0850  1.6911
17286TIP3    H273350   4.379   4.084   3.365 -1.4670 -2.1338 -0.8558
17287TIP3   OH273351   5.452   3.553   2.723 -0.3550  0.3097  0.2008
17287TIP3    H173352   5.510   3.478   2.730 -0.8675 -0.1291 -0.1220
17287TIP3    H273353   5.457   3.596   2.808 -1.4931 -1.1809  1.0802
17288TIP3   OH273354   1.511   2.823  14.398  0.4029  0.0657  0.4814
17288TIP3    H173355   1.471   2.764  14.462 -0.0224  0.6462  0.7656
17288TIP3    H273356   1.461   2.810  14.318  0.3635 -0.0202  0.5204
17289TIP3   OH273357   6.323   0.709   0.235  0.3250  0.2035 -0.6775
17289TIP3    H173358   6.279   0.639   0.188  1.3177 -0.7529 -0.2179
17289TIP3    H273359   6.413   0.679   0.244  0.7924  1.5774 -0.5375
17290TIP3   OH273360   3.681   4.444  13.646 -0.2490 -0.7996  0.2400
17290TIP3    H173361   3.595   4.442  13.688 -0.1496  0.5687  0.5465
17290TIP3    H273362   3.724   4.521  13.682  0.0803  0.0938 -1.8927
17291TIP3   OH273363   5.385   0.770   3.073 -0.0752 -1.0788 -0.1938
17291TIP3    H173364   5.334   0.850   3.081 -1.5717 -1.9413 -0.6251
17291TIP3    H273365   5.396   0.739   3.162  1.7070  0.2737  0.1104
17292TIP3   OH273366   3.923   3.460  15.878  0.0799  0.3679  0.1900
17292TIP3    H173367   3.928   3.552  15.902  0.2691  0.9037 -1.7014
17292TIP3    H273368   3.839   3.451  15.833 -0.0349 -0.4367  0.5463
17293TIP3   OH273369   5.509   6.159   3.852  0.2451 -0.3054 -0.0773
17293TIP3    H173370   5.427   6.200   3.879  1.0856  1.1806  0.3114
17293TIP3    H273371   5.556   6.227   3.803  0.9349 -1.3606 -0.9476
17294TIP3   OH273372   5.063   1.334   0.984 -0.2747  0.1246  0.0715
17294TIP3    H173373   5.039   1.424   0.961 -0.5971 -0.1646 -0.7810
17294TIP3    H273374   5.010   1.280   0.925 -0.2056 -0.6290  0.6911
17295TIP3   OH273375   6.823   4.959  10.846 -0.6280 -0.3751  0.2178
17295TIP3    H173376   6.840   4.886  10.787 -1.6414 -1.3400  1.0584
17295TIP3    H273377   6.871   5.033  10.809 -0.0149 -1.3352 -0.9486
17296TIP3   OH273378   1.432   5.118   3.716 -0.5614 -0.3841  0.0592
17296TIP3    H173379   1.363   5.115   3.782  0.0103  1.7116  0.8482
17296TIP3    H273380   1.488   5.191   3.744  1.1281 -1.0752 -1.3677
17297TIP3   OH273381   2.231   3.938  13.214  0.6144 -0.0122  0.1218
17297TIP3    H173382   2.170   3.960  13.144  0.8993 -1.6385 -0.6688
17297TIP3    H273383   2.279   4.020  13.230  1.7617 -0.0019 -2.8139
17298TIP3   OH273384   2.841   3.444  13.686 -0.1122  0.2852 -0.2253
17298TIP3    H173385   2.804   3.469  13.771  1.4037  0.3229  0.4431
17298TIP3    H273386   2.925   3.490  13.681  0.0105 -0.0356 -1.5774
17299TIP3   OH273387   3.012   3.341   0.088  0.1438  0.7693 -0.3967
17299TIP3    H173388   3.028   3.249   0.069  1.8523  0.8281  0.4906
17299TIP3    H273389   2.994   3.381   0.003 -1.0477 -0.4260 -0.7440
17300TIP3   OH273390   6.085   1.121   5.063 -0.1931 -0.6681 -0.3350
17300TIP3    H173391   6.112   1.163   5.145 -1.0134  0.2513 -0.5184
17300TIP3    H273392   6.029   1.048   5.091 -2.4457  1.0434 -0.0656
17301TIP3   OH273393   4.936   1.570   3.735 -0.0307  0.2815  0.2889
17301TIP3    H173394   4.984   1.612   3.664 -0.2200  1.0633  0.6076
17301TIP3    H273395   5.003   1.551   3.801  0.1166 -0.2868 -0.0195
17302TIP3   OH273396   2.514   3.579  14.699 -0.3226 -0.2404  0.3938
17302TIP3    H173397   2.439   3.549  14.648 -0.3960  0.4629  0.0723
17302TIP3    H273398   2.588   3.575  14.638  0.4267 -3.1905  1.3530
17303TIP3   OH273399   3.084   4.145  15.164 -0.1417  0.2083 -0.5353
17303TIP3    H173400   3.087   4.079  15.095 -0.0431 -1.0112  0.5915
17303TIP3    H273401   3.159   4.125  15.220 -0.8398  0.4651  0.5319
17304TIP3   OH273402   1.403   5.943  13.482  0.2480 -0.2143 -0.6076
17304TIP3    H173403   1.351   5.930  13.403  0.4622 -2.1483 -0.4910
17304TIP3    H273404   1.485   5.896  13.464  1.0582  0.9071  0.0537
17305TIP3   OH273405   0.392   6.682  15.054 -0.3268 -0.6484 -0.2347
17305TIP3    H173406   0.354   6.616  14.996 -2.1068  0.3354 -0.2664
17305TIP3    H273407   0.484   6.686  15.029 -0.5595 -1.8682 -1.4188
17306TIP3   OH273408   4.647   6.350   1.435  0.1469  0.0346  0.0461
17306TIP3    H173409   4.699   6.379   1.510  1.7881 -1.3508 -0.4877
17306TIP3    H273410   4.558   6.343   1.469  0.7723 -0.1222  1.7467
17307TIP3   OH273411   2.295   0.929  12.316  0.3906  0.7559  0.0670
17307TIP3    H173412   2.229   0.998  12.322 -1.5310 -0.9857 -0.0821
17307TIP3    H273413   2.363   0.956  12.378 -1.0043  2.0258  1.1112
17308TIP3   OH273414   1.177   3.182  16.859 -0.3323 -0.1278 -0.0936
17308TIP3    H173415   1.272   3.184  16.872 -0.3537  2.0019  0.0698
17308TIP3    H273416   1.141   3.194  16.947 -0.7306  0.1891 -0.3009
17309TIP3   OH273417   3.097   3.780   2.798 -0.0881  0.5446  0.0641
17309TIP3    H173418   3.032   3.748   2.861  0.7896 -1.0530  0.1920
17309TIP3    H273419   3.058   3.762   2.713 -0.5553  1.1980  0.1274
17310TIP3   OH273420   1.058   3.845  11.725 -0.3437 -0.9387 -0.6033
17310TIP3    H173421   1.038   3.938  11.730  2.6611 -0.1760 -0.3389
17310TIP3    H273422   0.989   3.802  11.774 -2.1382  1.0696 -1.2379
17311TIP3   OH273423   3.811   4.524   5.424  0.3630  0.4913  0.5931
17311TIP3    H173424   3.878   4.528   5.356 -0.4265 -1.9528 -0.4781
17311TIP3    H273425   3.779   4.614   5.432  1.2600  1.0716 -1.5041
17312TIP3   OH273426   0.569   0.085   2.788  0.1646  0.0696  0.3286
17312TIP3    H173427   0.582   0.156   2.851 -3.1313  2.6790 -1.5570
17312TIP3    H273428   0.616   0.114   2.710  1.1215 -1.2988  0.3704
17313TIP3   OH273429   0.962   0.958   2.060  0.6019  0.2731  0.1542
17313TIP3    H173430   0.901   0.983   2.129  0.5387  1.8587 -0.4411
17313TIP3    H273431   1.019   1.034   2.049  0.0810  0.4095 -2.0884
17314TIP3   OH273432   1.933   0.511   1.871 -0.7727  0.4846 -0.3038
17314TIP3    H173433   1.927   0.602   1.841  0.5471  0.0651 -2.0138
17314TIP3    H273434   2.020   0.503   1.909  0.1826 -0.6560 -2.5453
17315TIP3   OH273435   0.081   2.573   3.922 -0.2162 -0.1970 -0.6724
17315TIP3    H173436   0.154   2.516   3.947 -0.9380 -2.1311 -2.5719
17315TIP3    H273437   0.104   2.604   3.835  0.2339  2.7230  0.3865
17316TIP3   OH273438   4.933   3.352   3.988 -0.1382  0.3484 -0.3779
17316TIP3    H173439   4.900   3.307   4.066  1.1887  0.9815  0.5834
17316TIP3    H273440   5.000   3.411   4.021 -0.3229  1.4635 -1.8765
17317TIP3   OH273441   1.961   6.032  12.490  0.2576 -0.1302  0.5003
17317TIP3    H173442   2.042   6.071  12.521 -0.0207  0.5526  0.3779
17317TIP3    H273443   1.896   6.052  12.558  0.0789 -0.2389  0.3633
17318TIP3   OH273444   6.535   2.745   2.172 -0.3505  0.0605 -0.5088
17318TIP3    H173445   6.484   2.676   2.215 -0.7148 -0.0535 -1.1086
17318TIP3    H273446   6.504   2.826   2.212 -1.2053  0.0153 -1.0535
17319TIP3   OH273447   1.341   1.040   3.368  0.4365  0.2250  0.3713
17319TIP3    H173448   1.351   1.120   3.418  1.2710  1.3189 -1.4316
17319TIP3    H273449   1.383   1.059   3.284 -0.8270 -1.5282 -0.7268
17320TIP3   OH273450   1.037   3.196   4.488 -0.3477  0.3753 -0.7509
17320TIP3    H173451   0.981   3.256   4.439  1.4164  1.6673 -1.3117
17320TIP3    H273452   1.003   3.109   4.467 -1.3081  1.0385 -2.1168
17321TIP3   OH273453   6.735   6.519   2.519  0.0993  0.6367 -0.3881
17321TIP3    H173454   6.664   6.582   2.505 -0.4381  0.5892  1.7329
17321TIP3    H273455   6.690   6.438   2.543  0.8439  0.0304 -0.9880
17322TIP3   OH273456   1.403   1.587   0.942  0.8135  0.0969 -0.1227
17322TIP3    H173457   1.397   1.619   0.852  0.4995 -0.7254 -0.4011
17322TIP3    H273458   1.347   1.648   0.991  1.8720  1.2370 -0.2657
17323TIP3   OH273459   5.531   6.122   4.756  0.6273 -0.2447 -0.0942
17323TIP3    H173460   5.534   6.040   4.805  0.1342 -0.1063  0.1800
17323TIP3    H273461   5.612   6.168   4.781  1.6086 -1.2466 -1.3400
17324TIP3   OH273462   5.836   1.702  10.805 -0.1817  0.2656  0.2681
17324TIP3    H173463   5.766   1.730  10.745  0.4625 -1.3688 -1.3577
17324TIP3    H273464   5.798   1.629  10.853 -1.6946  3.2616  4.1494
17325TIP3   OH273465   6.415   3.234   2.107  0.1849 -0.2345 -0.0831
17325TIP3    H173466   6.492   3.178   2.101  0.0897 -0.2991 -0.8246
17325TIP3    H273467   6.418   3.271   2.195  0.8245 -0.5765  0.0393
17326TIP3   OH273468   2.624   1.496   0.325  0.4810 -0.3079 -0.4465
17326TIP3    H173469   2.612   1.470   0.234 -0.7702  0.6624 -0.5882
17326TIP3    H273470   2.719   1.504   0.335  0.7377 -2.0529 -1.1727
17327TIP3   OH273471   4.152   4.420  13.016  0.1065  0.0489  0.0968
17327TIP3    H173472   4.241   4.399  12.989  0.1781  0.8469 -0.3105
17327TIP3    H273473   4.160   4.504  13.061 -0.4489  0.1521  0.0083
17328TIP3   OH273474   5.819   1.610  16.553  0.0132  0.0893 -0.2134
17328TIP3    H173475   5.789   1.584  16.465  0.3614 -0.0148 -0.3006
17328TIP3    H273476   5.738   1.619  16.603 -0.3405  2.1230 -1.0581
17329TIP3   OH273477   3.134   0.474   1.750 -0.6050  0.0328  0.6238
17329TIP3    H173478   3.223   0.444   1.732 -0.1372 -0.1155  2.8052
17329TIP3    H273479   3.082   0.447   1.674  1.0621 -0.5323 -0.3464
17330TIP3   OH273480   4.468   6.283  12.871  0.0619  0.3661 -0.4591
17330TIP3    H173481   4.412   6.360  12.870 -0.3636  0.0783  0.0938
17330TIP3    H273482   4.459   6.249  12.960  1.3068  0.4451 -0.2892
17331TIP3   OH273483   3.748   2.848  16.335 -0.0415 -0.4478  0.0197
17331TIP3    H173484   3.686   2.784  16.301 -0.0326 -1.0761  1.1326
17331TIP3    H273485   3.830   2.827  16.290 -0.2626 -0.6067 -0.3192
17332TIP3   OH273486   5.681   3.504  11.680  0.2484 -0.3523 -0.0627
17332TIP3    H173487   5.645   3.462  11.602 -0.6926  0.4178 -0.0579
17332TIP3    H273488   5.609   3.504  11.743  0.7450 -0.2142  0.5112
17333TIP3   OH273489   2.546   1.075   0.125 -0.7778 -0.1526 -0.0536
17333TIP3    H173490   2.459   1.063   0.165 -1.4778  0.1253 -1.4206
17333TIP3    H273491   2.527   1.110   0.038  0.7598  0.5488 -0.1221
17334TIP3   OH273492   1.511   1.879  14.143  0.2080 -0.2785 -0.1468
17334TIP3    H173493   1.522   1.921  14.058  2.0403  0.6446  0.4978
17334TIP3    H273494   1.430   1.829  14.135 -0.0664  0.4174 -2.1632
17335TIP3   OH273495   1.156   0.806  14.141  0.1571  0.4814 -0.2938
17335TIP3    H173496   1.160   0.901  14.147  0.3555  0.5030 -0.7305
17335TIP3    H273497   1.110   0.779  14.221  0.4668  0.9113  0.0368
17336TIP3   OH273498   0.358   6.262   1.687  0.4004 -0.6530  0.3647
17336TIP3    H173499   0.410   6.300   1.616 -0.8036 -0.7207 -0.5727
17336TIP3    H273500   0.288   6.214   1.644 -0.7809 -0.1140  1.6006
17337TIP3   OH273501   3.251   4.363  10.470 -0.3159  0.1954 -0.2613
17337TIP3    H173502   3.249   4.367  10.566  0.4519 -1.4445 -0.1439
17337TIP3    H273503   3.326   4.306  10.450  0.0226  1.1641 -1.8657
17338TIP3   OH273504   0.624   4.233  17.130  0.1274  0.0446 -0.2986
17338TIP3    H173505   0.599   4.325  17.137 -1.3740 -0.2686 -1.2435
17338TIP3    H273506   0.541   4.185  17.126  0.8813 -1.3204 -0.1979
17339TIP3   OH273507   4.898   2.807  17.022  0.6388  0.4949  0.3675
17339TIP3    H173508   4.917   2.883  17.078  2.7109 -0.5155  1.1348
17339TIP3    H273509   4.933   2.831  16.936 -2.1032  1.8501 -0.4730
17340TIP3   OH273510   5.082   5.934   1.033  0.3202 -0.9470 -0.1752
17340TIP3    H173511   5.020   5.896   0.971  0.9716  1.2254 -2.2882
17340TIP3    H273512   5.153   5.968   0.978 -0.6137  4.0918  1.2859
17341TIP3   OH273513   4.865   1.513   1.912  0.4973 -0.3895 -0.3800
17341TIP3    H173514   4.787   1.534   1.962  1.0969 -0.3776  0.5801
17341TIP3    H273515   4.832   1.476   1.830 -0.5059 -0.6855  0.1435
17342TIP3   OH273516   6.180   4.094  14.325 -0.2791  0.7889  0.3477
17342TIP3    H173517   6.191   4.188  14.313 -0.0172  0.7857  0.5439
17342TIP3    H273518   6.249   4.055  14.271 -0.7971  0.6844 -0.2537
17343TIP3   OH273519   3.229   5.694  16.628 -0.5262 -0.1636  0.1198
17343TIP3    H173520   3.146   5.662  16.664 -0.7508 -0.2845 -0.4948
17343TIP3    H273521   3.294   5.672  16.695 -1.3143  2.1088  1.7501
17344TIP3   OH273522   3.782   1.097  11.799 -0.2842  0.1224  0.0948
17344TIP3    H173523   3.805   1.009  11.828 -0.8618 -0.3901 -0.9378
17344TIP3    H273524   3.688   1.092  11.778 -0.3056  0.9513 -0.0477
17345TIP3   OH273525   4.143   2.468   3.467  0.4039 -0.0125  0.5813
17345TIP3    H173526   4.205   2.538   3.444 -0.8183  0.2772 -2.2342
17345TIP3    H273527   4.192   2.387   3.453  0.8315  0.2466  0.5560
17346TIP3   OH273528   2.843   3.041   1.065 -0.3242 -0.3169  0.0953
17346TIP3    H173529   2.773   3.104   1.085 -0.2778 -0.0262 -0.6470
17346TIP3    H273530   2.828   3.016   0.974  1.8604  1.5149 -0.8809
17347TIP3   OH273531   2.568   3.114   5.193 -0.2359  0.1709 -0.5458
17347TIP3    H173532   2.485   3.150   5.161  0.4335  3.0687  0.6280
17347TIP3    H273533   2.635   3.157   5.139  0.5793 -0.9487 -0.4605
17348TIP3   OH273534   2.204   5.213   4.635 -0.0100 -0.3070 -0.4260
17348TIP3    H173535   2.288   5.240   4.599  0.9321 -0.9548  1.1800
17348TIP3    H273536   2.148   5.290   4.625  0.7228  0.0941 -1.6388
17349TIP3   OH273537   6.191   1.180   1.296 -0.1434 -0.3166 -0.3688
17349TIP3    H173538   6.189   1.160   1.203 -1.5332  2.7687 -1.1211
17349TIP3    H273539   6.165   1.098   1.338 -1.4826 -1.2713 -2.8205
17350TIP3   OH273540   4.887   0.313   4.979  0.0477 -0.5920  0.2508
17350TIP3    H173541   4.805   0.325   5.026 -0.2342  1.0485 -0.5887
17350TIP3    H273542   4.952   0.358   5.033 -0.0731  0.3042 -0.3380
17351TIP3   OH273543   2.744   0.383   4.643  0.1659 -0.3675 -0.4082
17351TIP3    H173544   2.721   0.454   4.583 -2.1506 -1.1185 -0.5079
17351TIP3    H273545   2.821   0.416   4.689 -0.7702  2.2215 -0.4798
17352TIP3   OH273546   2.409   5.152   2.658  0.2475 -1.2948  0.3352
17352TIP3    H173547   2.459   5.222   2.698  1.2142 -1.2510 -0.8754
17352TIP3    H273548   2.465   5.075   2.665  0.1877 -1.4171 -0.3711
17353TIP3   OH273549   4.718   0.715   2.032 -0.3927 -0.7044 -0.3752
17353TIP3    H173550   4.765   0.778   2.086 -1.0883  0.9690 -1.6338
17353TIP3    H273551   4.643   0.689   2.085 -2.0665  2.2718 -1.0802
17354TIP3   OH273552   3.750   5.240  11.235 -0.1319 -0.6107  0.1948
17354TIP3    H173553   3.700   5.190  11.171  0.2771 -3.1492  1.7085
17354TIP3    H273554   3.834   5.256  11.193  0.2257 -2.4687  0.1185
17355TIP3   OH273555   4.605   2.559  15.579  0.3112 -0.3161 -0.6191
17355TIP3    H173556   4.694   2.524  15.578  0.6551  0.5377 -0.3428
17355TIP3    H273557   4.574   2.543  15.668  0.4762  0.0813 -0.4866
17356TIP3   OH273558   1.840   5.439  12.077 -0.6782 -0.6608 -0.6887
17356TIP3    H173559   1.839   5.370  12.010  1.4721 -0.5476 -0.9202
17356TIP3    H273560   1.760   5.488  12.062 -0.9607 -1.5227 -2.2562
17357TIP3   OH273561   5.690   5.085   5.379  0.0780 -0.4976 -0.0197
17357TIP3    H173562   5.724   5.152   5.319  2.2004 -1.7543 -0.3332
17357TIP3    H273563   5.611   5.124   5.416  1.1878  2.1490 -0.2107
17358TIP3   OH273564   1.534   0.418  11.279  0.4443 -0.3281 -0.4998
17358TIP3    H173565   1.606   0.378  11.328  0.8276  1.3090  0.3723
17358TIP3    H273566   1.458   0.363  11.298  1.3527 -1.8446 -1.0999
17359TIP3   OH273567   5.263   2.478  17.076 -0.3074 -0.2819  0.0320
17359TIP3    H173568   5.333   2.528  17.034  1.5599 -1.1371  1.9254
17359TIP3    H273569   5.212   2.442  17.004  1.9120 -0.5882 -1.4812
17360TIP3   OH273570   6.526   6.362  15.585  0.9577  0.3038  0.1493
17360TIP3    H173571   6.533   6.308  15.664  0.4140  1.7472  1.2364
17360TIP3    H273572   6.471   6.311  15.525  0.3066 -0.2835  1.2149
17361TIP3   OH273573   3.845   4.291  13.467  0.1400  0.0887 -0.2342
17361TIP3    H173574   3.916   4.352  13.445 -0.0722  0.4920  0.1976
17361TIP3    H273575   3.796   4.335  13.536  0.5262 -0.9720  0.7516
17362TIP3   OH273576   2.303   5.746   5.684 -0.4102 -0.1454  0.1800
17362TIP3    H173577   2.313   5.830   5.639 -1.5299  0.4752  1.0312
17362TIP3    H273578   2.387   5.732   5.728  0.4354 -0.3964 -1.4467
17363TIP3   OH273579   4.982   5.185  13.153 -0.0336 -0.2691  0.1547
17363TIP3    H173580   4.935   5.139  13.223  1.6722  0.2058  1.6552
17363TIP3    H273581   4.968   5.278  13.171 -1.1257 -0.1122 -1.2623
17364TIP3   OH273582   2.490   4.461  11.327 -0.1364 -0.2159 -0.1711
17364TIP3    H173583   2.578   4.423  11.320 -0.4656 -0.9117 -0.6371
17364TIP3    H273584   2.485   4.523  11.254 -0.5863 -1.3429 -1.1244
17365TIP3   OH273585   4.670   4.594  13.236  0.6209  0.2639 -0.6800
17365TIP3    H173586   4.665   4.550  13.152  0.6899  1.1250 -1.1490
17365TIP3    H273587   4.630   4.680  13.221  1.2741  0.6993 -0.0265
17366TIP3   OH273588   5.272   4.825   5.159  0.3420  0.0471 -0.2351
17366TIP3    H173589   5.335   4.894   5.178 -1.8336  2.1842 -0.2724
17366TIP3    H273590   5.269   4.773   5.239  1.1002  0.7734  0.2826
17367TIP3   OH273591   1.661   3.629   0.671 -0.2321  0.5044 -0.1138
17367TIP3    H173592   1.754   3.620   0.648 -0.5090 -0.3483 -0.9555
17367TIP3    H273593   1.623   3.678   0.599 -0.3362  1.3538  0.5077
17368TIP3   OH273594   1.030   2.955  12.866 -0.1413  0.0619  0.1110
17368TIP3    H173595   1.039   2.895  12.940 -1.3293  0.7839  0.8787
17368TIP3    H273596   1.110   2.942  12.815  1.4196  0.5380  2.2612
17369TIP3   OH273597   0.908   5.994   0.882 -0.4567 -0.1881 -0.2104
17369TIP3    H173598   0.872   6.050   0.812 -0.8255 -1.0166 -0.7089
17369TIP3    H273599   0.839   5.929   0.897 -0.9322  0.6970  1.8347
17370TIP3   OH273600   0.890   1.407  16.378 -0.4591 -0.0987 -0.0685
17370TIP3    H173601   0.944   1.453  16.315 -2.5399  0.2568 -1.7216
17370TIP3    H273602   0.952   1.367  16.439  1.5867  0.7278 -1.5046
17371TIP3   OH273603   3.773   6.428   4.393 -0.1454 -0.3098  0.3652
17371TIP3    H173604   3.679   6.441   4.385 -0.3169 -2.5026 -3.9247
17371TIP3    H273605   3.800   6.392   4.309  4.4409 -0.6418  1.6913
17372TIP3   OH273606   3.375   2.420  15.366 -0.1651  1.1150 -0.2090
17372TIP3    H173607   3.357   2.500  15.415 -1.1768 -0.2502  1.7819
17372TIP3    H273608   3.366   2.349  15.430 -0.1455 -0.6811 -2.0615
17373TIP3   OH273609   2.322   0.053  11.944  0.3729  0.0817 -0.4760
17373TIP3    H173610   2.411   0.037  11.911  0.8383  0.3541  0.6201
17373TIP3    H273611   2.333   0.116  12.015 -1.0464  2.8069 -2.4692
17374TIP3   OH273612   0.527   3.874   1.711  0.6148  0.5206 -0.4548
17374TIP3    H173613   0.445   3.857   1.665  0.3032  1.9584 -0.4467
17374TIP3    H273614   0.538   3.969   1.709  1.3494  0.5096  1.1410
17375TIP3   OH273615   5.280   1.027  12.194 -0.1801  0.6713  0.4804
17375TIP3    H173616   5.221   1.102  12.202  0.5228  1.2311  0.4966
17375TIP3    H273617   5.350   1.045  12.256 -0.4226 -0.4172  1.1002
17376TIP3   OH273618   3.998   1.720   5.680 -0.1051 -0.0890  0.0929
17376TIP3    H173619   3.996   1.629   5.711 -0.6511  0.2578  1.1310
17376TIP3    H273620   4.084   1.731   5.641 -0.1294 -1.1314 -0.2772
17377TIP3   OH273621   4.036   1.299  13.997  0.5252  0.9395  0.1631
17377TIP3    H173622   4.088   1.353  14.055  1.1278  0.8175 -0.2521
17377TIP3    H273623   4.023   1.353  13.919  2.6584 -0.1109 -1.0071
17378TIP3   OH273624   3.117   0.704   2.328 -0.2923 -0.6708  0.3996
17378TIP3    H173625   3.026   0.719   2.302 -0.9080 -2.0896  1.5997
17378TIP3    H273626   3.167   0.706   2.246 -1.5845 -1.1225 -0.4151
17379TIP3   OH273627   3.274   3.025  13.809 -0.0088  0.1685  0.1659
17379TIP3    H173628   3.292   3.034  13.716  0.5264  0.0995  0.2610
17379TIP3    H273629   3.196   3.078  13.824 -0.9933 -1.0146 -0.6018
17380TIP3   OH273630   1.724   4.357   4.536 -0.0162 -0.0342  0.2650
17380TIP3    H173631   1.734   4.265   4.514  0.3084 -0.7230  3.0247
17380TIP3    H273632   1.632   4.377   4.516 -0.4524 -1.3378  0.8810
17381TIP3   OH273633   4.618   5.128  12.497  0.1944 -0.1446  0.5756
17381TIP3    H173634   4.599   5.036  12.516 -0.1618 -0.2444 -0.2277
17381TIP3    H273635   4.657   5.127  12.410 -0.0947  0.5016  0.4361
17382TIP3   OH273636   3.505   0.286  14.349  0.4437  0.3346  0.1331
17382TIP3    H173637   3.546   0.366  14.382  0.4228 -0.8920  3.4555
17382TIP3    H273638   3.578   0.230  14.323  0.7179 -0.0774  1.6966
17383TIP3   OH273639   2.339   5.449   1.156  0.4395 -0.3697 -1.1426
17383TIP3    H173640   2.387   5.531   1.168 -0.8315  0.8629 -3.7249
17383TIP3    H273641   2.388   5.404   1.086  0.3837 -1.2179 -0.6414
17384TIP3   OH273642   5.672   1.928  14.529  0.3494 -0.0136 -0.3637
17384TIP3    H173643   5.761   1.962  14.534 -0.1803  1.7037 -1.4467
17384TIP3    H273644   5.659   1.881  14.611  1.7624  0.9430  0.4582
17385TIP3   OH273645   5.869   4.811  16.140 -0.1798  0.1178  0.9970
17385TIP3    H173646   5.897   4.884  16.195 -0.0592  0.6077  0.2990
17385TIP3    H273647   5.782   4.788  16.173  0.7798 -1.0835  2.8477
17386TIP3   OH273648   2.404   6.235   4.700  0.3319 -0.1006  0.1219
17386TIP3    H173649   2.472   6.168   4.703 -1.6240 -2.4358 -2.5086
17386TIP3    H273650   2.434   6.296   4.633  1.0980  0.4695  0.9651
17387TIP3   OH273651   0.824   0.312   1.821  0.3849 -0.2786 -0.2843
17387TIP3    H173652   0.793   0.331   1.910 -2.5288  2.4370 -1.7207
17387TIP3    H273653   0.748   0.277   1.776  1.3661 -0.0996 -2.1657
17388TIP3   OH273654   1.635   2.322  15.349  0.0605  0.8182 -0.2031
17388TIP3    H173655   1.689   2.319  15.428 -0.3400 -1.1677  0.0434
17388TIP3    H273656   1.695   2.298  15.278 -0.2719 -0.6309 -0.0295
17389TIP3   OH273657   1.088   6.070   4.945 -0.6500  0.8879  0.7232
17389TIP3    H173658   1.024   6.016   4.899  0.0528  0.8044 -0.1780
17389TIP3    H273659   1.135   6.009   5.001 -1.4245  0.9705  1.4897
17390TIP3   OH273660   2.118   6.804   1.943 -0.5670 -0.1384  0.1462
17390TIP3    H173661   2.059   6.731   1.962 -0.0675 -0.7013 -0.3983
17390TIP3    H273662   2.183   6.800   2.013  0.1232 -0.9579 -0.5127
17391TIP3   OH273663   5.474   3.258  16.484 -0.1316  0.0164 -0.4483
17391TIP3    H173664   5.556   3.305  16.502 -1.4302  2.0972  0.4280
17391TIP3    H273665   5.453   3.213  16.566 -0.4465  0.4581 -0.2814
17392TIP3   OH273666   6.648   6.553  15.209  0.8028  0.2638  0.2671
17392TIP3    H173667   6.697   6.492  15.264 -0.4506 -0.3084  0.7825
17392TIP3    H273668   6.556   6.536  15.230  0.2718  0.0694 -1.9599
17393TIP3   OH273669   0.501   5.147  11.816 -0.3114  0.3196 -0.8212
17393TIP3    H173670   0.549   5.074  11.856 -1.9966 -0.8348 -0.8035
17393TIP3    H273671   0.421   5.154  11.869  0.1039  2.6326 -0.4227
17394TIP3   OH273672   5.004   0.552  15.420 -0.2845  0.5264  0.3777
17394TIP3    H173673   4.953   0.614  15.473  0.1353 -1.2183  3.0255
17394TIP3    H273674   5.092   0.590  15.417 -0.4184  0.8557  0.5914
17395TIP3   OH273675   0.108   4.643  13.815  0.0117 -0.5602 -0.4369
17395TIP3    H173676   0.161   4.563  13.817  1.5244  0.2684 -3.0629
17395TIP3    H273677   0.037   4.622  13.754  0.8077  0.2425 -1.6933
17396TIP3   OH273678   3.988   5.356  15.313 -0.0070 -0.0878 -0.1763
17396TIP3    H173679   3.909   5.410  15.316  0.3470  0.5772 -1.7769
17396TIP3    H273680   3.971   5.285  15.375 -1.7818  0.1469 -0.3365
17397TIP3   OH273681   6.376   5.420   3.212 -0.1554  0.2694 -0.0940
17397TIP3    H173682   6.333   5.359   3.273  1.7621 -0.8977  0.1874
17397TIP3    H273683   6.354   5.507   3.245  2.2875 -0.2482  3.5888
17398TIP3   OH273684   3.313   4.059  15.662 -0.3925  0.6043  0.7782
17398TIP3    H173685   3.297   3.974  15.702 -0.3823  0.7018  0.9893
17398TIP3    H273686   3.262   4.057  15.581  1.9345 -0.7475 -0.7541
17399TIP3   OH273687   5.038   0.887  16.851 -0.0933  0.2400 -0.3481
17399TIP3    H173688   4.962   0.927  16.810 -3.0004 -0.9535  3.3177
17399TIP3    H273689   5.014   0.795  16.863  1.9492 -0.2118  0.9057
17400TIP3   OH273690   3.634   2.185  13.877 -0.3034  0.1748 -0.0206
17400TIP3    H173691   3.620   2.251  13.944  1.0705 -1.2362  1.7907
17400TIP3    H273692   3.729   2.171  13.877 -0.4882 -1.3070 -0.8206
17401TIP3   OH273693   4.625   6.750  16.314  0.3353 -0.1444 -0.4621
17401TIP3    H173694   4.697   6.784  16.260  0.6268  1.0994  0.6536
17401TIP3    H273695   4.655   6.665  16.344 -0.1891 -1.2960 -2.9131
17402TIP3   OH273696   0.556   5.976   0.404 -0.0172  0.1766 -0.3753
17402TIP3    H173697   0.569   6.039   0.475 -0.4217  0.4657 -0.5560
17402TIP3    H273698   0.473   6.002   0.364 -0.1607 -0.4362 -0.4839
17403TIP3   OH273699   2.593   2.603  15.002  0.3042 -0.1626  0.1360
17403TIP3    H173700   2.499   2.585  15.002  0.5099 -1.4003  1.4540
17403TIP3    H273701   2.604   2.679  15.059  0.0258  0.5939 -0.7945
17404TIP3   OH273702   6.380   5.932  15.457  0.1062 -0.0095 -0.3224
17404TIP3    H173703   6.348   5.890  15.537 -0.4896  0.5709 -0.2447
17404TIP3    H273704   6.302   5.943  15.403  0.3779  0.2935 -0.6582
17405TIP3   OH273705   6.444   1.764  14.241 -0.3410 -0.1602 -0.0389
17405TIP3    H173706   6.538   1.748  14.245 -0.4332 -0.4989  2.2275
17405TIP3    H273707   6.430   1.808  14.156  1.9004  0.3245 -0.2169
17406TIP3   OH273708   6.818   1.673  15.511  0.4214  0.5755  0.1079
17406TIP3    H173709   6.731   1.645  15.540 -0.3576  2.6092 -0.1534
17406TIP3    H273710   6.878   1.631  15.573 -0.5857 -1.8834 -0.4458
17407TIP3   OH273711   0.317   6.366   4.474  0.6406  0.1545 -0.4767
17407TIP3    H173712   0.274   6.280   4.471  0.5329  0.1329  1.1758
17407TIP3    H273713   0.286   6.410   4.395 -0.7612 -0.6432 -0.4048
17408TIP3   OH273714   1.861   3.676  12.607 -0.2042 -0.5410 -0.4322
17408TIP3    H173715   1.823   3.660  12.521 -0.3872 -0.9927 -0.2710
17408TIP3    H273716   1.936   3.616  12.612  0.4938  0.2804 -0.7147
17409TIP3   OH273717   2.136   1.506  15.741 -0.3368 -0.0483 -1.1432
17409TIP3    H173718   2.129   1.411  15.744 -1.0540  0.0092 -0.8517
17409TIP3    H273719   2.229   1.524  15.759  0.0852 -0.7384 -2.5151
17410TIP3   OH273720   2.766   2.521  17.126 -0.4433 -0.6496 -0.0056
17410TIP3    H173721   2.777   2.594  17.065  1.3378  0.7923  1.8913
17410TIP3    H273722   2.678   2.532  17.161 -0.0828  0.8618  0.5113
17411TIP3   OH273723   6.794   2.633  15.386  0.1898 -0.1936  0.0293
17411TIP3    H173724   6.816   2.540  15.386  0.4567 -0.1481  0.9924
17411TIP3    H273725   6.698   2.635  15.383  0.1791 -0.5101  0.1570
17412TIP3   OH273726   6.796   4.390   0.317  0.7379 -0.5959 -0.0854
17412TIP3    H173727   6.708   4.418   0.343 -0.5367 -2.6873 -1.8878
17412TIP3    H273728   6.804   4.418   0.226  2.6897  1.0784  0.5120
17413TIP3   OH273729   1.457   1.865   2.312  0.3124  0.3405 -0.1631
17413TIP3    H173730   1.504   1.784   2.330  1.1702  0.9613  0.5392
17413TIP3    H273731   1.511   1.910   2.246  1.5933  1.7338  1.7187
17414TIP3   OH273732   2.419   3.332  14.519 -0.1594 -0.0091 -0.7170
17414TIP3    H173733   2.477   3.260  14.496 -0.9025 -0.8081 -0.1318
17414TIP3    H273734   2.410   3.383  14.438  1.3952  0.1747 -0.8012
17415TIP3   OH273735   2.104   1.764   6.340  0.1857 -0.0066  0.4489
17415TIP3    H173736   2.188   1.741   6.379  1.3095  1.9382 -0.6424
17415TIP3    H273737   2.121   1.764   6.246 -1.2050 -0.1290  0.1756
17416TIP3   OH273738   0.657   4.946  14.193  0.1986  0.1707 -0.2573
17416TIP3    H173739   0.591   4.877  14.189  2.5698 -2.3185  0.5406
17416TIP3    H273740   0.669   4.973  14.102 -1.0810 -0.1097 -0.5378
17417TIP3   OH273741   0.104   2.828  14.364  0.1562 -0.3204 -0.2051
17417TIP3    H173742   0.116   2.737  14.391  0.7935 -0.6960 -1.6644
17417TIP3    H273743   0.191   2.867  14.371 -0.2737  0.4436  1.2507
17418TIP3   OH273744   4.911   5.789  12.484  0.1035 -0.2818  0.4756
17418TIP3    H173745   4.868   5.748  12.409 -0.3278  0.4964  0.2892
17418TIP3    H273746   4.875   5.878  12.487  1.4052  0.2649  0.5495
17419TIP3   OH273747   5.448   4.783   3.340  0.2643  0.1908  0.1435
17419TIP3    H173748   5.532   4.827   3.332  0.8427 -1.0137 -0.7866
17419TIP3    H273749   5.467   4.692   3.318 -1.0564 -0.3492  1.0984
17420TIP3   OH273750   1.813   3.806  17.006  0.2769 -0.2471  0.1414
17420TIP3    H173751   1.793   3.821  17.098  0.7237 -1.0338  0.3740
17420TIP3    H273752   1.735   3.835  16.959 -0.2668 -0.5934  0.8238
17421TIP3   OH273753   5.027   3.506  15.705 -0.4092  0.1695  0.0452
17421TIP3    H173754   5.009   3.412  15.710 -0.3319  0.1519  0.0073
17421TIP3    H273755   5.101   3.519  15.765  1.2325 -0.2357 -1.7678
17422TIP3   OH273756   1.982   3.496   1.978 -0.2709 -0.4595  0.1423
17422TIP3    H173757   1.891   3.501   1.949  0.0836  1.0210 -0.8403
17422TIP3    H273758   2.007   3.587   1.992  1.4990 -0.7066 -1.0747
17423TIP3   OH273759   4.100   3.563   1.687  0.2505  0.4864  0.0823
17423TIP3    H173760   4.058   3.649   1.689 -2.3745 -0.5800 -2.5367
17423TIP3    H273761   4.034   3.503   1.723  0.4696 -0.9163 -1.7043
17424TIP3   OH273762   0.769   2.652   6.795  0.2835 -0.1096 -0.3818
17424TIP3    H173763   0.809   2.732   6.759  1.6128 -0.1254  0.9744
17424TIP3    H273764   0.772   2.589   6.722  1.4880  0.3274 -0.7282
17425TIP3   OH273765   1.674   0.980  12.610  0.0740  0.1468 -0.4089
17425TIP3    H173766   1.725   1.048  12.654  0.2460  0.3137 -0.8591
17425TIP3    H273767   1.725   0.900  12.622 -0.2302  0.0498  0.3000
17426TIP3   OH273768   3.251   2.003   5.138  0.0447  0.9277 -0.5209
17426TIP3    H173769   3.285   2.087   5.105  0.3365  1.4328  1.0040
17426TIP3    H273770   3.308   1.937   5.098  1.3072  1.6147  0.0701
17427TIP3   OH273771   4.234   5.923   5.817 -0.2135  0.3703  0.6737
17427TIP3    H173772   4.266   5.848   5.868  0.4766  0.3597  0.2378
17427TIP3    H273773   4.283   5.998   5.851  1.0546  0.2020 -0.6594
17428TIP3   OH273774   3.050   3.694  11.365 -0.3368  0.3010 -0.2464
17428TIP3    H173775   3.129   3.747  11.369  0.7748 -1.2350 -0.8939
17428TIP3    H273776   2.995   3.739  11.300 -0.3420  1.7818  0.7475
17429TIP3   OH273777   2.426   0.363   3.517  0.3333 -0.1835 -0.5377
17429TIP3    H173778   2.384   0.345   3.601  0.4181  1.4859 -0.0902
17429TIP3    H273779   2.355   0.363   3.454 -0.1369  0.9969 -0.0455
17430TIP3   OH273780   6.826   4.101  13.099  0.3665  0.0363 -0.4031
17430TIP3    H173781   6.812   4.195  13.112  0.5688  0.2330 -1.4818
17430TIP3    H273782   6.740   4.062  13.115  0.8372  0.0292  2.7961
17431TIP3   OH273783   5.154   1.031  10.896  0.2147 -0.1343  0.5766
17431TIP3    H173784   5.179   1.123  10.891  0.2412 -0.0330  2.1477
17431TIP3    H273785   5.237   0.983  10.885  0.6975  0.1328  2.5609
17432TIP3   OH273786   0.037   2.820   0.347  0.7005  0.7121  0.1789
17432TIP3    H173787  -0.040   2.826   0.403  0.7458  1.5739  0.1555
17432TIP3    H273788   0.019   2.880   0.274  0.5863 -0.4731 -0.8059
17433TIP3   OH273789   3.414   0.061   6.177  0.3259  0.0078  0.0398
17433TIP3    H173790   3.472  -0.007   6.212 -1.5192 -1.8535 -0.3161
17433TIP3    H273791   3.399   0.120   6.251  0.2553 -1.2207  1.0561
17434TIP3   OH273792   0.498   2.982   1.213  0.1491  0.2790  0.4117
17434TIP3    H173793   0.452   2.901   1.233  0.9712 -0.0902  0.8580
17434TIP3    H273794   0.559   2.994   1.286 -1.6237  2.5945  1.6720
17435TIP3   OH273795   0.987   3.950  10.950  0.1361 -0.3209  0.1642
17435TIP3    H173796   0.990   3.959  10.855  0.7200 -1.2082  0.0868
17435TIP3    H273797   1.022   3.862  10.967 -2.5164 -1.3286  1.0207
17436TIP3   OH273798   1.708   6.845  13.199 -0.4052  0.2446  0.3082
17436TIP3    H173799   1.723   6.828  13.291  0.0225  0.6799  0.3272
17436TIP3    H273800   1.747   6.770  13.154 -1.7658 -0.6146  0.5248
17437TIP3   OH273801   3.697   2.878   0.129  0.2554 -0.2559 -0.1448
17437TIP3    H173802   3.666   2.908   0.044 -1.1145 -0.2139  0.3406
17437TIP3    H273803   3.633   2.911   0.192  1.5076  0.1570  0.9874
17438TIP3   OH273804   3.288   3.370  15.060 -0.2050  0.6342 -0.4308
17438TIP3    H173805   3.209   3.348  15.011 -0.8002  0.9567  0.3556
17438TIP3    H273806   3.330   3.286  15.078 -1.5115  0.2404  0.9939
17439TIP3   OH273807   3.752   2.369  13.408 -0.3881 -0.3361 -0.1172
17439TIP3    H173808   3.827   2.362  13.467 -0.3349 -0.9903 -0.2586
17439TIP3    H273809   3.747   2.284  13.365 -0.2457  0.2143 -1.2639
17440TIP3   OH273810   6.376   6.344   3.832 -0.4794 -0.1982 -0.0620
17440TIP3    H173811   6.296   6.392   3.813 -0.6984  0.5863  2.4631
17440TIP3    H273812   6.350   6.278   3.896  0.7452 -0.4120  0.2442
17441TIP3   OH273813   6.082   4.197   0.899  0.3910  0.4367 -0.2441
17441TIP3    H173814   5.997   4.239   0.912 -1.3775 -2.5657 -0.9926
17441TIP3    H273815   6.081   4.169   0.807  0.9048 -2.0969  0.4379
17442TIP3   OH273816   6.764   0.727   1.716  0.0296 -0.0419 -0.2274
17442TIP3    H173817   6.705   0.657   1.687 -0.5711  0.6344 -0.6909
17442TIP3    H273818   6.847   0.708   1.673  0.2786 -1.1941  0.6950
17443TIP3   OH273819   3.317   1.966  16.264 -0.0504 -0.2305  0.0163
17443TIP3    H173820   3.271   1.886  16.240 -0.6514  0.0067  0.3364
17443TIP3    H273821   3.338   1.954  16.357 -0.3838  0.0902  0.1353
17444TIP3   OH273822   2.523   3.381   0.387  0.1490 -0.0651  0.0545
17444TIP3    H173823   2.461   3.425   0.446 -1.5433 -1.2967 -0.7228
17444TIP3    H273824   2.564   3.314   0.442  1.3972  1.1953  0.7563
17445TIP3   OH273825   1.605   6.114   5.437  0.2891  0.0512  0.2964
17445TIP3    H173826   1.519   6.143   5.408 -0.1387 -1.4324  0.0220
17445TIP3    H273827   1.611   6.023   5.410 -0.2249 -1.6153  4.9136
17446TIP3   OH273828   4.917   2.020   4.295  0.5851 -0.1667  0.0650
17446TIP3    H173829   4.958   2.039   4.379 -0.9013 -0.4114  0.8731
17446TIP3    H273830   4.834   2.068   4.297 -0.1939 -1.4192 -0.6010
17447TIP3   OH273831   0.440   4.839  14.053  0.2179 -0.3174  0.1664
17447TIP3    H173832   0.421   4.752  14.088  1.7169 -0.6905  0.1399
17447TIP3    H273833   0.470   4.823  13.964  0.8513  0.1756  0.2818
17448TIP3   OH273834   0.819   2.636   5.540  0.4541 -0.4729 -0.1817
17448TIP3    H173835   0.848   2.627   5.630  2.0465 -0.9227 -0.7069
17448TIP3    H273836   0.727   2.662   5.546  0.3471 -1.1923  1.5413
17449TIP3   OH273837   3.008   1.111  11.689  0.7038 -0.7833  0.1873
17449TIP3    H173838   2.960   1.042  11.644  0.9131 -1.1801  0.5677
17449TIP3    H273839   3.078   1.135  11.628  0.6314 -0.9033  0.0555
17450TIP3   OH273840   2.028   4.358   0.493 -0.0455  0.4411 -0.1625
17450TIP3    H173841   1.992   4.395   0.412  1.2723  3.5141  0.5025
17450TIP3    H273842   1.968   4.388   0.562  0.7165  0.8468  0.3430
17451TIP3   OH273843   2.990   0.410   1.533  0.0323 -0.2212  0.2549
17451TIP3    H173844   2.986   0.440   1.442  0.1681  1.1355  0.6725
17451TIP3    H273845   2.952   0.322   1.531  0.8952 -0.5836 -1.2553
17452TIP3   OH273846   0.270   5.506   4.046 -0.2662  0.1144  0.2272
17452TIP3    H173847   0.260   5.590   4.003 -0.0214 -0.3402 -0.7497
17452TIP3    H273848   0.289   5.527   4.138 -1.6356  1.0849  0.3088
17453TIP3   OH273849   6.344   4.688   5.567 -0.2970  0.0673 -0.5122
17453TIP3    H173850   6.339   4.593   5.561  0.1350 -0.0715  0.8992
17453TIP3    H273851   6.390   4.705   5.649  0.7427  1.4910 -1.3397
17454TIP3   OH273852   5.898   4.120  12.449 -0.1674 -0.0511  0.5135
17454TIP3    H173853   5.966   4.175  12.409 -2.1484  2.0205 -0.2428
17454TIP3    H273854   5.832   4.111  12.380 -1.2028 -1.0006  1.6015
17455TIP3   OH273855   2.095   5.018   3.279  0.2447  0.3217 -0.3701
17455TIP3    H173856   2.027   5.083   3.260  0.0159  0.6385  1.3244
17455TIP3    H273857   2.048   4.949   3.327  0.8499 -0.1444 -0.4455
17456TIP3   OH273858   6.788   4.368  12.787 -0.4898  0.9362 -0.0639
17456TIP3    H173859   6.723   4.334  12.725  0.7179  0.7892 -1.3183
17456TIP3    H273860   6.774   4.318  12.867 -1.1466  0.0944 -0.6829
17457TIP3   OH273861   4.331   4.137  15.036 -0.2738  0.0818 -0.1607
17457TIP3    H173862   4.248   4.158  15.078 -0.1848  0.7292 -0.3048
17457TIP3    H273863   4.397   4.173  15.095 -0.1373  0.7048 -0.6946
17458TIP3   OH273864   4.478   0.051  16.866 -0.1134  0.0481 -0.2532
17458TIP3    H173865   4.545   0.106  16.907 -1.9075  3.1093 -1.0717
17458TIP3    H273866   4.527  -0.021  16.826  2.3378  0.6208  1.4869
17459TIP3   OH273867   3.747   1.345   0.765  0.4098  0.0611 -0.5921
17459TIP3    H173868   3.781   1.363   0.677  1.5576 -0.0121 -0.1727
17459TIP3    H273869   3.657   1.316   0.750  0.8288 -0.6930 -1.8130
17460TIP3   OH273870   6.606   1.676   1.525 -0.3932  0.3387 -0.4100
17460TIP3    H173871   6.519   1.699   1.492  0.0985 -0.0531 -2.0680
17460TIP3    H273872   6.667   1.724   1.469  0.4982 -0.5377 -0.2270
17461TIP3   OH273873   6.351   5.310   0.846  0.8612  0.0699 -0.2822
17461TIP3    H173874   6.416   5.281   0.910  0.8572 -0.1833 -0.3955
17461TIP3    H273875   6.306   5.231   0.819 -0.3403  0.3820  0.7071
17462TIP3   OH273876   4.977   1.943  11.931  0.1070 -0.1173 -0.0066
17462TIP3    H173877   5.018   1.950  12.018  0.4135 -1.2727 -0.0436
17462TIP3    H273878   4.959   2.034  11.906  0.4886  0.2657  1.0400
17463TIP3   OH273879   1.376   6.217   5.342 -0.3619 -0.0592  0.0422
17463TIP3    H173880   1.295   6.211   5.290  0.2154  0.6417 -0.9922
17463TIP3    H273881   1.437   6.265   5.285  0.1306  1.2720  1.6010
17464TIP3   OH273882   3.640   6.138   0.041 -0.3768 -0.0528  0.1139
17464TIP3    H173883   3.597   6.076   0.100 -1.1528  0.6378  0.2792
17464TIP3    H273884   3.600   6.121  -0.045  1.5364 -1.8378 -0.5193
17465TIP3   OH273885   4.117   6.381  12.087 -0.4667  0.3298  0.3231
17465TIP3    H173886   4.087   6.291  12.104  0.8888 -0.3217 -0.5857
17465TIP3    H273887   4.194   6.391  12.142  1.1090 -0.1238 -1.6835
17466TIP3   OH273888   2.316   1.551  12.016  0.0737  0.8671  0.4832
17466TIP3    H173889   2.381   1.618  12.038  0.5978  0.1496  1.1572
17466TIP3    H273890   2.238   1.601  11.990  0.9694  1.7365 -0.6239
17467TIP3   OH273891   0.232   2.062   3.002 -0.4790 -0.2909 -0.1470
17467TIP3    H173892   0.249   1.996   3.069 -3.0668 -1.5259 -0.5877
17467TIP3    H273893   0.156   2.110   3.035 -0.5900  0.3622 -1.3102
17468TIP3   OH273894   5.082   0.399  14.211 -0.1794 -0.3130 -0.0508
17468TIP3    H173895   5.005   0.391  14.267  1.2724 -1.2367  1.9474
17468TIP3    H273896   5.135   0.467  14.252  0.5894 -0.4852 -0.7369
17469TIP3   OH273897   2.732   1.235  13.993 -0.4206  0.1187  0.5693
17469TIP3    H173898   2.754   1.245  14.085  1.4208  0.3475  0.1443
17469TIP3    H273899   2.772   1.152  13.967 -0.4796  0.3012 -0.1398
17470TIP3   OH273900   5.885   3.465   2.527 -0.8531 -0.4654  0.0188
17470TIP3    H173901   5.789   3.467   2.524 -0.8184  0.9371 -1.4528
17470TIP3    H273902   5.911   3.469   2.435  0.6240  2.7135  0.4517
17471TIP3   OH273903   1.580   6.227   3.530 -0.6564 -0.1862  0.2195
17471TIP3    H173904   1.552   6.170   3.458 -0.3941 -2.4168  1.7493
17471TIP3    H273905   1.527   6.197   3.605 -1.6427  2.7033  0.8066
17472TIP3   OH273906   0.213   3.595  13.364  0.1308  0.4079  0.0089
17472TIP3    H173907   0.251   3.643  13.290 -0.1096  0.3524 -0.1504
17472TIP3    H273908   0.134   3.554  13.328  0.0646  0.3048  0.2728
17473TIP3   OH273909   5.153   4.729  16.669  0.2075 -0.1529  0.1357
17473TIP3    H173910   5.058   4.739  16.660  0.0385 -1.6657  0.1200
17473TIP3    H273911   5.170   4.746  16.762 -0.4162 -2.2335  0.6600
17474TIP3   OH273912   5.749   5.049  13.588  0.1168 -0.1137  1.1873
17474TIP3    H173913   5.716   4.978  13.533 -1.7655  0.7038  1.1946
17474TIP3    H273914   5.843   5.030  13.598 -0.0967 -1.9070  0.1958
17475TIP3   OH273915   3.958   3.764  17.029  0.3252 -0.2929  0.0363
17475TIP3    H173916   3.907   3.779  16.949 -0.3766  1.0453  0.6993
17475TIP3    H273917   3.988   3.851  17.055  0.9777 -0.7714  0.9575
17476TIP3   OH273918   3.297   3.878  13.967 -0.2510 -0.2904 -0.1143
17476TIP3    H173919   3.215   3.841  13.998 -0.2514 -1.5224 -1.4886
17476TIP3    H273920   3.271   3.955  13.917 -0.9097 -2.1180 -2.8239
17477TIP3   OH273921   3.911   3.413  15.418  0.3271  0.6414 -0.1607
17477TIP3    H173922   3.928   3.343  15.355  1.4645  1.5980 -0.9622
17477TIP3    H273923   3.871   3.369  15.493 -2.2616 -0.3718 -2.0022
17478TIP3   OH273924   5.343   5.506   3.157  0.3898 -0.1863 -0.1726
17478TIP3    H173925   5.279   5.555   3.210 -1.1363 -1.3315 -0.8755
17478TIP3    H273926   5.400   5.573   3.120  0.6601  0.7495  1.8123
17479TIP3   OH273927   1.270   6.467   4.258  0.4848  0.2690 -0.3751
17479TIP3    H173928   1.366   6.473   4.261  0.5298 -0.5650  1.3940
17479TIP3    H273929   1.253   6.394   4.198  1.1068 -1.2045  1.1511
17480TIP3   OH273930   0.292   5.240   2.319 -0.5939 -0.4472 -0.5551
17480TIP3    H173931   0.339   5.248   2.235 -0.5305 -1.5395 -0.6368
17480TIP3    H273932   0.207   5.279   2.302 -0.3814 -0.1467 -0.9602
17481TIP3   OH273933   4.525   0.472  14.229 -0.7739 -0.1626 -0.5096
17481TIP3    H173934   4.543   0.412  14.157 -1.1935 -1.0996  0.1503
17481TIP3    H273935   4.495   0.416  14.301 -0.2009  0.7334  0.4588
17482TIP3   OH273936   2.130   3.867  16.167  0.8407 -0.0661  0.4086
17482TIP3    H173937   2.141   3.878  16.262 -0.3170  0.6794  0.4858
17482TIP3    H273938   2.214   3.892  16.129  0.4984  2.3058  1.0747
17483TIP3   OH273939   1.384   2.334   3.018  0.5490  0.0268 -0.1440
17483TIP3    H173940   1.387   2.414   2.965  1.9787 -0.7523 -1.3182
17483TIP3    H273941   1.324   2.276   2.970  0.8045 -0.1931 -0.2020
17484TIP3   OH273942   2.496   3.508   1.389 -0.1577 -0.9687 -0.1426
17484TIP3    H173943   2.483   3.423   1.347  1.6263 -0.8885 -0.9730
17484TIP3    H273944   2.416   3.556   1.371 -0.4456 -1.8315 -1.3107
17485TIP3   OH273945   6.288   0.713  14.699 -0.4962  0.1996 -0.0550
17485TIP3    H173946   6.261   0.756  14.780 -1.6371 -0.8461  0.1409
17485TIP3    H273947   6.223   0.740  14.634  0.3939  1.0134 -0.6453
17486TIP3   OH273948   0.262   5.662   2.503  0.5306 -0.1591  0.2511
17486TIP3    H173949   0.354   5.642   2.486  0.4170 -0.6889  0.2590
17486TIP3    H273950   0.227   5.584   2.546 -0.1262 -0.2861 -0.4814
17487TIP3   OH273951   5.633   0.030   2.683  0.2577  0.3666 -0.7229
17487TIP3    H173952   5.637   0.126   2.684 -1.3266  0.4865 -1.9115
17487TIP3    H273953   5.614   0.006   2.774  2.4163  1.0206 -0.0399
17488TIP3   OH273954   5.594   0.574   1.615 -0.4467 -0.0521  0.0710
17488TIP3    H173955   5.687   0.555   1.622 -0.4249  0.5202  1.5139
17488TIP3    H273956   5.573   0.557   1.523  0.7757 -1.5190  0.0265
17489TIP3   OH273957   4.300   3.519   0.659 -0.0134  0.0914  0.2637
17489TIP3    H173958   4.231   3.563   0.609  0.6649 -0.2081 -0.9804
17489TIP3    H273959   4.256   3.486   0.737 -1.1116  0.5656 -0.1384
17490TIP3   OH273960   5.466   4.980   2.688 -0.0227  0.3867  0.3197
17490TIP3    H173961   5.544   4.949   2.735  0.5268  0.3860 -0.5579
17490TIP3    H273962   5.484   5.073   2.671  0.7927 -0.0952 -1.7579
17491TIP3   OH273963   0.536   6.029  11.902  0.1539  0.6546 -0.0668
17491TIP3    H173964   0.510   6.105  11.954  0.8842  1.6642 -1.1034
17491TIP3    H273965   0.456   5.978  11.891  0.1634 -0.1781  2.8601
17492TIP3   OH273966   0.735   6.117  12.199 -0.3956 -0.2927  0.3379
17492TIP3    H173967   0.650   6.104  12.158 -0.5806  0.9085  0.2930
17492TIP3    H273968   0.730   6.205  12.238  1.1989  0.2873 -0.6531
17493TIP3   OH273969   2.398   2.112   0.971  0.5210  0.0514  0.4309
17493TIP3    H173970   2.322   2.143   0.921  1.1702  0.3835 -0.3812
17493TIP3    H273971   2.371   2.026   1.003 -0.2783  0.2513  0.3419
17494TIP3   OH273972   0.585   0.163   5.613 -0.0839 -0.0533 -0.2313
17494TIP3    H173973   0.542   0.167   5.698  0.4654  1.7260  0.0026
17494TIP3    H273974   0.576   0.251   5.577 -0.3708 -0.7886 -2.0737
17495TIP3   OH273975   4.083   0.494   1.889 -0.0841  0.0307  0.0715
17495TIP3    H173976   4.059   0.494   1.796 -1.2968  0.7912  0.3541
17495TIP3    H273977   4.092   0.401   1.912 -2.8616 -0.3692 -0.1045
17496TIP3   OH273978   1.732   1.330  11.148 -0.1113 -0.3467 -0.3551
17496TIP3    H173979   1.774   1.375  11.221 -0.0841 -0.5861 -0.2219
17496TIP3    H273980   1.721   1.240  11.179 -1.5164 -0.1044 -0.0321
17497TIP3   OH273981   0.715   0.008  14.504 -0.2942  0.0476  0.1373
17497TIP3    H173982   0.747   0.082  14.555 -1.1265  0.1472  0.5346
17497TIP3    H273983   0.705   0.042  14.415 -2.1459  0.8960  0.6095
17498TIP3   OH273984   3.451   2.762   4.238 -0.0786  0.2032  0.2009
17498TIP3    H173985   3.367   2.718   4.227  0.5668 -1.0452  0.0808
17498TIP3    H273986   3.442   2.809   4.321 -0.2344 -1.5734  1.2632
17499TIP3   OH273987   2.007   0.709  15.123 -0.4105 -0.6018  0.0229
17499TIP3    H173988   2.075   0.663  15.173 -0.9923  0.1108  1.5138
17499TIP3    H273989   2.046   0.794  15.102  0.0328 -1.0908 -1.2623
17500TIP3   OH273990   2.327   4.846  11.276 -0.0746  0.2813 -0.1664
17500TIP3    H173991   2.263   4.781  11.304 -0.2862  0.8621  0.7210
17500TIP3    H273992   2.412   4.804  11.289 -0.2558 -0.9180 -2.3979
17501TIP3   OH273993   4.986   5.276   3.084 -0.1569  0.0640  0.0361
17501TIP3    H173994   4.984   5.372   3.093 -1.2629  0.0228  0.3986
17501TIP3    H273995   5.073   5.257   3.050 -0.2566  1.2865 -0.9963
17502TIP3   OH273996   0.762   3.716  17.056  0.0606 -0.6712  0.4636
17502TIP3    H173997   0.672   3.711  17.087 -1.0695 -2.3118 -2.6008
17502TIP3    H273998   0.764   3.797  17.003  0.0772 -1.0883 -0.1909
17503TIP3   OH273999   2.543   4.456  12.649  0.6980 -0.0280 -0.2266
17503TIP3    H174000   2.566   4.390  12.715 -0.2952  0.5221  0.6949
17503TIP3    H274001   2.447   4.459  12.650  0.6750  0.1804 -1.5241
17504TIP3   OH274002   0.669   2.354   3.343 -0.2104  0.2343  0.0320
17504TIP3    H174003   0.660   2.271   3.296  1.8204 -0.4338  0.7117
17504TIP3    H274004   0.672   2.421   3.274  2.1629 -0.6712 -0.8161
17505TIP3   OH274005   0.596   5.746   5.468 -0.0715  0.2203  0.2460
17505TIP3    H174006   0.525   5.732   5.405  0.1739  1.1816 -0.2725
17505TIP3    H274007   0.561   5.812   5.528  0.2165  0.3548  0.2647
17506TIP3   OH274008   4.980   2.042  12.390  0.3490  0.0730 -0.0326
17506TIP3    H174009   5.045   2.022  12.322  0.4122 -0.5135  0.2024
17506TIP3    H274010   4.895   2.029  12.347  0.3887 -0.8944  0.1763
17507TIP3   OH274011   6.385   3.543   3.490  0.4279  0.1007  0.6615
17507TIP3    H174012   6.364   3.561   3.399  1.6266  2.7166  0.8188
17507TIP3    H274013   6.480   3.541   3.494  0.3944 -1.3867  1.6545
17508TIP3   OH274014   0.559   5.697  11.771 -0.1491  0.3802 -0.0968
17508TIP3    H174015   0.490   5.756  11.741 -0.6893  0.3542  1.0421
17508TIP3    H274016   0.585   5.731  11.856  0.6566 -0.1110 -0.1313
17509TIP3   OH274017   5.841   1.528  11.087 -0.1081  0.1058 -0.9585
17509TIP3    H174018   5.800   1.497  11.006  0.7620  1.7690 -2.0922
17509TIP3    H274019   5.789   1.603  11.114  0.0596  0.0247 -0.3870
17510TIP3   OH274020   4.356   3.194   1.138  0.1346  0.1438  0.3278
17510TIP3    H174021   4.420   3.240   1.192  0.9526  0.9665 -1.2846
17510TIP3    H274022   4.402   3.176   1.056 -1.7019  0.8509 -0.9204
17511TIP3   OH274023   5.867   1.754   2.398  0.3938 -0.1657  0.3194
17511TIP3    H174024   5.826   1.786   2.317 -1.5386 -3.1754 -0.0492
17511TIP3    H274025   5.905   1.832   2.438 -2.7007  2.3175 -1.1265
17512TIP3   OH274026   5.263   3.205  12.855  0.2519 -0.6691  0.0246
17512TIP3    H174027   5.352   3.191  12.888  0.3782 -1.0022 -0.4503
17512TIP3    H274028   5.211   3.137  12.896  0.2310 -0.5274  0.2359
17513TIP3   OH274029   1.154   3.133   2.489  0.3230 -0.3034  0.2040
17513TIP3    H174030   1.158   3.038   2.503 -0.6590 -0.3532  0.1874
17513TIP3    H274031   1.155   3.144   2.394 -1.0174 -0.3824  0.1673
17514TIP3   OH274032   3.740   0.513  12.846  0.5057 -0.5113  0.2262
17514TIP3    H174033   3.746   0.420  12.823 -0.0811 -0.4822 -0.0501
17514TIP3    H274034   3.695   0.513  12.931  0.6902 -0.4865  0.3259
17515TIP3   OH274035   5.400   2.156   4.111  0.0971  0.1512  0.5038
17515TIP3    H174036   5.381   2.250   4.119 -1.6970 -0.0453 -0.6452
17515TIP3    H274037   5.495   2.151   4.104  0.4244  1.6623  2.8338
17516TIP3   OH274038   3.306   3.693   4.917 -0.4193  0.5393  0.0724
17516TIP3    H174039   3.239   3.649   4.970 -1.3022 -1.6503 -2.6349
17516TIP3    H274040   3.256   3.748   4.857  0.0642 -1.1393 -2.0069
17517TIP3   OH274041   1.259   5.215  13.812  0.0814 -0.4126 -0.3703
17517TIP3    H174042   1.192   5.151  13.788  0.4000 -1.1072  0.5101
17517TIP3    H274043   1.226   5.299  13.781 -1.0288 -0.8040 -0.2597
17518TIP3   OH274044   5.195   4.236   5.364  0.2321 -0.2542 -0.0241
17518TIP3    H174045   5.225   4.283   5.287  2.3274 -0.4490  0.6160
17518TIP3    H274046   5.201   4.300   5.435  0.6945 -0.7741  0.4088
17519TIP3   OH274047   2.814   6.548  16.039  0.6241 -0.3052  0.5074
17519TIP3    H174048   2.859   6.464  16.026  0.2258 -0.6495  1.3163
17519TIP3    H274049   2.755   6.533  16.112  0.4979  0.6705  0.6197
17520TIP3   OH274050   5.594   6.529  12.362 -0.5013 -0.1579  0.2417
17520TIP3    H174051   5.555   6.545  12.448  2.3677  1.2444  1.4277
17520TIP3    H274052   5.653   6.455  12.377 -0.5672 -0.4265 -0.7660
17521TIP3   OH274053   6.829   0.872   0.393  0.0568  0.2372  0.3321
17521TIP3    H174054   6.779   0.836   0.467  0.2280  0.7540  0.7024
17521TIP3    H274055   6.905   0.814   0.386  0.3940  0.5852  1.0052
17522TIP3   OH274056   1.029   3.362  14.729  0.2265 -0.2140 -0.3114
17522TIP3    H174057   1.071   3.442  14.697  0.3231 -0.1867 -0.1140
17522TIP3    H274058   1.102   3.305  14.754  0.2024 -0.8275 -1.5556
17523TIP3   OH274059   3.688   2.297  12.604 -0.1336 -0.5045 -0.1803
17523TIP3    H174060   3.656   2.292  12.514  0.3687 -1.0580 -0.3294
17523TIP3    H274061   3.664   2.213  12.643  0.6888 -0.7291 -0.1438
17524TIP3   OH274062   2.601   0.872  13.944 -0.1785 -0.5368 -0.0943
17524TIP3    H174063   2.622   0.783  13.915  3.3710 -0.4348  1.5494
17524TIP3    H274064   2.681   0.921  13.925 -1.2878  1.7866  0.9665
17525TIP3   OH274065   6.813   6.168   0.239  0.0054 -0.4774  0.3673
17525TIP3    H174066   6.745   6.209   0.186 -0.2490 -0.2591  0.8482
17525TIP3    H274067   6.838   6.236   0.302  0.5139 -0.6282  0.3384
17526TIP3   OH274068   0.153   6.463  11.311 -0.0902  0.1772  0.8620
17526TIP3    H174069   0.145   6.369  11.292  0.5408 -0.1614  2.1465
17526TIP3    H274070   0.071   6.501  11.278  0.0851 -0.6422 -0.6060
17527TIP3   OH274071   3.425   5.569   4.294  0.0609  0.7014  0.1393
17527TIP3    H174072   3.479   5.584   4.372  0.7976 -0.3780 -0.1369
17527TIP3    H274073   3.489   5.548   4.225 -0.6426  0.6836 -0.5156
17528TIP3   OH274074   5.482   3.120   4.963 -0.1118 -0.0106 -0.0940
17528TIP3    H174075   5.418   3.178   4.921 -1.0048  1.2952  2.7988
17528TIP3    H274076   5.567   3.149   4.929 -0.6922  1.7662 -0.1271
17529TIP3   OH274077   3.030   2.232  14.252  0.4984 -0.5457 -0.3294
17529TIP3    H174078   3.093   2.216  14.323 -0.3289 -0.5986  0.4173
17529TIP3    H274079   2.994   2.319  14.272 -0.7782 -1.1574  0.1534
17530TIP3   OH274080   3.103   5.181  14.140  0.0839  0.2485  0.0570
17530TIP3    H174081   3.082   5.177  14.233 -3.4276 -0.5661 -0.6404
17530TIP3    H274082   3.073   5.267  14.112  1.5843  0.6914 -0.3004
17531TIP3   OH274083   6.376   0.960  13.570  0.1504  0.2853  0.5059
17531TIP3    H174084   6.334   0.884  13.530 -0.9351  1.4965 -0.7935
17531TIP3    H274085   6.307   1.000  13.622 -0.1261  1.8086 -0.9373
17532TIP3   OH274086   1.445   5.002   5.449 -0.5464  0.8917 -0.2191
17532TIP3    H174087   1.527   5.044   5.423 -0.0907  0.5762  0.6668
17532TIP3    H274088   1.437   4.926   5.391  0.4532  0.1968  0.5182
17533TIP3   OH274089   5.939   6.778   1.302 -0.0241  0.0407  0.0415
17533TIP3    H174090   5.891   6.707   1.260  0.3947 -0.3301  0.1821
17533TIP3    H274091   5.966   6.742   1.387 -1.8023  1.1339  1.1353
17534TIP3   OH274092   0.076   4.011   3.873  0.3593  0.5034 -0.3366
17534TIP3    H174093   0.130   4.024   3.951 -0.3073 -2.0609  0.6386
17534TIP3    H274094   0.137   3.978   3.807  0.2107 -1.7007  0.5459
17535TIP3   OH274095   4.911   0.078  14.121 -0.6695 -0.1574  0.3023
17535TIP3    H174096   4.999   0.095  14.156  0.3041 -1.7822 -1.1543
17535TIP3    H274097   4.851   0.107  14.190  1.0298 -0.2117  1.8824
17536TIP3   OH274098   2.514   2.910   1.167  0.1793  0.4494 -0.2416
17536TIP3    H174099   2.490   2.857   1.242 -0.4706 -0.6828 -1.2091
17536TIP3    H274100   2.441   2.971   1.156  1.5999  2.7124  1.7974
17537TIP3   OH274101   5.743   2.519  11.083  0.0392 -0.3765 -0.3317
17537TIP3    H174102   5.739   2.602  11.036 -1.8803 -0.4746 -0.4167
17537TIP3    H274103   5.768   2.544  11.172  1.2471  0.0653 -0.7625
17538TIP3   OH274104   2.828   6.801  12.970 -0.2727 -0.3791  0.4017
17538TIP3    H174105   2.869   6.882  13.000 -1.1446 -0.9697  3.4690
17538TIP3    H274106   2.888   6.732  12.998 -0.4053 -0.9324 -0.6114
17539TIP3   OH274107   5.902   3.839   0.152  0.3626 -0.1558  0.4151
17539TIP3    H174108   5.888   3.780   0.226  2.3545 -0.3682  0.6757
17539TIP3    H274109   5.991   3.820   0.122 -0.2038  0.2753 -1.7402
17540TIP3   OH274110   0.798   2.651   4.506 -0.3062 -0.1522  0.4167
17540TIP3    H174111   0.703   2.656   4.516 -0.1549  0.1817  1.8145
17540TIP3    H274112   0.829   2.741   4.515  0.0399 -0.0169 -1.6054
17541TIP3   OH274113   1.887   4.214  14.853 -0.4297 -0.3818 -0.1902
17541TIP3    H174114   1.940   4.288  14.885 -1.1459  0.1318 -0.1593
17541TIP3    H274115   1.891   4.150  14.924 -2.3722  0.9347  1.2002
17542TIP3   OH274116   0.481   5.866   3.898  0.0391  0.0625  0.4043
17542TIP3    H174117   0.555   5.883   3.956  0.6466  1.0118 -0.5945
17542TIP3    H274118   0.459   5.952   3.861 -1.7779 -0.1422  0.9040
17543TIP3   OH274119   3.324   3.585  10.586  0.3021  0.3185 -0.2728
17543TIP3    H174120   3.353   3.494  10.579 -0.8401 -0.0654 -0.2565
17543TIP3    H274121   3.381   3.633  10.525  0.6416 -0.4691 -0.5876
17544TIP3   OH274122   3.286   4.551   0.807  0.0009 -0.4995  0.2061
17544TIP3    H174123   3.344   4.510   0.742  0.7216 -0.6533  0.9303
17544TIP3    H274124   3.262   4.479   0.865 -0.2239 -0.2582  0.4073
17545TIP3   OH274125   6.206   4.055  13.532 -0.3776  0.3243 -0.2020
17545TIP3    H174126   6.270   4.020  13.594 -1.5183 -1.4256  0.0718
17545TIP3    H274127   6.136   3.989  13.530 -1.7213  1.7017 -1.2069
17546TIP3   OH274128   3.001   6.434   1.461 -0.0931  0.1236  0.1329
17546TIP3    H174129   3.042   6.431   1.547 -1.9461 -0.0875  1.0572
17546TIP3    H274130   3.014   6.347   1.424  1.4516  0.4657 -0.2058
17547TIP3   OH274131   4.011   3.948   4.215 -1.1043 -0.6858 -0.7995
17547TIP3    H174132   4.037   3.866   4.257 -1.4551 -0.7941 -0.7909
17547TIP3    H274133   3.976   3.922   4.130 -1.4024 -0.5678 -0.7157
17548TIP3   OH274134   0.284   4.207   0.546 -0.2677  0.0863 -0.2429
17548TIP3    H174135   0.236   4.151   0.607 -2.0208  1.1165 -0.6188
17548TIP3    H274136   0.253   4.295   0.565  0.1329  0.5836 -1.7467
17549TIP3   OH274137   0.408   0.130   0.686 -0.0373 -0.2766  0.5253
17549TIP3    H174138   0.322   0.098   0.658 -0.5461  0.0886  1.6207
17549TIP3    H274139   0.389   0.209   0.736  0.8996 -0.4782  1.2192
17550TIP3   OH274140   4.417   1.530  11.071 -0.2707 -0.1629  0.1206
17550TIP3    H174141   4.499   1.522  11.024  0.5724 -2.9436  1.8325
17550TIP3    H274142   4.349   1.519  11.004  0.5874  2.8199 -1.4280
17551TIP3   OH274143   5.586   1.130   4.471  0.4161 -0.0101 -0.2024
17551TIP3    H174144   5.660   1.071   4.486  1.0571  0.5560 -1.0378
17551TIP3    H274145   5.601   1.202   4.532 -0.0931 -0.4671  0.4636
17552TIP3   OH274146   0.275   2.957  11.791 -0.0735 -0.6661 -0.4535
17552TIP3    H174147   0.320   2.928  11.711 -2.9873  0.6335 -2.7296
17552TIP3    H274148   0.292   3.051  11.796 -1.7921 -0.3164 -0.8774
17553TIP3   OH274149   6.309   3.682  16.605  0.0143 -0.2586  0.3311
17553TIP3    H174150   6.385   3.698  16.550 -0.2505  0.5252  0.1772
17553TIP3    H274151   6.345   3.663  16.692  0.3790  0.3981  0.3265
17554TIP3   OH274152   4.054   0.375  11.867  0.1193  0.0513  0.8858
17554TIP3    H174153   4.056   0.456  11.816 -1.8507  0.3054  1.1436
17554TIP3    H274154   3.970   0.335  11.845  0.3422 -1.1037  2.0130
17555TIP3   OH274155   4.754   5.105   1.770  0.3520 -0.1943 -0.6478
17555TIP3    H174156   4.729   5.198   1.770  0.9059 -0.0035  1.3044
17555TIP3    H274157   4.674   5.060   1.741 -0.4348  0.7813 -0.0953
17556TIP3   OH274158   4.090   1.372  13.513 -0.0461  0.0844  0.3689
17556TIP3    H174159   4.066   1.281  13.530  2.1151 -1.2351 -2.7778
17556TIP3    H274160   4.031   1.401  13.444  0.8958  0.1362 -0.4481
17557TIP3   OH274161   6.495   2.926   0.116  0.2371  0.5134  0.6529
17557TIP3    H174162   6.544   3.001   0.082 -0.3994 -0.6714 -3.3751
17557TIP3    H274163   6.422   2.915   0.056 -0.7848 -2.2395  2.1786
17558TIP3   OH274164   5.948   6.666   2.730 -0.3273  0.1694  0.2209
17558TIP3    H174165   5.930   6.757   2.705 -1.3438 -0.3746 -1.2010
17558TIP3    H274166   5.883   6.615   2.681  0.7655 -1.3945  0.3340
17559TIP3   OH274167   1.568   6.481   2.571  0.1121 -0.1493 -0.3383
17559TIP3    H174168   1.662   6.498   2.579 -0.0324  0.5572  0.0019
17559TIP3    H274169   1.528   6.568   2.574 -0.7176 -0.5594  1.7404
17560TIP3   OH274170   2.924   0.213  16.980 -0.0041 -0.2654  0.5187
17560TIP3    H174171   2.951   0.217  17.072 -1.4420  3.1127  0.9316
17560TIP3    H274172   2.848   0.271  16.975 -2.2152 -3.0686 -2.1619
17561TIP3   OH274173   4.355   1.690   4.262 -0.7007 -0.0236 -0.1974
17561TIP3    H174174   4.366   1.779   4.296 -0.2955 -0.1789  0.0928
17561TIP3    H274175   4.306   1.645   4.331 -0.1040 -0.2695  0.0757
17562TIP3   OH274176   3.887   3.237   0.545  0.3038 -0.2912 -0.3470
17562TIP3    H174177   3.840   3.309   0.503 -0.2681 -0.3441  0.1849
17562TIP3    H274178   3.841   3.158   0.517 -0.7201 -0.2720  1.1097
17563TIP3   OH274179   6.654   6.434  15.894 -0.0718 -0.0979 -0.1234
17563TIP3    H174180   6.684   6.484  15.818 -0.7348  0.6598  0.0973
17563TIP3    H274181   6.617   6.354  15.857  0.4774 -0.1647 -0.5283
17564TIP3   OH274182   0.044   2.126  17.019  0.5997 -0.5257 -0.3113
17564TIP3    H174183   0.100   2.187  17.067 -0.3287  0.8149 -0.8508
17564TIP3    H274184   0.040   2.048  17.073 -0.2086  0.8347  1.6976
17565TIP3   OH274185   6.781   5.683   4.813  0.2332 -0.0536  0.1536
17565TIP3    H174186   6.872   5.657   4.805 -0.6333 -3.0469 -1.2455
17565TIP3    H274187   6.763   5.735   4.735  0.9012  1.3807  0.9033
17566TIP3   OH274188   0.340   1.400   4.748 -0.5923 -0.8280  0.9178
17566TIP3    H174189   0.313   1.310   4.767 -1.3334 -0.5316  1.3130
17566TIP3    H274190   0.269   1.454   4.782 -0.2030 -0.0936  0.5908
17567TIP3   OH274191   3.718   1.232   2.714  0.1876  0.4599 -0.0153
17567TIP3    H174192   3.813   1.224   2.707  0.5484  1.1359  2.8039
17567TIP3    H274193   3.684   1.162   2.658  2.4609 -1.6398  1.0095
17568TIP3   OH274194   0.726   3.801  14.079 -0.3886  0.0203 -0.0814
17568TIP3    H174195   0.747   3.821  14.170 -2.6277  0.9308  0.2911
17568TIP3    H274196   0.702   3.708  14.080 -2.5330  0.5307  0.7435
17569TIP3   OH274197   3.409   6.740   4.055  0.7827  0.9131  0.0537
17569TIP3    H174198   3.457   6.661   4.031 -2.6608 -1.1686 -0.7349
17569TIP3    H274199   3.387   6.781   3.971 -2.5371 -0.7681 -0.0819
17570TIP3   OH274200   3.140   2.535  14.632 -0.7288  0.8591  0.0711
17570TIP3    H174201   3.229   2.562  14.613  0.7741 -0.7780  3.8256
17570TIP3    H274202   3.124   2.562  14.722 -3.1668 -0.8910  0.2955
17571TIP3   OH274203   6.607   2.198   4.586 -0.0785  0.4388 -0.2268
17571TIP3    H174204   6.695   2.194   4.623 -0.1864 -0.3604 -0.0287
17571TIP3    H274205   6.620   2.193   4.492  0.1441  1.4765 -0.2623
17572TIP3   OH274206   0.206   4.292  11.167 -0.2873 -0.7193 -0.2188
17572TIP3    H174207   0.214   4.230  11.095 -0.3401 -0.2827 -0.6080
17572TIP3    H274208   0.188   4.376  11.124 -2.1811 -0.7715  0.3712
17573TIP3   OH274209   2.230   4.012  12.932  0.6036 -0.1728  0.2867
17573TIP3    H174210   2.315   4.049  12.907 -0.9592  2.4668 -1.7162
17573TIP3    H274211   2.202   3.963  12.854 -1.1140  1.8582 -0.4556
17574TIP3   OH274212   1.432   2.684  16.197 -0.2617  0.0983 -0.2082
17574TIP3    H174213   1.490   2.759  16.210  1.1458 -0.8145 -0.9624
17574TIP3    H274214   1.460   2.620  16.263 -1.9788  0.4885  0.9628
17575TIP3   OH274215   4.540   5.207  16.483  0.5533  0.0180 -0.5325
17575TIP3    H174216   4.603   5.141  16.456  0.0158 -0.6023 -0.2963
17575TIP3    H274217   4.580   5.250  16.558 -0.1076 -1.6831  0.8497
17576TIP3   OH274218   0.407   5.329  12.184  0.0434 -0.2605 -0.4220
17576TIP3    H174219   0.399   5.286  12.270 -0.6947 -0.2653 -0.4904
17576TIP3    H274220   0.326   5.308  12.139 -0.1822  0.9090 -0.5978
17577TIP3   OH274221   0.354   6.424   1.456 -0.5523 -0.5739  0.5657
17577TIP3    H174222   0.271   6.425   1.407  0.6161 -3.4918 -1.7875
17577TIP3    H274223   0.367   6.516   1.480 -1.6430  1.1571 -4.1731
17578TIP3   OH274224   0.473   3.577  11.091 -0.3199  0.6846 -0.3058
17578TIP3    H174225   0.504   3.576  11.001 -2.0633  1.4191 -0.9543
17578TIP3    H274226   0.552   3.560  11.144  1.0284  1.7682 -1.8665
17579TIP3   OH274227   5.799   5.941   4.795 -0.1308 -0.3514 -0.3908
17579TIP3    H174228   5.711   5.927   4.830 -0.2533  0.3966 -0.3828
17579TIP3    H274229   5.789   5.931   4.700 -0.0947 -0.8947 -0.3401
17580TIP3   OH274230   0.007   5.952  16.223  0.6902  0.2633 -0.0198
17580TIP3    H174231  -0.017   5.862  16.201 -2.0979  1.0621 -0.5747
17580TIP3    H274232  -0.058   5.980  16.287  0.9659  2.1677 -0.5048
17581TIP3   OH274233   0.807   5.910  12.952  0.2788  0.0086  0.1301
17581TIP3    H174234   0.811   5.888  12.859  1.0885 -0.4195  0.2559
17581TIP3    H274235   0.869   5.849  12.994 -0.2545  0.0366  0.9767
17582TIP3   OH274236   1.447   6.711  11.429 -0.0664  0.1156  0.4299
17582TIP3    H174237   1.378   6.659  11.469  0.0748 -0.7545 -0.4325
17582TIP3    H274238   1.432   6.703  11.335 -0.4483  2.1875  0.2509
17583TIP3   OH274239   6.755   1.826   1.053 -0.2447 -0.7505 -0.0304
17583TIP3    H174240   6.847   1.806   1.039 -0.4640 -2.1030  0.3156
17583TIP3    H274241   6.742   1.817   1.147 -0.6007  0.0806  0.0138
17584TIP3   OH274242   6.261   2.221  12.636 -0.0566  0.0265 -0.0303
17584TIP3    H174243   6.206   2.284  12.683  0.8763  0.4293  0.5587
17584TIP3    H274244   6.238   2.232  12.544 -1.9951 -0.8374  0.2827
17585TIP3   OH274245   2.191   6.401  11.244  0.2505  0.1711  0.3449
17585TIP3    H174246   2.173   6.336  11.176 -0.3159 -0.8314  1.4179
17585TIP3    H274247   2.198   6.484  11.197 -1.1180 -0.3478 -0.8389
17586TIP3   OH274248   5.434   6.350  15.611 -0.4904 -0.7681  0.3334
17586TIP3    H174249   5.347   6.321  15.584 -0.9322  0.0510  0.8190
17586TIP3    H274250   5.492   6.279  15.586 -1.4903 -1.9856  1.2928
17587TIP3   OH274251   4.217   0.004  12.619 -0.3776 -0.3724 -0.0969
17587TIP3    H174252   4.188   0.003  12.528 -0.1766  0.1409 -0.1732
17587TIP3    H274253   4.309   0.029  12.615 -0.8740  1.7237  0.3435
17588TIP3   OH274254   0.085   3.067   4.370  0.5477  0.2063 -0.3509
17588TIP3    H174255   0.027   3.050   4.444  0.2942  1.0023 -0.3534
17588TIP3    H274256   0.028   3.106   4.303  1.1084  1.1862 -0.2780
17589TIP3   OH274257   6.096   1.271   0.844 -0.3981  0.0286  0.5386
17589TIP3    H174258   6.175   1.262   0.897 -0.0105 -0.2460 -0.0651
17589TIP3    H274259   6.115   1.346   0.787 -1.0533  0.7045  1.1933
17590TIP3   OH274260   5.647   6.358   0.933 -0.3442  0.5450  0.2158
17590TIP3    H174261   5.606   6.443   0.921  0.1125  0.7392  0.0275
17590TIP3    H274262   5.664   6.327   0.844  0.9871  0.9871  0.2951
17591TIP3   OH274263   4.833   2.425  11.642  0.2874 -0.4625  0.1729
17591TIP3    H174264   4.781   2.500  11.614  0.8977 -0.1968 -0.2542
17591TIP3    H274265   4.887   2.403  11.567  0.4521 -1.0391  0.4537
17592TIP3   OH274266   4.824   4.286  11.058 -0.4740  0.1231 -0.0662
17592TIP3    H174267   4.915   4.264  11.038  0.2239  0.6320  2.2970
17592TIP3    H274268   4.830   4.358  11.120 -2.5371  0.6945 -0.4637
17593TIP3   OH274269   2.402   3.461   5.550 -0.0385  0.6619  0.0823
17593TIP3    H174270   2.466   3.404   5.592  1.2744  1.0611 -1.2992
17593TIP3    H274271   2.446   3.545   5.540 -1.5766  1.6452  1.1036
17594TIP3   OH274272   2.803   5.821   2.125 -0.5368 -0.3467  0.7118
17594TIP3    H174273   2.751   5.896   2.154 -3.3703 -1.5105 -0.9119
17594TIP3    H274274   2.838   5.847   2.040  2.6444  0.8147  2.2295
17595TIP3   OH274275   4.851   6.053  12.370 -0.2464 -0.3207 -0.0269
17595TIP3    H174276   4.783   6.046  12.303 -1.8703 -1.2470  1.6185
17595TIP3    H274277   4.836   6.138  12.411  0.6323  0.1670 -0.6681
17596TIP3   OH274278   1.974   2.549  12.598  0.9964 -0.4411  0.3005
17596TIP3    H174279   2.042   2.524  12.661  1.4974  1.0930  0.4173
17596TIP3    H274280   2.022   2.591  12.526  0.1502  1.7137  0.9052
17597TIP3   OH274281   2.148   6.354   5.013  0.2670 -0.9030  0.1777
17597TIP3    H174282   2.212   6.418   5.045 -0.3954 -0.5868  0.9046
17597TIP3    H274283   2.067   6.404   5.002  0.3569 -1.0929 -1.6354
17598TIP3   OH274284   0.191   0.699   0.392 -0.0416  0.6318 -0.3585
17598TIP3    H174285   0.281   0.712   0.420 -0.3276  2.2179 -0.1133
17598TIP3    H274286   0.188   0.607   0.364  1.9366  0.8501 -1.4789
17599TIP3   OH274287   4.569   1.345   3.353 -0.6410 -0.4724  0.5556
17599TIP3    H174288   4.491   1.401   3.358 -0.3191 -0.0359  0.8007
17599TIP3    H274289   4.622   1.385   3.284 -1.1653 -1.4691 -0.4619
17600TIP3   OH274290   4.908   5.945   6.128  0.0101 -0.3508  0.8141
17600TIP3    H174291   4.967   5.888   6.177  2.3982  1.5497  0.3510
17600TIP3    H274292   4.882   6.012   6.192  1.0224  0.6553  0.1972
17601TIP3   OH274293   1.922   4.271   3.475 -0.4550 -0.1444  1.3040
17601TIP3    H174294   1.907   4.358   3.512  0.1220  1.3566 -1.7179
17601TIP3    H274295   1.838   4.245   3.438 -0.2396 -0.1589  0.8184
17602TIP3   OH274296   0.770   3.774  10.651 -0.4535  0.0585 -0.3263
17602TIP3    H174297   0.745   3.817  10.733  0.8308 -0.4504  0.3559
17602TIP3    H274298   0.844   3.825  10.618 -1.2941  0.5855 -1.4771
17603TIP3   OH274299   3.847   6.835   1.608  0.2398 -0.1275 -0.1259
17603TIP3    H174300   3.858   6.762   1.547  0.1910 -0.0688 -0.2061
17603TIP3    H274301   3.925   6.889   1.596 -0.3993  0.6072 -1.1324
17604TIP3   OH274302   0.652   0.082  11.826 -0.9549 -0.0509 -0.2041
17604TIP3    H174303   0.703   0.139  11.769 -0.2266 -1.2821 -0.8279
17604TIP3    H274304   0.639   0.002  11.775 -2.0682 -0.4005  0.5882
17605TIP3   OH274305   1.213   1.283  13.103 -0.3837  0.1440  0.6887
17605TIP3    H174306   1.227   1.326  13.187 -1.1878 -0.8799  1.3764
17605TIP3    H274307   1.246   1.345  13.038  0.2357  0.9564  1.7537
17606TIP3   OH274308   5.310   5.488  12.157  0.0930  0.5832 -0.2397
17606TIP3    H174309   5.269   5.476  12.071  0.5029 -1.1968 -0.2352
17606TIP3    H274310   5.382   5.550  12.141 -1.1728  1.9776 -0.6962
17607TIP3   OH274311   4.772   5.282   5.394 -0.2106 -0.2160 -0.7737
17607TIP3    H174312   4.700   5.324   5.441 -0.4838 -0.5426 -0.8961
17607TIP3    H274313   4.831   5.354   5.371 -0.3409  0.0117 -0.3996
17608TIP3   OH274314   3.434   0.895  16.946 -0.1499 -0.0496  0.2313
17608TIP3    H174315   3.411   0.988  16.953 -0.6898 -0.2505  1.3353
17608TIP3    H274316   3.406   0.857  17.029  1.9373 -0.8143  0.6456
17609TIP3   OH274317   3.722   6.407   2.806 -0.0058  0.0747  0.3081
17609TIP3    H174318   3.716   6.322   2.762  2.7996  0.3926 -0.8884
17609TIP3    H274319   3.739   6.385   2.898 -0.4560 -0.6215  0.2395
17610TIP3   OH274320   4.951   3.787   2.631  0.0853  0.6294 -0.0426
17610TIP3    H174321   4.987   3.847   2.697 -1.7874  2.2124 -0.3721
17610TIP3    H274322   4.868   3.757   2.669  0.1725 -0.4156 -0.6484
17611TIP3   OH274323   4.011   2.400  16.238  0.5559  0.0609 -0.1793
17611TIP3    H174324   3.967   2.425  16.319 -0.1100 -0.1543 -0.4636
17611TIP3    H274325   4.102   2.386  16.263  0.3876  0.1555  0.4991
17612TIP3   OH274326   3.924   3.298   3.195 -0.1660 -0.3408  0.4639
17612TIP3    H174327   3.875   3.308   3.277 -1.2077 -1.2853 -0.0209
17612TIP3    H274328   3.998   3.242   3.218 -0.2386 -0.2832  0.8408
17613TIP3   OH274329   1.742   4.432   0.567 -0.2926 -0.4978  0.1913
17613TIP3    H174330   1.695   4.491   0.507 -1.3255 -0.0215  1.4096
17613TIP3    H274331   1.699   4.347   0.555 -0.3923 -0.4408  0.1385
17614TIP3   OH274332   4.248   1.576  16.046 -0.2979 -0.2577  0.3926
17614TIP3    H174333   4.210   1.491  16.021  0.7693 -0.1818 -1.7340
17614TIP3    H274334   4.240   1.629  15.967 -0.2257  1.3830  1.4576
17615TIP3   OH274335   3.961   1.023   1.154 -0.1558 -0.0111  0.1050
17615TIP3    H174336   3.880   1.043   1.109  0.2767  0.0477 -0.6566
17615TIP3    H274337   4.030   1.050   1.094  0.4411 -1.6161  0.0032
17616TIP3   OH274338   5.843   6.826   5.552 -0.3145  0.0591 -0.5444
17616TIP3    H174339   5.768   6.778   5.585  0.5680 -0.5837  0.6183
17616TIP3    H274340   5.812   6.868   5.472 -1.4914 -1.3680 -0.8828
17617TIP3   OH274341   6.727   1.830  16.538  0.1904 -0.0551 -0.1810
17617TIP3    H174342   6.696   1.759  16.593 -1.2701  0.6899  0.0218
17617TIP3    H274343   6.777   1.787  16.469  0.0962 -1.1915  0.4302
17618TIP3   OH274344   0.163   5.873   5.729  0.0629  0.0601 -0.3796
17618TIP3    H174345   0.133   5.816   5.801  1.0145 -0.9203 -0.7164
17618TIP3    H274346   0.214   5.941   5.773 -0.2331  0.0730 -0.0462
17619TIP3   OH274347   1.686   2.239  11.705 -0.1454 -0.4757  0.3292
17619TIP3    H174348   1.737   2.166  11.741  0.1731 -0.2865  0.2697
17619TIP3    H274349   1.750   2.289  11.654  0.0116  0.7186  1.6399
17620TIP3   OH274350   6.450   0.339  10.449  0.2239 -0.3596 -0.2872
17620TIP3    H174351   6.414   0.372  10.367 -0.9906 -2.9218 -0.8622
17620TIP3    H274352   6.374   0.327  10.506  0.8041 -0.6345  0.4492
17621TIP3   OH274353   5.954   2.371   5.076 -0.0404 -0.3254  0.6235
17621TIP3    H174354   5.900   2.418   5.140  1.4939  2.1743  0.2135
17621TIP3    H274355   5.952   2.427   4.998  1.5857 -1.1389 -0.0349
17622TIP3   OH274356   3.243   3.036  10.416  0.7603  0.1820  0.2533
17622TIP3    H174357   3.281   3.108  10.466  2.2744 -1.4400  1.5702
17622TIP3    H274358   3.307   2.965  10.424 -0.4986 -1.2107 -1.2990
17623TIP3   OH274359   2.726   1.746  13.279 -0.1407 -0.1985 -0.1686
17623TIP3    H174360   2.703   1.678  13.342  1.1590  0.0870  0.6482
17623TIP3    H274361   2.651   1.806  13.280 -0.1946 -0.2761  0.9873
17624TIP3   OH274362   0.566   0.557  15.116 -0.1902 -0.1018 -0.3184
17624TIP3    H174363   0.537   0.478  15.071 -0.4367  0.0535 -0.4315
17624TIP3    H274364   0.487   0.593  15.156  0.3442 -1.4741  2.2260
17625TIP3   OH274365   4.434   5.831  14.820 -0.1620  0.0956  0.5859
17625TIP3    H174366   4.515   5.843  14.771 -0.4581  0.0181  0.0691
17625TIP3    H274367   4.461   5.788  14.901  0.0169 -2.4194 -0.7037
17626TIP3   OH274368   6.736   0.854  15.073 -0.1056  0.4445 -0.1869
17626TIP3    H174369   6.695   0.921  15.019 -0.0840  0.9789  0.4431
17626TIP3    H274370   6.670   0.785  15.082 -0.6828  1.0567  0.3829
17627TIP3   OH274371   1.721   2.542  12.438  0.5458 -0.0510 -0.2820
17627TIP3    H174372   1.745   2.628  12.473  2.4780 -0.3464 -0.7670
17627TIP3    H274373   1.804   2.494  12.436 -0.5368 -2.0090  0.1619
17628TIP3   OH274374   4.904   5.856   0.399 -0.1231 -0.0642  0.2706
17628TIP3    H174375   4.912   5.767   0.367 -1.2202  0.0753 -0.4572
17628TIP3    H274376   4.986   5.898   0.374  1.5250 -1.4814  2.8495
17629TIP3   OH274377   1.709   5.092  11.110 -0.2953  0.7895 -0.0601
17629TIP3    H174378   1.642   5.114  11.045  1.1234  1.3621 -1.4133
17629TIP3    H274379   1.789   5.133  11.076  0.6810  0.3773  1.6395
17630TIP3   OH274380   4.424   1.000  11.916  0.9662  0.0072 -0.3774
17630TIP3    H174381   4.428   0.955  12.000 -3.6800  0.8607  0.5491
17630TIP3    H274382   4.480   0.948  11.858  2.8790 -1.6630  2.7098
17631TIP3   OH274383   0.513   4.002  16.256 -0.7309 -0.3222  0.6801
17631TIP3    H174384   0.509   4.039  16.168 -0.7811 -0.9122  0.4316
17631TIP3    H274385   0.447   3.932  16.256  0.2148 -1.2339  0.7487
17632TIP3   OH274386   1.200   0.434   0.243 -0.3729  0.1231  0.4785
17632TIP3    H174387   1.279   0.456   0.194 -0.3589 -1.2630 -0.1933
17632TIP3    H274388   1.140   0.397   0.178 -0.7683 -0.7670  1.3022
17633TIP3   OH274389   2.764   1.769  14.567  0.1679  0.4505 -0.6152
17633TIP3    H174390   2.782   1.678  14.545 -0.0897  0.3395 -0.3735
17633TIP3    H274391   2.792   1.777  14.659 -2.1601 -0.0756  0.2173
17634TIP3   OH274392   2.251   0.757   4.359  0.2348  0.7499  0.4160
17634TIP3    H174393   2.287   0.723   4.441 -1.3397  1.8621  1.6337
17634TIP3    H274394   2.268   0.688   4.295  0.3609 -0.7341  1.9739
17635TIP3   OH274395   5.292   0.712  13.715  0.0951 -0.2275 -0.0608
17635TIP3    H174396   5.229   0.677  13.652 -1.8251 -0.3480  1.8004
17635TIP3    H274397   5.240   0.769  13.771  1.5435 -0.7269  1.8890
17636TIP3   OH274398   1.146   2.707   1.039 -0.2783  0.1808  0.0093
17636TIP3    H174399   1.078   2.745   0.984 -0.6390  0.3603  0.5672
17636TIP3    H274400   1.108   2.707   1.127  0.0180 -0.7382  0.1505
17637TIP3   OH274401   6.643   4.472   1.372 -0.2534 -0.1703 -0.3754
17637TIP3    H174402   6.632   4.491   1.279  0.4956  0.0135 -0.4349
17637TIP3    H274403   6.612   4.551   1.417 -0.5114 -0.2169 -0.4702
17638TIP3   OH274404   5.041   6.652   2.039  0.5653 -0.0592 -0.0264
17638TIP3    H174405   5.054   6.560   2.061 -1.2957  0.3089  3.0954
17638TIP3    H274406   4.953   6.655   2.001  0.9491  0.3647 -0.9148
17639TIP3   OH274407   6.828   6.748   4.235 -0.0165  0.1943 -0.5860
17639TIP3    H174408   6.800   6.836   4.262  0.6986  0.5787 -1.0350
17639TIP3    H274409   6.912   6.763   4.190 -0.4523 -0.5843 -1.6928
17640TIP3   OH274410   0.817   6.107  14.833  0.5200 -0.1089  0.0801
17640TIP3    H174411   0.902   6.082  14.869 -0.1526  0.7101  2.4477
17640TIP3    H274412   0.767   6.136  14.909 -1.7468 -0.1584 -1.3112
17641TIP3   OH274413   2.048   1.431  15.148 -1.0567 -0.2253  0.0102
17641TIP3    H174414   2.071   1.368  15.080 -1.6426  0.3897 -0.7694
17641TIP3    H274415   2.071   1.386  15.230  1.5131 -0.1949 -0.6185
17642TIP3   OH274416   2.032   3.684   3.072  0.0105  0.0451  0.7050
17642TIP3    H174417   2.122   3.700   3.098  0.0812  0.3058  0.3092
17642TIP3    H274418   2.034   3.685   2.976 -0.5854  1.1604  0.6775
17643TIP3   OH274419   3.471   2.670  14.679  0.6747  0.1657  0.3012
17643TIP3    H174420   3.506   2.651  14.592 -0.4131 -0.0429 -0.1034
17643TIP3    H274421   3.423   2.591  14.703 -0.3900  0.8238  0.3834
17644TIP3   OH274422   3.142   6.010  14.272 -0.0679  1.4002  0.0599
17644TIP3    H174423   3.135   6.006  14.177 -0.9150 -1.5815  0.1507
17644TIP3    H274424   3.235   5.992  14.290 -0.6561 -3.0654 -0.2378
17645TIP3   OH274425   5.747   2.183   5.493 -0.2826  0.2095  0.2770
17645TIP3    H174426   5.704   2.190   5.408  1.5703  2.6029 -0.5650
17645TIP3    H274427   5.814   2.115   5.480 -1.0853 -0.6268  0.3819
17646TIP3   OH274428   4.412   4.528  15.793 -0.1128  0.4707  0.0630
17646TIP3    H174429   4.328   4.512  15.835 -0.0293  1.3009  0.5642
17646TIP3    H274430   4.394   4.522  15.699 -0.3330 -1.2694  0.1818
17647TIP3   OH274431   5.614   2.575  10.532  0.4162  0.0620  0.3341
17647TIP3    H174432   5.602   2.650  10.474  0.5070 -0.0037  0.2304
17647TIP3    H274433   5.534   2.523  10.522  1.8265 -1.8190 -2.4415
17648TIP3   OH274434   5.291   0.111  15.599 -0.0116  0.0248 -0.1872
17648TIP3    H174435   5.361   0.170  15.570  1.4524 -1.2598  0.5947
17648TIP3    H274436   5.284   0.046  15.530 -0.6207  0.3000 -0.3839
17649TIP3   OH274437   0.805   1.498  15.923  0.1770 -0.2462 -0.3005
17649TIP3    H174438   0.773   1.491  15.832 -0.1526  0.0397 -0.2061
17649TIP3    H274439   0.883   1.553  15.917  0.5688 -0.8089 -0.5076
17650TIP3   OH274440   5.590   1.637   1.402  0.3548 -0.0456  0.5389
17650TIP3    H174441   5.529   1.702   1.438 -0.4620 -0.9283  0.7669
17650TIP3    H274442   5.536   1.582   1.345  0.7882 -1.2711  1.2802
17651TIP3   OH274443   3.443   6.604  16.651  0.6539 -0.2592  0.4963
17651TIP3    H174444   3.533   6.572  16.645  1.1492  0.9637  1.1500
17651TIP3    H274445   3.427   6.648  16.567  1.3780  1.2384  1.1037
17652TIP3   OH274446   3.382   6.326  14.575 -0.0334 -0.2212  0.0073
17652TIP3    H174447   3.298   6.284  14.558 -0.7592  0.0703  2.4500
17652TIP3    H274448   3.448   6.264  14.544 -1.1220 -2.0562  1.2118
17653TIP3   OH274449   5.930   0.615  16.977 -0.3229  0.2433  0.2258
17653TIP3    H174450   5.883   0.566  16.909  0.4828  1.4968 -1.3061
17653TIP3    H274451   5.873   0.611  17.054 -2.0750  0.1850 -1.0162
17654TIP3   OH274452   5.011   4.322   6.566 -0.2455  0.4044 -0.3592
17654TIP3    H174453   5.032   4.324   6.472 -0.3812  0.1595 -0.3954
17654TIP3    H274454   4.953   4.247   6.576 -0.5801  0.6864 -0.1496
17655TIP3   OH274455   0.808   5.029  14.926 -0.3318  0.1303  0.3982
17655TIP3    H174456   0.747   4.987  14.987 -0.2228  1.3460  1.3714
17655TIP3    H274457   0.767   5.114  14.906 -1.5975 -1.1179 -3.1653
17656TIP3   OH274458   5.879   3.367  12.043 -0.7648  0.0975  0.5704
17656TIP3    H174459   5.922   3.337  12.122  0.6696  0.3836 -0.0763
17656TIP3    H274460   5.913   3.310  11.974 -0.2983  1.2547 -0.1889
17657TIP3   OH274461   1.982   1.078  15.474  0.7386  0.6225 -0.0322
17657TIP3    H174462   1.983   1.053  15.567 -0.1173  0.7377  0.0217
17657TIP3    H274463   1.889   1.077  15.451  0.9946 -0.1439 -1.0924
17658TIP3   OH274464   0.685   0.903   0.214  0.2529  0.1037 -0.1269
17658TIP3    H174465   0.709   0.863   0.130 -1.9818 -0.9460 -0.3626
17658TIP3    H274466   0.663   0.994   0.192  0.4760  0.0605 -0.5372
17659TIP3   OH274467   5.400   2.700   3.507 -0.1021  0.8270  0.1841
17659TIP3    H174468   5.484   2.728   3.470  0.7940 -1.6937  0.1100
17659TIP3    H274469   5.415   2.697   3.602  0.6968 -1.7327  0.0502
17660TIP3   OH274470   5.194   0.755  11.350  0.4355  0.2411 -0.0087
17660TIP3    H174471   5.253   0.705  11.406 -1.1522 -1.7994 -0.0342
17660TIP3    H274472   5.202   0.714  11.263 -0.3012  0.5278 -0.2269
17661TIP3   OH274473   0.971   6.668  13.026 -0.0464  0.4950 -0.5226
17661TIP3    H174474   0.877   6.660  13.010 -0.4163  1.7644  0.8157
17661TIP3    H274475   0.984   6.635  13.114  0.4997  1.6992 -0.1278
17662TIP3   OH274476   3.667   6.849  16.386 -0.1642  0.1367 -0.0442
17662TIP3    H174477   3.740   6.897  16.424 -0.1540 -0.0402  0.1615
17662TIP3    H274478   3.706   6.768  16.353 -0.1358  0.3817 -0.6217
17663TIP3   OH274479   0.052   4.288  11.766 -0.1107  0.0498 -0.2694
17663TIP3    H174480   0.001   4.218  11.805 -0.1738  0.4261  0.3367
17663TIP3    H274481   0.067   4.350  11.837  0.1901  0.5135 -0.7240
17664TIP3   OH274482   2.135   0.960  13.614  0.2117  0.5725  0.2868
17664TIP3    H174483   2.183   1.033  13.576  1.4605  0.0065  0.7496
17664TIP3    H274484   2.045   0.993  13.623  0.7043  1.9649  0.2863
17665TIP3   OH274485   0.035   0.914  14.047 -0.2794 -0.7381 -0.5967
17665TIP3    H174486   0.022   0.995  14.096  2.4790 -0.3576 -0.3634
17665TIP3    H274487   0.007   0.844  14.107  0.4656 -0.1290  0.4844
17666TIP3   OH274488   5.076   1.810   2.645 -0.3340 -0.2239  0.6309
17666TIP3    H174489   5.082   1.725   2.689 -0.9954 -0.2614  0.6617
17666TIP3    H274490   5.161   1.822   2.603 -0.5753 -1.3583 -0.2101
17667TIP3   OH274491   3.642   1.734  11.589  0.0847  0.0102 -0.0745
17667TIP3    H174492   3.684   1.650  11.575  0.0752  0.1317 -0.8755
17667TIP3    H274493   3.693   1.796  11.537 -0.9179  0.1999 -0.8641
17668TIP3   OH274494   1.274   4.945  12.812  0.1246  0.3508  0.3713
17668TIP3    H174495   1.347   4.900  12.855  0.4892 -0.8755 -1.4341
17668TIP3    H274496   1.211   4.961  12.883  0.8968 -1.1737  1.4562
17669TIP3   OH274497   1.435   5.394   5.827 -0.4987 -0.4498 -0.2660
17669TIP3    H174498   1.397   5.344   5.756  0.6280 -1.1143 -0.4248
17669TIP3    H274499   1.512   5.436   5.789  0.6363 -1.5194  0.7296
17670TIP3   OH274500   2.598   2.017  16.372  0.4839 -0.2481  0.2372
17670TIP3    H174501   2.560   1.929  16.364  0.2301 -0.1093 -0.0668
17670TIP3    H274502   2.678   2.003  16.423  0.1203 -0.5649  0.7294
17671TIP3   OH274503   4.653   1.228   2.593 -0.3983  0.1511  0.3054
17671TIP3    H174504   4.669   1.157   2.656 -1.5419 -1.6217 -1.2740
17671TIP3    H274505   4.712   1.208   2.521  0.4389  1.7976  0.4992
17672TIP3   OH274506   6.172   6.813   3.437 -0.2169  0.1044  0.1203
17672TIP3    H174507   6.220   6.733   3.415 -1.9723 -1.1028  0.4197
17672TIP3    H274508   6.239   6.881   3.442  1.3644 -1.3740  0.0292
17673TIP3   OH274509   6.338   3.641   4.253 -0.4329  0.1569  0.6129
17673TIP3    H174510   6.422   3.685   4.240 -1.8719  3.3987  1.0957
17673TIP3    H274511   6.328   3.585   4.176  2.4608 -1.0136  0.9483
17674TIP3   OH274512   0.209   6.050   1.572 -0.6571  0.4575  0.0678
17674TIP3    H174513   0.204   5.986   1.501 -3.6986  3.0418 -2.3422
17674TIP3    H274514   0.196   5.998   1.652 -0.5788 -2.1562 -1.4855
17675TIP3   OH274515   1.177   1.568   2.897  0.5781  0.2135 -0.0594
17675TIP3    H174516   1.189   1.477   2.925  0.6902  0.1929 -0.1760
17675TIP3    H274517   1.243   1.581   2.829 -0.0534  0.0971 -0.7049
17676TIP3   OH274518   6.157   3.070   2.858 -0.1422  0.4602 -0.0829
17676TIP3    H174519   6.137   3.140   2.795 -0.4366  0.0539 -0.4522
17676TIP3    H274520   6.251   3.077   2.872 -0.3489  1.7369  0.8660
17677TIP3   OH274521   3.681   4.904  12.900  0.6859  0.4215 -0.4780
17677TIP3    H174522   3.712   4.987  12.936  0.0925  0.1880  0.5849
17677TIP3    H274523   3.589   4.919  12.879  0.4653 -0.0976  0.1158
17678TIP3   OH274524   5.416   3.202  10.116 -0.1956 -0.4414  1.0235
17678TIP3    H174525   5.402   3.296  10.112  1.1717 -0.2556 -0.7443
17678TIP3    H274526   5.331   3.165  10.139 -1.1165  1.1215  0.2275
17679TIP3   OH274527   2.311   5.494   4.442  0.2370  0.1756  0.4505
17679TIP3    H174528   2.220   5.496   4.469  0.2051  2.0632  0.3474
17679TIP3    H274529   2.352   5.567   4.489  2.0510 -1.4497  1.5770
17680TIP3   OH274530   5.353   4.612  16.152 -0.1502  0.1841 -0.2499
17680TIP3    H174531   5.288   4.566  16.204  0.0057 -1.1722 -1.2108
17680TIP3    H274532   5.325   4.704  16.154 -0.7159  0.0094  1.3306
17681TIP3   OH274533   3.220   2.490  10.591  0.8562  0.5653  0.2950
17681TIP3    H174534   3.256   2.415  10.544 -0.3543 -0.4235  0.8840
17681TIP3    H274535   3.131   2.500  10.556  0.5160  0.8440  1.2151
17682TIP3   OH274536   5.826   2.970  14.559  0.2101  0.1343 -0.4566
17682TIP3    H174537   5.843   3.053  14.603 -0.0095  0.4355 -0.9362
17682TIP3    H274538   5.757   2.929  14.610 -0.1729  0.5660 -0.6223
17683TIP3   OH274539   3.913   6.680   1.412  0.5028 -0.2431 -0.2479
17683TIP3    H174540   3.943   6.767   1.387 -0.9306  0.1684 -0.6565
17683TIP3    H274541   3.922   6.628   1.332  1.9318 -0.6523  0.1598
17684TIP3   OH274542   0.082   2.100   5.710  0.4763 -0.2302  0.1029
17684TIP3    H174543   0.013   2.133   5.768 -0.2122  0.5417 -1.1157
17684TIP3    H274544   0.140   2.174   5.697 -0.0144 -0.0288 -1.0964
17685TIP3   OH274545   5.986   5.132   5.401  0.1971 -0.2705 -0.2420
17685TIP3    H174546   5.992   5.048   5.446 -0.6185 -0.1043  0.1960
17685TIP3    H274547   5.896   5.161   5.415  0.4208  0.6105 -0.5108
17686TIP3   OH274548   6.258   1.860   0.362  0.1473  0.2626  0.1835
17686TIP3    H174549   6.211   1.859   0.445 -0.2520  2.3770  0.0300
17686TIP3    H274550   6.350   1.852   0.386  0.0267  0.7605  0.8421
17687TIP3   OH274551   2.636   4.527  14.836  0.1507 -0.1875  0.2720
17687TIP3    H174552   2.568   4.579  14.794 -0.6606 -0.1558  1.5461
17687TIP3    H274553   2.718   4.564  14.805 -0.3921  1.8546  1.0870
17688TIP3   OH274554   6.410   2.628  12.552  0.0543 -0.4173  0.2967
17688TIP3    H174555   6.374   2.668  12.631  1.3484  1.7070 -0.1150
17688TIP3    H274556   6.504   2.619  12.570  0.2453 -0.5916 -0.7186
17689TIP3   OH274557   1.617   0.829  16.974 -0.4595 -0.3223 -0.3074
17689TIP3    H174558   1.706   0.796  16.981  0.2478  1.8279  2.3564
17689TIP3    H274559   1.627   0.921  16.949 -1.9502 -0.0783 -0.1066
17690TIP3   OH274560   4.834   3.451  11.280  0.7386  0.1866  0.0801
17690TIP3    H174561   4.861   3.448  11.372 -0.1425 -0.4279  0.3373
17690TIP3    H274562   4.739   3.462  11.284  0.4181 -1.8530 -0.7060
17691TIP3   OH274563   0.650   2.511   3.727 -0.0851 -0.1496  0.1476
17691TIP3    H174564   0.715   2.549   3.786 -2.1023  3.7186  0.2355
17691TIP3    H274565   0.635   2.579   3.661 -3.7865 -0.9087 -0.0120
17692TIP3   OH274566   1.698   2.300   3.790  0.1230  0.1092 -0.2812
17692TIP3    H174567   1.646   2.277   3.713 -2.1063  1.2331  0.7867
17692TIP3    H274568   1.671   2.238   3.857  0.4661  0.4493  0.1786
17693TIP3   OH274569   5.852   2.920  15.385 -0.2798 -0.0784 -0.5933
17693TIP3    H174570   5.915   2.858  15.423 -1.0795  0.1467  1.2191
17693TIP3    H274571   5.805   2.955  15.461 -1.2752  1.1919 -1.7545
17694TIP3   OH274572   6.202   0.753  16.595 -0.5578  0.1163 -0.1724
17694TIP3    H174573   6.291   0.727  16.618 -0.7761  0.4012  1.0540
17694TIP3    H274574   6.147   0.702  16.655 -1.1738  0.5008 -0.4062
17695TIP3   OH274575   0.152   3.442  10.960  0.3876  0.2774 -0.4560
17695TIP3    H174576   0.111   3.399  10.884 -0.9484 -0.4009  0.6172
17695TIP3    H274577   0.080   3.486  11.005  1.0877  0.3190  0.6583
17696TIP3   OH274578   2.290   4.105   1.869 -0.1863  0.4339 -0.6302
17696TIP3    H174579   2.352   4.176   1.852  0.8185 -0.0583  0.7588
17696TIP3    H274580   2.270   4.069   1.783  1.6298  0.4870 -1.1167
17697TIP3   OH274581   1.183   3.633   5.426 -0.1352  0.2122 -0.0670
17697TIP3    H174582   1.206   3.609   5.516  0.4278 -0.6655 -0.4235
17697TIP3    H274583   1.148   3.552   5.389  1.1990  0.0797 -1.1189
17698TIP3   OH274584   0.635   0.929   5.136 -0.6272  0.4796 -0.2872
17698TIP3    H174585   0.648   0.844   5.096  0.9667  0.8976 -0.7137
17698TIP3    H274586   0.612   0.910   5.227  0.9173 -0.3920 -0.0562
17699TIP3   OH274587   0.950   1.971   4.810  0.1438 -0.7989  0.0717
17699TIP3    H174588   0.911   2.008   4.730 -0.8666  1.2161  1.3944
17699TIP3    H274589   0.982   1.885   4.784 -0.4203 -0.3393 -2.4183
17700TIP3   OH274590   1.402   1.310   6.005 -0.0905  0.2453 -0.3678
17700TIP3    H174591   1.483   1.286   6.048  0.0316 -0.5007 -0.9841
17700TIP3    H274592   1.365   1.380   6.059 -0.5423 -1.4441  1.6024
17701TIP3   OH274593   0.177   2.821   3.399  0.0067  0.3156 -0.6822
17701TIP3    H174594   0.193   2.733   3.366 -2.3456 -1.4122  2.2087
17701TIP3    H274595   0.105   2.855   3.345 -0.0540 -0.1439 -0.8888
17702TIP3   OH274596   2.086   1.988   2.269  0.0253 -0.4513  0.2815
17702TIP3    H174597   2.080   1.964   2.176 -1.4204  0.0684  0.2196
17702TIP3    H274598   2.114   1.907   2.312 -1.6179 -1.3813 -0.3188
17703TIP3   OH274599   1.635   2.179  14.732 -0.1420 -0.5556 -0.3194
17703TIP3    H174600   1.681   2.128  14.799  0.2753 -0.7840 -0.7710
17703TIP3    H274601   1.702   2.235  14.694 -0.8143  1.1386  0.9015
17704TIP3   OH274602   2.597   2.072   4.958 -0.1705 -0.2164 -0.4435
17704TIP3    H174603   2.577   1.984   4.989 -1.2227  0.4344  0.8493
17704TIP3    H274604   2.538   2.129   5.008  1.4565  1.3431 -0.2035
17705TIP3   OH274605   1.009   2.749  15.181 -0.4617 -0.2153 -0.6061
17705TIP3    H174606   0.949   2.749  15.107 -2.0365  1.3420  0.6034
17705TIP3    H274607   1.030   2.841  15.195 -0.6753 -0.4182  1.2324
17706TIP3   OH274608   6.318   0.215  13.735 -0.5939  0.3153  0.4088
17706TIP3    H174609   6.278   0.256  13.811 -1.9864 -3.0386  1.6843
17706TIP3    H274610   6.243   0.187  13.681  0.3432  1.3463 -1.5284
17707TIP3   OH274611   6.431   6.415  13.803 -0.1794 -0.3793 -1.0203
17707TIP3    H174612   6.425   6.373  13.888 -1.2216 -0.6330 -1.2146
17707TIP3    H274613   6.367   6.370  13.748  0.7209 -0.4683 -2.0502
17708TIP3   OH274614   3.853   2.878  15.963 -0.1763  0.4758 -0.8558
17708TIP3    H174615   3.813   2.951  16.009 -0.0859  0.5608 -0.9100
17708TIP3    H274616   3.785   2.845  15.905  0.2786  1.5784 -2.0579
17709TIP3   OH274617   3.969   5.557  12.680  0.2203  0.6833  0.4123
17709TIP3    H174618   4.035   5.500  12.641 -0.5948  0.5983 -0.8875
17709TIP3    H274619   3.999   5.646  12.661 -0.3771  0.6427 -0.8171
17710TIP3   OH274620   3.890   2.629  11.154 -0.4648 -0.5535 -0.1893
17710TIP3    H174621   3.814   2.640  11.211 -0.3079  1.5926 -0.3014
17710TIP3    H274622   3.853   2.603  11.070 -1.2211  1.2659 -0.4700
17711TIP3   OH274623   0.329   2.920   6.344 -0.7247 -0.5575 -0.2679
17711TIP3    H174624   0.399   2.871   6.389 -1.6713  0.2210  2.2107
17711TIP3    H274625   0.371   3.001   6.315 -0.2691 -0.7221 -0.0733
17712TIP3   OH274626   2.645   4.613  13.910  0.0781 -0.5078 -0.2171
17712TIP3    H174627   2.645   4.643  13.820 -0.4836 -2.7076 -1.0200
17712TIP3    H274628   2.585   4.672  13.956 -0.1911  0.1804 -1.4344
17713TIP3   OH274629   5.868   6.758   2.377  0.0228 -0.4514 -0.1683
17713TIP3    H174630   5.905   6.670   2.389 -0.8489 -0.5900  1.8207
17713TIP3    H274631   5.890   6.804   2.458  0.6160  1.2475 -1.2542
17714TIP3   OH274632   6.827   2.547   4.864 -0.1057 -0.3693 -0.3545
17714TIP3    H174633   6.872   2.553   4.948 -1.0737 -1.2259  0.2462
17714TIP3    H274634   6.764   2.476   4.876 -1.7353  0.8988 -1.0837
17715TIP3   OH274635   4.131   3.012   2.474 -0.0571  0.0254  0.0160
17715TIP3    H174636   4.094   2.952   2.538  0.0324 -0.6135 -0.5277
17715TIP3    H274637   4.056   3.042   2.422  0.0196 -0.3048 -0.2848
17716TIP3   OH274638   0.747   2.508   0.818  0.1665  0.4233  0.2900
17716TIP3    H174639   0.662   2.486   0.858 -0.6383 -1.1446 -2.0473
17716TIP3    H274640   0.725   2.554   0.738  1.2865 -2.1808 -1.6782
17717TIP3   OH274641   0.143   6.579   2.387  0.3409  0.5208  0.4093
17717TIP3    H174642   0.183   6.494   2.370 -1.2175  0.1498 -1.9073
17717TIP3    H274643   0.066   6.559   2.440 -0.1232  0.4372 -0.2832
17718TIP3   OH274644   5.889   5.534   2.753  0.1190  0.1052 -0.9607
17718TIP3    H174645   5.970   5.491   2.726 -0.7628 -1.5311 -1.1791
17718TIP3    H274646   5.912   5.583   2.832  1.0199 -1.5887 -0.1095
17719TIP3   OH274647   6.190   3.850   3.754  0.0686  0.1726  0.5467
17719TIP3    H174648   6.239   3.928   3.730  0.0095 -0.3036 -1.3051
17719TIP3    H274649   6.123   3.880   3.815  0.4532  1.4491  0.3568
17720TIP3   OH274650   5.305   2.458   4.325  0.1344  0.1008 -0.4324
17720TIP3    H174651   5.386   2.415   4.351 -0.2572 -0.6214 -0.3773
17720TIP3    H274652   5.263   2.483   4.408  1.0785  2.0157 -0.4703
17721TIP3   OH274653   1.891   1.801   3.700  0.7115 -0.5562 -0.5227
17721TIP3    H174654   1.874   1.821   3.792 -0.4432 -0.1421 -0.8160
17721TIP3    H274655   1.981   1.768   3.700  1.4736  1.3366  0.4621
17722TIP3   OH274656   2.701   3.090   5.870  0.0493  0.1182  0.0909
17722TIP3    H174657   2.683   3.020   5.933 -1.0316  1.2412  1.1078
17722TIP3    H274658   2.774   3.139   5.908 -2.1372  2.2587  1.8646
17723TIP3   OH274659   2.011   4.198  11.100  0.4505  0.1577  0.0620
17723TIP3    H174660   1.960   4.256  11.157 -0.3019 -0.8436  0.4423
17723TIP3    H274661   2.023   4.248  11.020 -2.3472 -0.0204 -0.5974
17724TIP3   OH274662   1.674   5.036  16.578  0.6253 -0.4113  0.1178
17724TIP3    H174663   1.642   4.946  16.574  0.3746 -0.3181  0.0062
17724TIP3    H274664   1.745   5.034  16.642  0.8303 -0.7522 -0.1195
17725TIP3   OH274665   4.170   6.107   5.020  0.0724  0.3606  0.1993
17725TIP3    H174666   4.103   6.076   4.960  0.9930 -0.5167 -0.4202
17725TIP3    H274667   4.123   6.157   5.087 -1.3969 -1.7970  0.8431
17726TIP3   OH274668   1.886   6.150  16.257 -0.0620 -0.4853 -0.0132
17726TIP3    H174669   1.981   6.147  16.241 -0.0245 -2.3405  0.4049
17726TIP3    H274670   1.879   6.187  16.345  0.1658  0.9354 -0.5506
17727TIP3   OH274671   6.051   1.658  15.076  0.4308 -0.3323 -0.3583
17727TIP3    H174672   6.128   1.603  15.067  0.9175  0.4737 -1.3136
17727TIP3    H274673   6.081   1.732  15.129  0.5042  0.3038 -1.2695
17728TIP3   OH274674   0.003   2.295   0.309 -0.1714  0.3156  0.1142
17728TIP3    H174675  -0.060   2.300   0.381 -0.8700  0.5349 -0.4972
17728TIP3    H274676  -0.001   2.381   0.267 -1.0724 -0.3472 -1.2416
17729TIP3   OH274677   1.744   2.326   0.664 -0.0243  0.0020  0.0517
17729TIP3    H174678   1.733   2.349   0.756  1.3121 -2.5110  0.9357
17729TIP3    H274679   1.732   2.231   0.661  3.2379 -0.5067 -1.7168
17730TIP3   OH274680   4.479   0.721   5.582 -0.3338 -0.1592 -0.3456
17730TIP3    H174681   4.448   0.630   5.587  0.0775 -0.2437  0.7660
17730TIP3    H274682   4.470   0.755   5.671  2.0150  0.0547 -0.1192
17731TIP3   OH274683   2.558   5.112   3.319 -0.1834 -0.2426  0.6158
17731TIP3    H174684   2.477   5.082   3.361  0.5908 -2.0766  0.8717
17731TIP3    H274685   2.614   5.138   3.393 -0.1640  0.0514  0.4978
17732TIP3   OH274686   6.554   6.427  12.106  0.2647 -0.2156 -0.2492
17732TIP3    H174687   6.572   6.521  12.114  1.7835 -0.4996  0.0595
17732TIP3    H274688   6.459   6.419  12.116  0.0767  1.3208 -0.6663
17733TIP3   OH274689   3.427   2.514  15.736 -0.2027 -0.0265  0.6081
17733TIP3    H174690   3.382   2.534  15.819 -0.8373  1.9358 -0.1327
17733TIP3    H274691   3.427   2.598  15.689  0.5713 -0.9850 -1.1792
17734TIP3   OH274692   0.354   0.468   3.196  0.0042  0.0143 -0.2841
17734TIP3    H174693   0.400   0.394   3.234 -0.3120  0.4076  0.9052
17734TIP3    H274694   0.264   0.437   3.183 -0.9102  0.9711  2.8849
17735TIP3   OH274695   3.345   5.282  11.609  0.2721  0.2880  0.2640
17735TIP3    H174696   3.266   5.279  11.663 -0.1105  0.4359 -0.2823
17735TIP3    H274697   3.314   5.264  11.520  0.8366  0.4708  0.0273
17736TIP3   OH274698   6.352   0.041  16.005  0.3961 -0.6056  0.4456
17736TIP3    H174699   6.426  -0.017  15.989  0.3839 -0.9728  1.6095
17736TIP3    H274700   6.276  -0.007  15.972  0.3264 -1.4824  1.8014
17737TIP3   OH274701   3.054   0.210   4.636  0.2976  0.2231 -0.7851
17737TIP3    H174702   3.093   0.147   4.697  3.3919  1.6644 -1.0896
17737TIP3    H274703   3.070   0.171   4.549 -1.0528 -0.2097 -0.8699
17738TIP3   OH274704   2.293   3.246  14.238  0.0672  0.3193 -0.3752
17738TIP3    H174705   2.247   3.242  14.322  1.1709  0.9626  0.2880
17738TIP3    H274706   2.314   3.155  14.217  0.0452  0.1786  0.2009
17739TIP3   OH274707   4.731   4.405  13.009  0.2731  0.1233  0.1446
17739TIP3    H174708   4.772   4.347  12.945 -0.4055 -0.7496  0.4840
17739TIP3    H274709   4.685   4.346  13.068 -1.2044  1.0577 -0.0397
17740TIP3   OH274710   4.634   2.244   0.268  0.2046 -0.0394  0.7769
17740TIP3    H174711   4.581   2.213   0.342  0.1267  0.5335  0.9649
17740TIP3    H274712   4.691   2.311   0.306 -0.2175  0.6523  0.2196
17741TIP3   OH274713   0.600   1.493  15.671  0.0928 -0.1549 -0.8893
17741TIP3    H174714   0.687   1.480  15.633  0.1580  0.1531 -0.8457
17741TIP3    H274715   0.545   1.427  15.629  0.2415 -0.0364 -1.2662
17742TIP3   OH274716   5.608   3.408  12.106 -0.0334 -0.0407 -0.4282
17742TIP3    H174717   5.591   3.502  12.099  1.5909  0.4695  1.4132
17742TIP3    H274718   5.697   3.398  12.073 -0.8729 -1.3315 -2.5171
17743TIP3   OH274719   0.365   3.121  12.306 -0.2962  0.1753  0.4720
17743TIP3    H174720   0.350   3.043  12.360 -3.9285  0.4239  0.1163
17743TIP3    H274721   0.306   3.186  12.343 -0.7398  1.2811 -1.9907
17744TIP3   OH274722   5.640   6.661  14.679  0.0756 -0.4140  0.1728
17744TIP3    H174723   5.637   6.656  14.775  1.6839  0.1813  0.2868
17744TIP3    H274724   5.701   6.733  14.661  0.8165 -1.3622 -1.2871
17745TIP3   OH274725   1.244   4.229   5.986  0.1014 -0.3892  0.5357
17745TIP3    H174726   1.257   4.286   6.063  0.6911  1.0190 -0.5603
17745TIP3    H274727   1.170   4.270   5.940 -0.1076 -1.1014  0.2374
17746TIP3   OH274728   5.917   0.873   3.825  0.7146 -0.5355 -0.1376
17746TIP3    H174729   5.878   0.786   3.827 -1.1882  0.2682 -0.0348
17746TIP3    H274730   5.870   0.922   3.893  2.8690  0.1625  0.9583
17747TIP3   OH274731   4.825   4.608  15.275  0.3596 -0.1055 -0.3427
17747TIP3    H174732   4.768   4.662  15.330 -0.9428 -1.2691 -0.4860
17747TIP3    H274733   4.766   4.567  15.212  1.4883 -0.6668 -1.0661
17748TIP3   OH274734   0.482   1.498   0.656 -0.0826 -0.8481  0.4817
17748TIP3    H174735   0.528   1.417   0.630 -0.9173 -1.0556 -0.4146
17748TIP3    H274736   0.397   1.491   0.613  0.0877  0.8439 -0.1865
17749TIP3   OH274737   1.267   5.178  15.816  0.4998 -0.1649 -0.4332
17749TIP3    H174738   1.244   5.111  15.881 -1.4339  3.5171  3.0909
17749TIP3    H274739   1.212   5.158  15.741 -1.2993 -1.6097  1.1564
17750TIP3   OH274740   0.419   2.960   4.598 -0.8650 -0.0408 -0.3322
17750TIP3    H174741   0.375   2.974   4.682 -1.4622  0.4743 -0.7265
17750TIP3    H274742   0.465   2.877   4.610 -2.0831 -0.6957  0.0396
17751TIP3   OH274743   5.185   0.810   3.808  0.3333  0.0155 -0.3405
17751TIP3    H174744   5.091   0.807   3.824  0.1980 -0.8848 -1.1997
17751TIP3    H274745   5.221   0.741   3.864  0.6153  1.0163  0.7385
17752TIP3   OH274746   2.406   2.294   5.709  0.1711  0.1402 -0.9233
17752TIP3    H174747   2.405   2.199   5.724 -0.4074  0.3181  0.2849
17752TIP3    H274748   2.327   2.326   5.752  2.1201  1.6023  1.8611
17753TIP3   OH274749   3.803   4.252   5.334 -0.7258 -0.4620  0.1911
17753TIP3    H174750   3.743   4.287   5.268  2.0456  0.4600 -2.0304
17753TIP3    H274751   3.826   4.328   5.388  0.4065 -0.1688 -0.6528
17754TIP3   OH274752   1.925   4.135  14.351 -0.3350 -0.7397 -0.5727
17754TIP3    H174753   1.859   4.196  14.384  1.1536  1.2329 -1.0626
17754TIP3    H274754   1.967   4.101  14.430  0.1567  0.4433 -0.3051
17755TIP3   OH274755   2.318   3.700  13.110 -0.1724  0.1888  0.0365
17755TIP3    H174756   2.309   3.666  13.021 -0.2793 -0.2289  0.2018
17755TIP3    H274757   2.303   3.794  13.102 -0.3625  0.1264 -0.3550
17756TIP3   OH274758   1.714   0.724   3.904  0.9077 -0.6991 -0.0184
17756TIP3    H174759   1.727   0.785   3.832  0.6391 -0.9876 -0.3133
17756TIP3    H274760   1.660   0.773   3.967  1.9351 -0.1108  0.4333
17757TIP3   OH274761   2.685   5.498  12.800 -0.1840  0.0420  0.2237
17757TIP3    H174762   2.649   5.554  12.869  1.2759 -0.6210  1.5645
17757TIP3    H274763   2.771   5.536  12.781  0.1925 -0.8671  0.0910
17758TIP3   OH274764   6.592   4.930  16.057 -0.2635 -0.1460 -0.8250
17758TIP3    H174765   6.579   5.013  16.011 -0.3222  0.4334  0.1998
17758TIP3    H274766   6.551   4.943  16.142 -0.1010 -1.1688 -0.5713
17759TIP3   OH274767   6.005   2.237   2.441  0.0676  0.4742 -0.4958
17759TIP3    H174768   6.047   2.305   2.493  1.0920  1.1610 -2.1282
17759TIP3    H274769   5.921   2.223   2.483  0.1361  2.2365  0.3096
17760TIP3   OH274770   6.329   0.532  13.233 -0.3705 -0.1013  0.4698
17760TIP3    H174771   6.263   0.489  13.287  0.4256 -2.9624 -0.6696
17760TIP3    H274772   6.363   0.463  13.176 -0.3572  2.4538 -2.9482
17761TIP3   OH274773   4.731   5.998  14.643 -0.5892  0.7277 -0.1949
17761TIP3    H174774   4.707   5.906  14.647  1.4795  0.1610  0.6549
17761TIP3    H274775   4.676   6.040  14.709  0.9916 -0.6098  2.1162
17762TIP3   OH274776   2.004   5.580   4.961 -0.7369  0.2099  0.0137
17762TIP3    H174777   1.957   5.500   4.936 -0.4693  0.1344 -0.2594
17762TIP3    H274778   2.022   5.623   4.877  1.4955 -0.7859 -0.0830
17763TIP3   OH274779   2.943   1.611  13.258 -0.1065  0.0684  0.5159
17763TIP3    H174780   2.991   1.689  13.285 -1.1511  0.3028  1.8086
17763TIP3    H274781   2.869   1.644  13.208  0.5911 -0.2481 -0.7817
17764TIP3   OH274782   2.788   2.955  16.212  0.1343  0.1863 -0.2606
17764TIP3    H174783   2.821   3.039  16.244  0.3918  0.0437 -0.1486
17764TIP3    H274784   2.693   2.963  16.217  0.1712 -0.0330  1.0360
17765TIP3   OH274785   2.539   6.323  14.420  0.1665 -0.3661  0.1482
17765TIP3    H174786   2.488   6.352  14.344 -1.4688 -1.0881  0.9185
17765TIP3    H274787   2.584   6.244  14.389  0.4961  0.0463 -0.4290
17766TIP3   OH274788   4.148   3.583  13.941  0.6439 -0.0531 -0.1492
17766TIP3    H174789   4.191   3.534  13.871 -0.3280  0.3233 -1.0324
17766TIP3    H274790   4.152   3.675  13.912 -1.4976 -0.0883 -0.7022
17767TIP3   OH274791   3.475   4.770  10.995 -0.2485 -0.3800 -0.5747
17767TIP3    H174792   3.424   4.797  11.072 -0.2003 -0.5043 -0.4984
17767TIP3    H274793   3.444   4.681  10.976 -1.9074  0.4660 -2.0807
17768TIP3   OH274794   3.175   4.168   2.093  0.2495 -0.0751  0.2921
17768TIP3    H174795   3.223   4.154   2.174 -0.6323 -1.7597  0.5634
17768TIP3    H274796   3.084   4.176   2.120 -0.5248 -3.8323 -0.6599
17769TIP3   OH274797   4.473   0.911   2.418 -0.2832 -0.1681  0.0807
17769TIP3    H174798   4.533   0.850   2.462  3.9992  1.8429 -2.3277
17769TIP3    H274799   4.416   0.855   2.366  1.2697 -2.2112  0.4351
17770TIP3   OH274800   1.423   0.025  13.224 -0.2699 -0.2306 -0.4446
17770TIP3    H174801   1.510   0.032  13.184 -0.1179  1.1688  0.0791
17770TIP3    H274802   1.441  -0.006  13.313 -0.3279 -0.1498 -0.4045
17771TIP3   OH274803   1.042   0.528  14.627 -0.0702 -0.2007 -0.0965
17771TIP3    H174804   1.122   0.581  14.631 -0.9566  1.2194 -0.3659
17771TIP3    H274805   1.072   0.440  14.604  1.4410  0.2130  0.1759
17772TIP3   OH274806   5.789   3.334   3.794 -0.4065  0.8246  0.2425
17772TIP3    H174807   5.761   3.408   3.741 -0.3735 -0.0731 -1.0856
17772TIP3    H274808   5.710   3.305   3.839 -0.5896  1.1711  0.1475
17773TIP3   OH274809   3.382   4.709  16.035 -0.3804  0.6429 -0.1604
17773TIP3    H174810   3.427   4.625  16.022  0.4162  0.9209  0.6713
17773TIP3    H274811   3.289   4.687  16.031 -0.1843 -0.3155  0.1769
17774TIP3   OH274812   6.373   2.266  15.052 -0.2360  0.0215 -0.8691
17774TIP3    H174813   6.416   2.183  15.069 -1.5629 -1.0394 -2.4542
17774TIP3    H274814   6.393   2.286  14.961  0.1043  1.4866 -0.5065
17775TIP3   OH274815   0.621   5.563  16.988 -0.9805  0.9660  0.0251
17775TIP3    H174816   0.715   5.574  16.976 -0.6135 -2.7633 -2.0066
17775TIP3    H274817   0.582   5.601  16.909 -0.8417 -0.2435 -0.6523
17776TIP3   OH274818   2.909   2.753   2.074 -0.3901 -0.1018  0.0756
17776TIP3    H174819   2.936   2.822   2.013 -1.3249  0.1065 -0.1121
17776TIP3    H274820   2.950   2.674   2.041 -1.4103 -0.1133 -1.1989
17777TIP3   OH274821   3.475   6.495   1.575 -0.0302 -0.5319  0.1959
17777TIP3    H174822   3.493   6.537   1.659  1.5400  0.8377 -0.7752
17777TIP3    H274823   3.427   6.415   1.598 -0.9710  0.5560  2.2733
17778TIP3   OH274824   4.803   6.772   1.896 -0.7474 -0.1192 -0.3218
17778TIP3    H174825   4.756   6.716   1.958  0.7991 -0.1164  0.9099
17778TIP3    H274826   4.792   6.860   1.931  0.4269 -0.1566  0.1828
17779TIP3   OH274827   5.769   6.205  13.878  0.0864 -0.0321 -0.2192
17779TIP3    H174828   5.760   6.138  13.810 -0.6876 -1.6278  1.3512
17779TIP3    H274829   5.864   6.213  13.891  0.2621  0.5259 -1.6442
17780TIP3   OH274830   3.885   3.814   4.014 -0.5528  0.1435  1.3960
17780TIP3    H174831   3.817   3.748   3.995 -1.7592  1.2964  1.5282
17780TIP3    H274832   3.964   3.779   3.974 -1.8117 -0.0039 -1.1839
17781TIP3   OH274833   3.608   3.164  10.837 -0.8372  0.0400 -0.3358
17781TIP3    H174834   3.522   3.129  10.813 -1.0574  1.6729 -2.1962
17781TIP3    H274835   3.641   3.103  10.903 -3.5776 -0.4062  0.7469
17782TIP3   OH274836   5.441   6.789  14.509 -0.2336 -0.9738  0.4198
17782TIP3    H174837   5.466   6.717  14.567 -2.6799 -2.3320 -0.0723
17782TIP3    H274838   5.496   6.777  14.432 -0.2493 -2.0149  0.5575
17783TIP3   OH274839   6.719   2.667   3.544  0.1212 -0.2110 -1.3752
17783TIP3    H174840   6.706   2.709   3.629 -1.5340 -0.7582 -1.3165
17783TIP3    H274841   6.813   2.677   3.526  0.5133 -0.1056  0.5162
17784TIP3   OH274842   5.117   2.971  13.494  0.5883  0.4690 -0.5612
17784TIP3    H174843   5.158   3.031  13.556 -1.7001  2.0443 -0.4681
17784TIP3    H274844   5.075   3.028  13.429 -0.7847 -1.0409 -1.0682
17785TIP3   OH274845   0.130   5.246   4.079  0.3148 -0.3216  0.3496
17785TIP3    H174846   0.050   5.293   4.053  0.9251  0.4785 -0.1211
17785TIP3    H274847   0.201   5.304   4.054  1.0212 -0.2487  2.3210
17786TIP3   OH274848   6.624   5.826  14.308 -0.4647 -0.1329 -0.3900
17786TIP3    H174849   6.562   5.856  14.374 -1.5418 -0.0676 -1.3988
17786TIP3    H274850   6.575   5.763  14.256  0.2006  0.1868 -1.4331
17787TIP3   OH274851   1.763   0.987  15.725 -0.0077  0.0252 -0.1433
17787TIP3    H174852   1.731   0.992  15.634 -0.4736  0.9171  0.0589
17787TIP3    H274853   1.706   0.921  15.766 -0.9264  0.8407 -0.0658
17788TIP3   OH274854   6.260   3.747  14.681  0.0754  0.1158  0.3160
17788TIP3    H174855   6.282   3.669  14.732 -0.6973 -0.8972 -0.8422
17788TIP3    H274856   6.190   3.789  14.730  0.3077 -0.0670  0.8096
17789TIP3   OH274857   1.302   4.177   3.760 -0.2600  0.9993 -0.1241
17789TIP3    H174858   1.242   4.220   3.700 -0.3492  1.1167  0.0470
17789TIP3    H274859   1.374   4.239   3.771  0.2754  0.5408 -0.9286
17790TIP3   OH274860   4.186   0.456   0.642 -0.2097 -0.4885 -0.3256
17790TIP3    H174861   4.223   0.392   0.704  0.4025  0.8694  0.7640
17790TIP3    H274862   4.167   0.533   0.695 -1.8062 -0.0657 -1.4451
17791TIP3   OH274863   4.194   0.313  15.232 -0.0868 -0.3309 -0.0745
17791TIP3    H174864   4.137   0.390  15.226  0.5199  0.1558  0.2698
17791TIP3    H274865   4.279   0.343  15.201  0.2312 -0.7801  0.3392
17792TIP3   OH274866   2.817   3.930  15.993 -0.2896  0.5345  0.6904
17792TIP3    H174867   2.787   4.012  15.954 -0.6759 -0.3726 -0.9826
17792TIP3    H274868   2.892   3.904  15.940 -0.1420 -0.1738  1.2327
17793TIP3   OH274869   3.196   5.991  15.900  0.4176 -0.2111  0.2519
17793TIP3    H174870   3.106   5.981  15.868  0.7534  0.4645 -0.9567
17793TIP3    H274871   3.241   6.039  15.830  1.7286 -0.5747  0.8240
17794TIP3   OH274872   5.240   6.639   0.855  0.3637  0.7197 -0.2946
17794TIP3    H174873   5.232   6.730   0.884  1.1619  0.6045  0.3154
17794TIP3    H274874   5.314   6.604   0.905  1.6854  0.4380 -2.3266
17795TIP3   OH274875   3.929   4.009  12.880  0.8188  0.4996  0.0051
17795TIP3    H174876   3.937   3.917  12.902  2.3543  0.7211  0.5161
17795TIP3    H274877   3.856   4.041  12.934  2.1111  0.1926  2.0643
17796TIP3   OH274878   3.977   5.840  11.078 -0.5210 -0.5108  0.7323
17796TIP3    H174879   3.901   5.829  11.021 -0.8475  1.4230  0.7401
17796TIP3    H274880   4.016   5.923  11.051  0.4853 -0.5412  1.9880
17797TIP3   OH274881   5.618   2.535   4.867  0.2979 -0.3570  0.2531
17797TIP3    H174882   5.621   2.581   4.951 -1.5093  0.3329  0.0018
17797TIP3    H274883   5.548   2.470   4.878  1.9138 -2.1810  0.1536
17798TIP3   OH274884   1.147   1.427   1.511 -0.3316  0.1316 -0.4762
17798TIP3    H174885   1.194   1.505   1.481 -1.2325  0.6045 -0.6908
17798TIP3    H274886   1.154   1.365   1.438 -0.5885  0.4377 -0.7625
17799TIP3   OH274887   0.794   6.164  11.315  0.4984  0.2427  0.0260
17799TIP3    H174888   0.854   6.125  11.379  1.6853 -0.3306 -1.3800
17799TIP3    H274889   0.711   6.118  11.328  0.6837  0.1991  1.1930
17800TIP3   OH274890   2.617   0.005  17.156  0.2028  0.6522  0.2057
17800TIP3    H174891   2.652   0.027  17.242 -1.2400  1.3047  0.6558
17800TIP3    H274892   2.549  -0.061  17.173 -0.5792  1.2961 -0.3496
17801TIP3   OH274893   2.880   0.596   1.847 -0.1381 -0.4388 -0.5993
17801TIP3    H174894   2.953   0.537   1.829 -0.5866 -1.4822  0.8059
17801TIP3    H274895   2.802   0.541   1.836 -0.5490 -0.2790  1.1702
17802TIP3   OH274896   2.389   1.791  13.705 -0.3833  0.2016 -0.1010
17802TIP3    H174897   2.350   1.718  13.753 -0.8262  0.1427 -0.5464
17802TIP3    H274898   2.319   1.822  13.647 -0.2125  0.9970  0.1011
17803TIP3   OH274899   1.714   6.747   2.714 -0.3002 -0.0651  0.1169
17803TIP3    H174900   1.769   6.771   2.639 -0.0396  2.1523  0.9169
17803TIP3    H274901   1.776   6.734   2.785 -0.6530 -0.3265  0.3764
17804TIP3   OH274902   0.153   3.170   3.660 -0.4264  0.7934 -0.1709
17804TIP3    H174903   0.226   3.109   3.669 -0.6591  0.1466 -2.0901
17804TIP3    H274904   0.087   3.137   3.720  0.1013  0.1559  0.0750
17805TIP3   OH274905   4.440   5.672   3.939  0.6051  0.4745  0.2294
17805TIP3    H174906   4.529   5.637   3.949  0.1394 -0.3083  1.9656
17805TIP3    H274907   4.423   5.667   3.845  1.4600 -1.7375  0.1254
17806TIP3   OH274908   0.522   5.530  12.008  0.2868  0.0705  0.4349
17806TIP3    H174909   0.473   5.458  12.047 -1.4556  0.6999 -0.4864
17806TIP3    H274910   0.497   5.529  11.915  0.9991  1.2545  0.2052
17807TIP3   OH274911   2.106   0.340  12.258 -0.2581 -0.0336  0.1195
17807TIP3    H174912   2.186   0.288  12.253 -1.9119 -2.7076 -0.4943
17807TIP3    H274913   2.084   0.360  12.167 -0.7381 -0.0795  0.2223
17808TIP3   OH274914   6.567   2.260   1.425 -0.3358  0.0221  0.0913
17808TIP3    H174915   6.511   2.190   1.393  1.7386 -1.7178  0.0344
17808TIP3    H274916   6.603   2.227   1.507  2.3002  0.0432 -0.9511
17809TIP3   OH274917   2.553   1.396  14.698  0.2547 -0.4311  0.2494
17809TIP3    H174918   2.482   1.448  14.662  0.3270 -0.4841  0.0255
17809TIP3    H274919   2.509   1.327  14.748  0.1655  0.7643  1.9132
17810TIP3   OH274920   2.777   3.621  10.861  0.2646 -0.2516  0.0151
17810TIP3    H174921   2.813   3.696  10.812  1.4485 -0.3125  0.7541
17810TIP3    H274922   2.684   3.620  10.837 -0.2931  2.7007  1.4804
17811TIP3   OH274923   6.430   2.563   1.174  0.1809 -0.0933  0.3968
17811TIP3    H174924   6.408   2.548   1.266 -1.2967  0.7960  0.2113
17811TIP3    H274925   6.353   2.606   1.137  1.6674  1.8601 -0.6492
17812TIP3   OH274926   2.531   5.788   5.835 -0.5127 -0.0927  0.3240
17812TIP3    H174927   2.577   5.714   5.874 -1.0666 -1.1610 -0.9529
17812TIP3    H274928   2.505   5.843   5.909  1.8216 -0.0151  1.1441
17813TIP3   OH274929   1.753   6.355  11.785  0.3535  0.5807  0.2374
17813TIP3    H174930   1.836   6.384  11.747  0.8705 -0.1944  0.7514
17813TIP3    H274931   1.753   6.260  11.771  0.1629  0.3986  1.4201
17814TIP3   OH274932   6.772   3.018  15.291 -0.1432 -0.0750 -0.0293
17814TIP3    H174933   6.712   2.956  15.331  0.0784  0.1048  0.5877
17814TIP3    H274934   6.716   3.092  15.265 -0.4694 -0.6926 -1.1306
17815TIP3   OH274935   6.783   5.674  11.022 -0.3806  0.0714 -0.3308
17815TIP3    H174936   6.729   5.598  10.998  0.9328 -0.9682 -0.1213
17815TIP3    H274937   6.719   5.743  11.041 -1.7589 -1.6211  1.7302
17816TIP3   OH274938   2.367   2.109  16.176 -0.1010 -0.3400 -0.4333
17816TIP3    H174939   2.438   2.068  16.225  1.1992  1.7264 -0.4660
17816TIP3    H274940   2.411   2.156  16.105 -1.4411  1.2300 -0.2946
17817TIP3   OH274941   6.817   1.146  14.643 -0.0406 -0.4226  0.3315
17817TIP3    H174942   6.867   1.209  14.695 -0.2780  0.5460 -0.5760
17817TIP3    H274943   6.865   1.138  14.561 -0.6237 -0.5438 -0.0054
17818TIP3   OH274944   4.902   1.031  11.768 -0.2246  0.2352  0.2653
17818TIP3    H174945   4.921   1.074  11.685  0.1288 -0.1143  0.1599
17818TIP3    H274946   4.854   0.952  11.743 -0.8914  0.5690  0.4599
17819TIP3   OH274947   3.171   5.810   2.592  0.6859  0.2640  0.1546
17819TIP3    H174948   3.213   5.887   2.552  1.3436 -0.3058 -0.2797
17819TIP3    H274949   3.121   5.845   2.665 -1.6452  1.5564 -1.8881
17820TIP3   OH274950   1.397   5.252   4.389  0.1229 -0.1087 -0.2693
17820TIP3    H174951   1.487   5.270   4.364  0.1970 -2.3751 -1.9366
17820TIP3    H274952   1.404   5.179   4.451 -0.5604 -0.7868 -0.9642
17821TIP3   OH274953   4.275   5.108  14.082  0.3995  0.4847  0.2141
17821TIP3    H174954   4.359   5.064  14.075  0.3789  0.5842 -0.7503
17821TIP3    H274955   4.216   5.058  14.025 -0.2382  0.3383  0.9701
17822TIP3   OH274956   0.841   1.158   6.560  0.8081  0.3123  0.2174
17822TIP3    H174957   0.916   1.172   6.502  2.4520 -0.6899  1.9861
17822TIP3    H274958   0.876   1.172   6.648 -0.8471 -1.0813  1.1517
17823TIP3   OH274959   1.210   6.029  16.229 -0.6814  0.0073  0.3214
17823TIP3    H174960   1.252   6.087  16.293  1.4713 -2.5472  1.3995
17823TIP3    H274961   1.170   6.089  16.166  0.4970  2.6468  1.8941
17824TIP3   OH274962   2.899   5.842  12.002  0.7899  0.6434 -0.3389
17824TIP3    H174963   2.920   5.903  11.932 -1.7384  0.1791 -1.5735
17824TIP3    H274964   2.849   5.894  12.065 -1.1158 -0.0020 -1.2532
17825TIP3   OH274965   0.633   3.477   4.215 -0.3460  0.6201  0.5447
17825TIP3    H174966   0.643   3.543   4.147  1.7170 -0.4903 -0.3343
17825TIP3    H274967   0.547   3.438   4.198 -0.2109  0.9067 -0.9487
17826TIP3   OH274968   1.030   6.690  14.723 -0.2853 -0.0919  0.0889
17826TIP3    H174969   1.049   6.748  14.650 -0.7327  0.5290  0.4617
17826TIP3    H274970   0.989   6.746  14.789 -2.9810 -1.2708 -0.4757
17827TIP3   OH274971   0.477   3.894  15.081  0.2620 -0.4691 -0.3096
17827TIP3    H174972   0.553   3.898  15.024  1.1474 -2.0307  0.6955
17827TIP3    H274973   0.449   3.986  15.091  1.9653  0.1240 -0.7330
17828TIP3   OH274974   6.254   2.672  13.873  0.7456 -0.1621  0.0910
17828TIP3    H174975   6.246   2.622  13.954 -0.0755 -0.8164 -0.3801
17828TIP3    H274976   6.169   2.714  13.861  0.2926 -1.3927 -1.2649
17829TIP3   OH274977   3.066   4.517   6.255  0.0492  0.6314  0.1074
17829TIP3    H174978   3.103   4.578   6.319 -1.9776  1.5253  0.5250
17829TIP3    H274979   2.975   4.546   6.245 -0.0225 -0.1879 -2.3372
17830TIP3   OH274980   1.724   2.476  11.112 -0.1132 -0.3167  0.0209
17830TIP3    H174981   1.811   2.445  11.086  0.0611  0.1979 -0.0307
17830TIP3    H274982   1.667   2.400  11.100  0.2279 -0.5012 -0.4824
17831TIP3   OH274983   5.506   0.380  14.959 -0.4261  0.1720  0.7486
17831TIP3    H174984   5.423   0.331  14.963 -1.5289  1.9162  0.4505
17831TIP3    H274985   5.484   0.467  14.993  0.7356  1.3756 -1.3545
17832TIP3   OH274986   5.856   0.296   0.389  0.1271  0.0757  0.5760
17832TIP3    H174987   5.773   0.337   0.414  0.5173  0.9158  0.4949
17832TIP3    H274988   5.877   0.238   0.463 -1.0405 -0.9470  0.1580
17833TIP3   OH274989   3.621   5.299   6.082 -0.0639 -0.0831  0.4839
17833TIP3    H174990   3.712   5.316   6.057  0.0314  0.2029  1.0282
17833TIP3    H274991   3.595   5.376   6.132 -0.7455  0.0314 -0.0339
17834TIP3   OH274992   0.113   3.894  15.275 -0.0471 -0.2059 -0.1246
17834TIP3    H174993   0.133   3.852  15.192 -0.9734 -0.8391 -0.0439
17834TIP3    H274994   0.164   3.846  15.340  1.6854  1.0958 -0.4404
17835TIP3   OH274995   0.686   2.748   0.211 -0.0456 -0.4109 -0.1558
17835TIP3    H174996   0.671   2.826   0.157 -0.8620 -0.6133 -0.2434
17835TIP3    H274997   0.635   2.765   0.291  0.2999 -0.5769  0.1018
17836TIP3   OH274998   6.278   2.520  15.865 -0.3460  0.2235  0.8937
17836TIP3    H174999   6.353   2.570  15.899 -0.4280  1.8698 -1.1672
17836TIP3    H275000   6.223   2.585  15.824 -1.6543 -1.3165  0.1194
17837TIP3   OH275001   5.391   4.787  17.101 -0.2254  0.7348 -0.3890
17837TIP3    H175002   5.324   4.763  17.037  0.6536 -1.0507 -0.7031
17837TIP3    H275003   5.360   4.869  17.139 -1.4680  1.1105 -2.0949
17838TIP3   OH275004   1.827   2.720   1.647  0.4871 -0.2728  0.2332
17838TIP3    H175005   1.903   2.666   1.624  0.9397 -0.3602  1.7983
17838TIP3    H275006   1.821   2.784   1.576  2.4098  0.0993  0.3512
17839TIP3   OH275007   1.354   2.652   5.136  0.1679 -0.1641 -0.1579
17839TIP3    H175008   1.374   2.711   5.063  0.1513  1.2035  0.9122
17839TIP3    H275009   1.289   2.699   5.188  2.1753  0.1704  2.2488
17840TIP3   OH275010   1.049   5.947   6.552 -0.2041 -0.4845  0.5068
17840TIP3    H175011   0.959   5.974   6.533  0.1467  0.6079  0.3220
17840TIP3    H275012   1.041   5.856   6.580 -1.2093 -0.8547 -0.8663
17841TIP3   OH275013   0.439   5.922  15.437 -0.2686  0.2148 -0.5434
17841TIP3    H175014   0.444   5.953  15.528 -1.8544 -0.1574 -0.2903
17841TIP3    H275015   0.498   5.979  15.389  0.6464  0.3859  0.7315
17842TIP3   OH275016   4.334   3.515   3.700  0.0177 -0.3835  0.6991
17842TIP3    H175017   4.406   3.577   3.713  0.6718 -0.8096 -0.6701
17842TIP3    H275018   4.299   3.536   3.614 -0.6229 -1.0522  0.7857
17843TIP3   OH275019   2.768   1.623   4.323  0.5626 -0.0639  0.0738
17843TIP3    H175020   2.769   1.527   4.328 -1.0488 -0.2302 -1.5979
17843TIP3    H275021   2.778   1.642   4.230 -1.2535  1.2773  0.1100
17844TIP3   OH275022   5.697   0.392   4.932 -0.0157 -0.4305  0.0749
17844TIP3    H175023   5.788   0.370   4.910 -0.4966 -1.3676 -1.0734
17844TIP3    H275024   5.645   0.322   4.893 -1.1569 -0.6683  1.9174
17845TIP3   OH275025   3.472   6.005  13.963  0.3372  0.1524 -0.3984
17845TIP3    H175026   3.527   6.043  13.894  0.8042 -0.2352 -0.2431
17845TIP3    H275027   3.432   5.928  13.924  0.3944  0.0815 -0.3182
17846TIP3   OH275028   4.305   0.579   3.937 -0.1400  0.3642 -0.2611
17846TIP3    H175029   4.314   0.625   4.020  1.4251  0.9464 -0.7259
17846TIP3    H275030   4.232   0.518   3.951 -0.5691  1.1693  1.1882
17847TIP3   OH275031   2.247   3.870  12.469 -0.1609 -0.1524 -0.2954
17847TIP3    H175032   2.272   3.779  12.485  1.3705  0.7453  3.4623
17847TIP3    H275033   2.328   3.911  12.437 -0.5801  0.1190 -1.0286
17848TIP3   OH275034   0.378   5.496   5.015  0.2810  0.2265 -0.4128
17848TIP3    H175035   0.364   5.404   4.990  1.0454  0.1269 -0.4890
17848TIP3    H275036   0.290   5.529   5.033 -0.0965 -0.2758 -1.2436
17849TIP3   OH275037   3.016   2.495   5.943 -0.1950 -0.1593  0.4137
17849TIP3    H175038   3.083   2.497   5.874 -1.6187  1.3356 -1.0290
17849TIP3    H275039   3.060   2.531   6.020  0.5233  1.4396 -0.6874
17850TIP3   OH275040   5.134   0.299  11.516 -0.1054 -0.0949 -0.4058
17850TIP3    H175041   5.199   0.347  11.465  0.2211  1.3464  1.2828
17850TIP3    H275042   5.184   0.259  11.587 -1.1161  2.2705  1.8088
17851TIP3   OH275043   4.864   5.678  14.175 -0.0103 -0.2677  0.3172
17851TIP3    H175044   4.881   5.771  14.187 -0.8462 -0.1765  0.8487
17851TIP3    H275045   4.775   5.674  14.140  0.5051 -0.8073 -1.0332
17852TIP3   OH275046   0.805   1.678   2.386 -0.0506  0.3309  0.1340
17852TIP3    H175047   0.765   1.655   2.302 -0.1740 -0.6974  0.4536
17852TIP3    H275048   0.882   1.729   2.363  0.5992 -0.9578 -0.6899
17853TIP3   OH275049   5.561   3.535  15.999 -0.3692  0.5192  0.0931
17853TIP3    H175050   5.621   3.468  16.032  0.1698  0.7170 -0.4461
17853TIP3    H275051   5.503   3.488  15.939 -0.1135  0.4951 -0.1391
17854TIP3   OH275052   3.997   4.720  14.460 -0.1490  0.0443 -0.1495
17854TIP3    H175053   3.933   4.686  14.524 -0.9697  0.0922 -0.9261
17854TIP3    H275054   3.993   4.658  14.387  0.5485  0.1701 -0.2992
17855TIP3   OH275055   5.558   0.403  11.569  0.4139 -0.1475  0.0085
17855TIP3    H175056   5.633   0.355  11.534 -1.0028 -1.3961 -1.4539
17855TIP3    H275057   5.597   0.479  11.613  2.4283  0.2006 -2.1879
17856TIP3   OH275058   4.510   4.516   1.309 -1.0366 -0.0410  0.2056
17856TIP3    H175059   4.481   4.425   1.317  0.3717 -0.5739 -0.3682
17856TIP3    H275060   4.443   4.567   1.355 -2.2295 -1.2880 -0.0957
17857TIP3   OH275061   0.853   6.542   4.011 -0.1472  0.1430 -0.4600
17857TIP3    H175062   0.772   6.537   3.960 -0.4380 -0.9406  0.0844
17857TIP3    H275063   0.831   6.598   4.086 -0.6127 -0.6871  0.0425
17858TIP3   OH275064   4.899   6.423   4.840 -0.1337  0.5211  0.2669
17858TIP3    H175065   4.896   6.401   4.748  0.3869  1.5240 -0.0056
17858TIP3    H275066   4.822   6.380   4.878 -0.5091  0.3431 -0.6868
17859TIP3   OH275067   5.146   4.370   5.941  0.4417  0.1795  0.1380
17859TIP3    H175068   5.156   4.278   5.967  0.7825  0.1937  0.0579
17859TIP3    H275069   5.090   4.367   5.864  1.2533 -0.0469 -0.4618
17860TIP3   OH275070   2.723   4.394   2.031  0.1711  0.3367  0.0538
17860TIP3    H175071   2.779   4.374   2.106  0.7712  1.0066 -0.2037
17860TIP3    H275072   2.780   4.441   1.970 -0.1787 -0.6018 -1.0395
17861TIP3   OH275073   1.573   6.420  16.527  0.7107 -0.1918  0.0095
17861TIP3    H175074   1.652   6.426  16.473 -0.3607 -1.3288 -1.7805
17861TIP3    H275075   1.566   6.327  16.548 -0.3161 -0.1512 -0.1268
17862TIP3   OH275076   1.009   1.187  16.504  0.1007  0.4102 -0.0070
17862TIP3    H175077   0.954   1.109  16.508  2.7895 -1.7732 -1.6285
17862TIP3    H275078   1.006   1.223  16.592 -3.4440  0.1830  0.0747
17863TIP3   OH275079   0.135   3.760   5.312 -0.2098  0.0663  0.0237
17863TIP3    H175080   0.153   3.744   5.219  0.0031  2.9339 -0.5376
17863TIP3    H275081   0.088   3.682   5.342 -0.6888 -0.7518 -2.6144
17864TIP3   OH275082   2.874   1.364  13.557 -0.4298  0.5085 -0.0711
17864TIP3    H175083   2.900   1.422  13.629 -0.1122  0.4422 -0.1274
17864TIP3    H275084   2.792   1.400  13.524  0.8554  2.2591 -1.5631
17865TIP3   OH275085   3.082   4.575   3.197 -0.2646 -0.9300  0.3774
17865TIP3    H175086   3.051   4.485   3.190 -1.7765 -0.3781 -0.7867
17865TIP3    H275087   3.152   4.572   3.261 -0.8301 -2.7885  0.9685
17866TIP3   OH275088   3.351   5.163  10.992  0.7027 -0.4091  0.2049
17866TIP3    H175089   3.267   5.133  11.025  0.7541 -0.2829  0.4548
17866TIP3    H275090   3.332   5.196  10.904  0.1306  1.3333  0.9291
17867TIP3   OH275091   1.115   5.712   5.168 -0.0063 -0.6742  0.4305
17867TIP3    H175092   1.184   5.778   5.174  1.1326 -1.7862 -0.0691
17867TIP3    H275093   1.036   5.758   5.196  0.6696  1.0122 -0.2789
17868TIP3   OH275094   3.786   0.644  11.952  0.0815 -0.1840  0.3422
17868TIP3    H175095   3.811   0.643  11.859 -2.0784  1.7987 -0.3778
17868TIP3    H275096   3.751   0.557  11.968 -0.4548 -0.2493 -1.0158
17869TIP3   OH275097   1.373   6.310   3.308 -0.1768 -0.5856 -0.0991
17869TIP3    H175098   1.424   6.237   3.344  1.2869 -0.5627 -2.0123
17869TIP3    H275099   1.415   6.388   3.343 -0.6178 -0.6023  0.4896
17870TIP3   OH275100   5.925   1.319  15.665  0.1299 -0.0310  0.7342
17870TIP3    H175101   5.923   1.234  15.620 -0.5713  0.5146 -0.3059
17870TIP3    H275102   5.835   1.335  15.690 -0.0195  1.0494 -0.3667
17871TIP3   OH275103   4.073   6.235  13.176  0.9843  0.2924  0.0540
17871TIP3    H175104   4.100   6.300  13.241 -2.4192  0.9413  1.0060
17871TIP3    H275105   4.027   6.168  13.226  1.6632 -1.2448 -1.2899
17872TIP3   OH275106   0.172   3.595   0.968 -0.2739  0.0628  0.2517
17872TIP3    H175107   0.131   3.508   0.969  3.2482 -1.8726 -2.2169
17872TIP3    H275108   0.140   3.636   0.888 -0.4573  0.2893  0.4365
17873TIP3   OH275109   2.487   1.810   6.323  0.7210 -0.0678  0.4815
17873TIP3    H175110   2.436   1.878   6.279  0.4775 -1.2708 -1.1944
17873TIP3    H275111   2.426   1.770   6.385  0.9124  1.2855  1.6123
17874TIP3   OH275112   4.894   2.783   4.484  0.0624 -0.5015  0.0982
17874TIP3    H175113   4.930   2.844   4.549 -0.6571  0.5159 -0.4192
17874TIP3    H275114   4.804   2.767   4.514 -0.2910  0.0226 -0.6692
17875TIP3   OH275115   5.426   6.137  16.834 -0.3709  0.1347  0.4650
17875TIP3    H175116   5.383   6.074  16.777 -1.6824 -0.1316  1.7002
17875TIP3    H275117   5.518   6.109  16.837 -0.4584 -0.3431 -0.8035
17876TIP3   OH275118   5.694   2.509  16.017 -0.4766  0.1790  0.0597
17876TIP3    H175119   5.727   2.423  16.043  1.1538  0.8380  0.3115
17876TIP3    H275120   5.720   2.567  16.088  0.8199  1.3547 -1.3119
17877TIP3   OH275121   1.320   2.767  12.247  0.5763  0.7757  0.0938
17877TIP3    H175122   1.410   2.751  12.277  0.7784 -1.6481 -1.5775
17877TIP3    H275123   1.326   2.847  12.194  1.9716  0.1281 -0.7790
17878TIP3   OH275124   4.373   2.508   3.635 -0.2489  0.2278  0.7411
17878TIP3    H175125   4.468   2.511   3.647 -0.1726 -0.0179  0.2421
17878TIP3    H275126   4.340   2.586   3.680  0.0553 -0.3651  2.0484
17879TIP3   OH275127   2.348   3.632  16.339 -0.1267 -0.2807 -0.0559
17879TIP3    H175128   2.328   3.543  16.368  0.5759 -0.5601 -0.4111
17879TIP3    H275129   2.424   3.658  16.392  0.5040 -0.4005 -0.8734
17880TIP3   OH275130   0.328   2.953   0.484 -0.1420 -0.2377  0.1348
17880TIP3    H175131   0.285   2.869   0.503 -0.3346  0.0907  1.2168
17880TIP3    H275132   0.258   3.017   0.490  0.0414  0.0225 -0.5152
17881TIP3   OH275133   6.299   5.748   5.963 -0.1027  0.1024  0.2370
17881TIP3    H175134   6.247   5.681   5.918  0.0891 -0.8761  1.4114
17881TIP3    H275135   6.252   5.764   6.045 -0.4889  1.9090 -0.3028
17882TIP3   OH275136   5.826   5.644   0.619 -0.3845 -0.0671  0.3449
17882TIP3    H175137   5.902   5.590   0.641  0.2775  1.1659  1.2160
17882TIP3    H275138   5.861   5.732   0.609 -1.7311  0.5758  1.0131
17883TIP3   OH275139   3.412   0.377  16.173  0.2464  0.2773 -0.2993
17883TIP3    H175140   3.446   0.431  16.101 -1.7927 -0.5423 -1.9772
17883TIP3    H275141   3.449   0.290  16.157 -1.4137 -0.2825 -1.3337
17884TIP3   OH275142   5.421   1.461   1.226 -0.1523  0.1490  0.6116
17884TIP3    H175143   5.382   1.396   1.168  0.9818  0.7828 -0.9396
17884TIP3    H275144   5.354   1.529   1.235 -0.2447  0.1754 -0.2047
17885TIP3   OH275145   3.315   6.496   0.746  0.4375 -0.1011  0.3625
17885TIP3    H175146   3.279   6.581   0.718 -0.5888 -0.5323  0.3306
17885TIP3    H275147   3.396   6.518   0.791  0.3020  0.8836  0.1520
17886TIP3   OH275148   0.839   3.412  13.723 -0.0521  0.7820 -0.4434
17886TIP3    H175149   0.861   3.414  13.630 -0.0747 -0.5008 -0.4875
17886TIP3    H275150   0.915   3.374  13.766 -0.4885  0.3139 -0.0701
17887TIP3   OH275151   4.949   1.152  11.532  0.2450 -0.0268 -0.6146
17887TIP3    H175152   5.007   1.132  11.458 -0.7437  1.6739 -1.9151
17887TIP3    H275153   4.923   1.243  11.518 -0.4031  0.1676  1.5601
17888TIP3   OH275154   2.938   1.244   1.710 -0.0945 -0.1051  0.0594
17888TIP3    H175155   3.027   1.217   1.729  0.7893  0.9697 -2.2263
17888TIP3    H275156   2.885   1.165   1.725  1.9413 -2.3625 -3.3078
17889TIP3   OH275157   4.528   2.533   1.342 -0.3285  0.6982  0.0101
17889TIP3    H175158   4.474   2.459   1.368  1.2634 -0.5380 -0.1170
17889TIP3    H275159   4.497   2.605   1.397 -0.3404 -0.6269  1.8272
17890TIP3   OH275160   6.001   0.930   2.439  0.2209 -0.4243 -0.2878
17890TIP3    H175161   6.032   0.963   2.355 -0.9977  0.7363 -0.3362
17890TIP3    H275162   5.906   0.941   2.435 -0.0901 -2.4362  0.3979
17891TIP3   OH275163   3.728   6.305  16.490 -0.0097  0.3184 -0.0608
17891TIP3    H175164   3.643   6.284  16.453 -0.2082  0.1763  0.4714
17891TIP3    H275165   3.711   6.374  16.555  0.0529 -0.6870  1.0734
17892TIP3   OH275166   1.261   5.924   1.877 -0.0355 -0.1056 -0.7369
17892TIP3    H175167   1.341   5.877   1.854  1.2230  2.2555 -1.5045
17892TIP3    H275168   1.287   5.980   1.950 -0.5835  1.6853 -1.8733
17893TIP3   OH275169   3.753   1.146   4.536 -0.1998  0.0037  0.0796
17893TIP3    H175170   3.678   1.149   4.595 -1.2119  1.7304 -1.1814
17893TIP3    H275171   3.751   1.058   4.498 -0.0311 -0.8393  1.9211
17894TIP3   OH275172   1.434   3.545   4.487  0.0843  0.2781 -0.0711
17894TIP3    H175173   1.503   3.611   4.500  2.4027 -2.0140  0.0873
17894TIP3    H275174   1.399   3.530   4.575  1.9840 -1.0679  0.5400
17895TIP3   OH275175   1.574   5.220  10.898  0.0083  0.0850 -0.0555
17895TIP3    H175176   1.638   5.188  10.835 -0.4724  0.1326 -0.5786
17895TIP3    H275177   1.496   5.239  10.846 -0.4064  0.1079  0.5562
17896TIP3   OH275178   3.174   0.492  13.171  0.1128  0.2457 -0.2134
17896TIP3    H175179   3.134   0.512  13.086  1.3872  0.0541 -0.8792
17896TIP3    H275180   3.153   0.400  13.187 -0.0278  0.2484 -0.3758
17897TIP3   OH275181   0.943   3.390  11.103 -0.4883  0.3325  0.0289
17897TIP3    H175182   0.949   3.386  11.008 -1.1773 -0.4592  0.0074
17897TIP3    H275183   0.958   3.300  11.132 -1.7911  0.2610  0.5602
17898TIP3   OH275184   4.768   2.286   3.394  0.0191  0.1179  0.8493
17898TIP3    H175185   4.808   2.261   3.311 -1.2348  0.1988  0.1922
17898TIP3    H275186   4.697   2.222   3.407  0.1059  0.1913  1.7913
17899TIP3   OH275187   0.386   5.514   4.648  0.5977 -0.7643  0.5864
17899TIP3    H175188   0.343   5.557   4.723 -1.1694 -2.7453  0.7739
17899TIP3    H275189   0.390   5.582   4.581  0.2599  0.4348  1.7317
17900TIP3   OH275190   5.178   5.909  13.728 -0.3861  0.5733  0.7803
17900TIP3    H175191   5.091   5.880  13.755 -0.8594 -1.3443 -2.4197
17900TIP3    H275192   5.169   6.004  13.720 -2.2873  0.3938  0.2132
17901TIP3   OH275193   4.921   2.441   4.982  0.1332  0.4886 -0.4818
17901TIP3    H175194   5.014   2.426   4.968 -0.0320  0.9448 -2.2162
17901TIP3    H275195   4.877   2.379   4.923 -0.7730 -1.8399  2.3960
17902TIP3   OH275196   6.690   6.298  13.627  0.3462  0.5303 -0.3585
17902TIP3    H175197   6.663   6.247  13.703 -1.0041  1.1247 -0.4236
17902TIP3    H275198   6.677   6.389  13.653 -1.9531  0.7120 -1.9217
17903TIP3   OH275199   0.873   3.507   2.379 -0.0141  0.3957  0.2458
17903TIP3    H175200   0.892   3.431   2.435 -0.9714  0.0095  0.0512
17903TIP3    H275201   0.852   3.469   2.294 -2.3801  0.7408  0.6308
17904TIP3   OH275202   3.514   1.979   5.836  0.8336  0.2710  0.4198
17904TIP3    H175203   3.603   1.989   5.800  0.7061  2.9909  0.6599
17904TIP3    H275204   3.518   2.021   5.921 -1.1793  2.4385 -0.4755
17905TIP3   OH275205   1.940   1.875   0.978 -0.0180 -0.3699  0.6410
17905TIP3    H175206   1.960   1.860   0.886 -0.6456  1.2895  0.1864
17905TIP3    H275207   1.866   1.818   0.997 -1.6056  1.1637 -0.6634
17906TIP3   OH275208   1.556   6.358   3.890  0.0653 -0.1011 -0.9768
17906TIP3    H175209   1.554   6.411   3.810 -0.5792 -1.4651 -1.9021
17906TIP3    H275210   1.631   6.299   3.877  0.9041  0.6731  0.1342
17907TIP3   OH275211   1.382   4.944   4.112  0.7677 -0.0668 -0.0348
17907TIP3    H175212   1.429   5.024   4.088  1.5723 -0.0444  1.4973
17907TIP3    H275213   1.378   4.894   4.031  0.4088  1.4342 -0.9917
17908TIP3   OH275214   5.846   6.472   1.381  0.1804 -0.2762 -0.0318
17908TIP3    H175215   5.922   6.466   1.438  1.3175 -0.3836 -1.5033
17908TIP3    H275216   5.873   6.428   1.300 -1.6908 -0.9578 -0.3383
17909TIP3   OH275217   0.477   0.526  11.379  0.1977  0.2237 -0.6508
17909TIP3    H175218   0.543   0.556  11.317  1.9754 -0.6060  0.7385
17909TIP3    H275219   0.503   0.564  11.463 -0.4897 -0.9549  0.1294
17910TIP3   OH275220   0.756   4.333  12.050  0.0644  0.1427 -0.4243
17910TIP3    H175221   0.700   4.342  12.127 -0.3141 -0.9091 -0.5632
17910TIP3    H275222   0.813   4.259  12.071 -1.2169 -1.3284 -1.8258
17911TIP3   OH275223   6.022   4.855   0.042  0.1347 -0.4073  0.3555
17911TIP3    H175224   5.979   4.853  -0.043 -1.1878  0.3030  0.9799
17911TIP3    H275225   6.059   4.943   0.048  2.7594 -1.3584 -0.6536
17912TIP3   OH275226   3.759   0.421   3.687 -0.3304  0.1894 -0.1744
17912TIP3    H175227   3.677   0.436   3.735 -0.4832 -0.0086 -0.3697
17912TIP3    H275228   3.800   0.507   3.682 -0.3278  0.2196  0.2821
17913TIP3   OH275229   5.317   2.113   1.839 -0.5059 -0.0181  0.3117
17913TIP3    H175230   5.222   2.110   1.840 -0.5716  1.4631  0.4790
17913TIP3    H275231   5.344   2.022   1.855 -1.8653 -0.7455 -1.1691
17914TIP3   OH275232   1.089   0.127  10.734  0.1527 -0.1914  0.3280
17914TIP3    H175233   1.159   0.129  10.669  0.1589  1.0628  0.3519
17914TIP3    H275234   1.079   0.034  10.755 -0.7768 -0.8370 -2.4430
17915TIP3   OH275235   2.653   1.047  13.359 -0.1770  0.3631 -0.9218
17915TIP3    H175236   2.595   1.110  13.316  0.0011  0.3590 -1.1681
17915TIP3    H275237   2.670   1.086  13.445 -1.8979 -0.4413 -0.1693
17916TIP3   OH275238   4.564   6.196  15.192  0.2208 -0.0849 -0.2208
17916TIP3    H175239   4.553   6.101  15.186 -1.8370  0.1919 -2.6703
17916TIP3    H275240   4.559   6.215  15.285 -2.5781 -2.1281  0.1845
17917TIP3   OH275241   3.622   2.324  15.245  0.4031 -0.3242 -0.1236
17917TIP3    H175242   3.679   2.285  15.312 -2.0722 -0.6554  1.9696
17917TIP3    H275243   3.546   2.356  15.295 -1.0411  0.4989 -2.6801
17918TIP3   OH275244   1.563   3.161   5.996 -0.2054 -0.5769  0.2711
17918TIP3    H175245   1.569   3.255   6.015  0.9565 -0.5330 -0.2714
17918TIP3    H275246   1.618   3.119   6.062 -0.1615 -0.8215  0.0798
17919TIP3   OH275247   6.497   5.566  15.052  0.1075  0.0417 -0.1441
17919TIP3    H175248   6.546   5.604  14.979 -1.3219 -0.1209 -1.2240
17919TIP3    H275249   6.563   5.517  15.102  1.0051 -0.3788 -1.6737
17920TIP3   OH275250   0.315   6.824   4.980 -0.4578  0.1951 -0.4209
17920TIP3    H175251   0.316   6.789   5.069  0.0778 -1.1805 -0.9482
17920TIP3    H275252   0.229   6.799   4.946 -0.1304 -0.5120 -0.7482
17921TIP3   OH275253   3.990   4.714   3.945 -0.4549 -0.3249  0.0552
17921TIP3    H175254   3.919   4.760   3.902 -1.2259 -1.0727  0.4964
17921TIP3    H275255   3.948   4.661   4.013 -0.0938 -4.1184 -2.3299
17922TIP3   OH275256   6.845   5.820   2.087 -0.7116 -0.4122  0.2720
17922TIP3    H175257   6.882   5.743   2.131 -0.2642  0.0193  0.6541
17922TIP3    H275258   6.878   5.894   2.137 -0.2392  0.0828 -0.7550
17923TIP3   OH275259   3.756   1.635   0.734  0.1714 -0.1173 -0.2475
17923TIP3    H175260   3.682   1.620   0.793  0.3923  0.6977  0.2597
17923TIP3    H275261   3.831   1.600   0.781  0.7570  2.6844  1.1248
17924TIP3   OH275262   5.885   5.636  12.086  0.1416  0.0478  0.4598
17924TIP3    H175263   5.870   5.559  12.140  1.1637 -1.2043 -0.9591
17924TIP3    H275264   5.969   5.671  12.116  0.3407 -0.2068  0.2084
17925TIP3   OH275265   2.416   5.897   6.061 -0.6366 -0.2317 -0.3169
17925TIP3    H175266   2.443   5.877   6.151  0.1002 -1.3166 -0.7513
17925TIP3    H275267   2.324   5.871   6.057 -1.3813  2.0546  0.7598
17926TIP3   OH275268   2.371   4.257   1.088 -0.0982  0.1002  0.2075
17926TIP3    H175269   2.390   4.239   1.180 -2.4919 -0.7438  0.6054
17926TIP3    H275270   2.318   4.337   1.089  2.6946  2.1226 -0.8102
17927TIP3   OH275271   3.793   1.471  17.002  0.2710 -0.4438  0.3522
17927TIP3    H175272   3.786   1.552  16.952  0.9526 -0.9523 -0.5958
17927TIP3    H275273   3.886   1.447  16.997 -0.0729 -1.7657 -0.1899
17928TIP3   OH275274   5.007   4.514  11.249  0.3089 -0.2811  0.6197
17928TIP3    H175275   4.928   4.529  11.197 -0.6989 -1.5114  1.7348
17928TIP3    H275276   4.999   4.574  11.323 -0.3462 -1.4179  1.5045
17929TIP3   OH275277   6.301   3.529  11.938 -0.1197 -0.1428 -0.4179
17929TIP3    H175278   6.226   3.579  11.973 -0.3295 -0.1861 -0.7989
17929TIP3    H275279   6.377   3.569  11.980 -0.3807 -0.3142  0.2282
17930TIP3   OH275280   1.318   3.839  11.947 -0.2132  0.5484  0.0158
17930TIP3    H175281   1.367   3.813  11.869  1.5484  1.2897  0.8065
17930TIP3    H275282   1.375   3.813  12.020 -1.3218  0.8502  1.0165
17931TIP3   OH275283   2.615   1.534  14.984  0.5521  0.2351 -0.0683
17931TIP3    H175284   2.592   1.499  14.898 -1.1576  1.3252 -0.1129
17931TIP3    H275285   2.550   1.603  15.000  1.2599  0.5365  1.7931
17932TIP3   OH275286   2.678   6.251   2.655  0.2040 -0.8564 -0.0378
17932TIP3    H175287   2.599   6.264   2.708  0.0648  1.5436 -0.7009
17932TIP3    H275288   2.656   6.289   2.570  1.8419 -0.7915 -0.4576
17933TIP3   OH275289   3.671   1.560   2.799  0.6575  0.2109 -0.0327
17933TIP3    H175290   3.735   1.567   2.870 -1.0279 -1.0796  1.6854
17933TIP3    H275291   3.605   1.626   2.819 -0.1933 -0.6305  0.0213
17934TIP3   OH275292   4.934   5.866  10.419 -0.1109  0.4096 -0.3187
17934TIP3    H175293   4.896   5.806  10.483  0.9406 -0.8806 -0.8599
17934TIP3    H275294   5.026   5.874  10.446 -0.0036  0.9827 -0.8484
17935TIP3   OH275295   6.758   2.896  14.196 -0.5365  0.0451  0.9088
17935TIP3    H175296   6.828   2.875  14.258 -0.1645 -0.5963  0.2872
17935TIP3    H275297   6.801   2.950  14.130 -0.7653  0.1073  0.8100
17936TIP3   OH275298   1.202   3.450  16.493 -0.3467 -0.0165  0.3214
17936TIP3    H175299   1.110   3.449  16.521 -0.2160 -0.4969  0.7491
17936TIP3    H275300   1.198   3.467  16.399 -0.9217 -1.0442  0.1503
17937TIP3   OH275301   5.470   5.445  11.543 -0.3024  0.5225  0.1836
17937TIP3    H175302   5.416   5.523  11.529 -0.5847  0.5240  1.1911
17937TIP3    H275303   5.556   5.480  11.567 -0.8688  0.5643  2.2934
17938TIP3   OH275304   1.215   1.437   3.333 -0.0999 -0.5688 -0.2767
17938TIP3    H175305   1.121   1.450   3.319  0.0533 -1.6211 -2.7085
17938TIP3    H275306   1.251   1.526   3.332 -1.2056  0.0737  2.8995
17939TIP3   OH275307   3.528   3.304  11.139 -0.0469 -0.0595 -0.1115
17939TIP3    H175308   3.502   3.213  11.152  0.1961 -0.0966  0.1150
17939TIP3    H275309   3.446   3.354  11.144  0.0042 -0.0818  1.3733
17940TIP3   OH275310   5.625   5.596  12.436  0.1673  0.4941  0.0573
17940TIP3    H175311   5.680   5.529  12.477  1.7332  1.2964 -0.6118
17940TIP3    H275312   5.539   5.556  12.429  1.3930 -2.1318 -1.8510
17941TIP3   OH275313   5.115   6.672  16.627 -0.0145 -0.7174  0.0906
17941TIP3    H175314   5.074   6.726  16.559  0.1056 -0.6901  0.0400
17941TIP3    H275315   5.201   6.712  16.640  1.0477 -2.2721 -1.6096
17942TIP3   OH275316   3.410   0.413  12.061  0.1898  0.2147 -0.1301
17942TIP3    H175317   3.486   0.412  12.119 -0.1736  0.0158  0.3529
17942TIP3    H275318   3.383   0.321  12.056 -1.9631  0.6019  2.3315
17943TIP3   OH275319   4.267   2.105   0.233  0.5039 -0.2466 -0.2956
17943TIP3    H175320   4.344   2.052   0.256  0.7993 -0.5303 -1.8067
17943TIP3    H275321   4.193   2.048   0.252  0.8034 -1.0673 -1.4314
17944TIP3   OH275322   1.728   3.050  16.663 -0.2937  0.2697  0.2098
17944TIP3    H175323   1.742   2.981  16.728  1.1568  0.2036 -0.1577
17944TIP3    H275324   1.754   3.131  16.708  0.4916  0.2514 -0.2055
17945TIP3   OH275325   6.728   4.431  12.390 -0.3131  0.0903  0.0965
17945TIP3    H175326   6.702   4.370  12.459 -0.0544 -0.6435 -0.4402
17945TIP3    H275327   6.823   4.422  12.385 -0.3420  0.0205 -0.4464
17946TIP3   OH275328   1.079   0.917   3.928 -0.0383  0.4233  0.1846
17946TIP3    H175329   1.072   0.998   3.979 -0.1107 -0.6430  1.9585
17946TIP3    H275330   1.172   0.896   3.929  0.0140  0.6101 -0.4926
17947TIP3   OH275331   1.860   2.359  13.186  0.0002 -0.1537  0.9393
17947TIP3    H175332   1.940   2.313  13.163  0.0174 -0.0974  0.8838
17947TIP3    H275333   1.889   2.440  13.229  0.0715  1.1080 -1.3276
17948TIP3   OH275334   0.904   6.522  12.343 -0.4107 -0.3392  0.3208
17948TIP3    H175335   0.989   6.566  12.349 -0.3195 -0.5481  0.5685
17948TIP3    H275336   0.865   6.558  12.264  0.1503 -0.6617 -0.1146
17949TIP3   OH275337   6.750   5.907  12.355 -0.0786  0.2569 -0.0364
17949TIP3    H175338   6.724   5.999  12.349  0.9149  0.5239 -0.5427
17949TIP3    H275339   6.845   5.909  12.352  0.0087 -0.9665 -4.0835
17950TIP3   OH275340   3.927   6.059  12.610 -0.1171 -0.0928  0.3482
17950TIP3    H175341   3.973   6.021  12.535 -0.8845  0.5605 -0.4731
17950TIP3    H275342   3.851   6.002  12.622 -1.3144  1.1585 -0.9351
17951TIP3   OH275343   5.466   6.413  12.121 -0.0082 -0.2375  0.3962
17951TIP3    H175344   5.488   6.493  12.169 -1.8509  1.6937 -1.7034
17951TIP3    H275345   5.456   6.442  12.030 -0.2463 -2.9806 -0.5463
17952TIP3   OH275346   1.102   2.238   0.858  0.8384  0.5520 -0.5706
17952TIP3    H175347   1.046   2.226   0.781 -1.6452  0.4875  1.1155
17952TIP3    H275348   1.130   2.330   0.853 -0.3484  0.9237 -0.9546
17953TIP3   OH275349   1.367   4.965  16.060  0.4510  0.4572  0.1035
17953TIP3    H175350   1.445   4.937  16.108  1.2995  1.3670 -0.6899
17953TIP3    H275351   1.358   4.902  15.989  0.9404  0.8059 -0.2706
17954TIP3   OH275352   2.960   0.456   4.013  0.3882  0.4172 -0.3006
17954TIP3    H175353   2.867   0.465   4.035  0.3361  0.6098 -0.6006
17954TIP3    H275354   3.004   0.518   4.071  0.4855 -0.7304  0.9078
17955TIP3   OH275355   2.649   4.138   4.384  0.6609  0.2156  0.0239
17955TIP3    H175356   2.578   4.175   4.331  0.1300 -1.2834 -0.3728
17955TIP3    H275357   2.711   4.103   4.319  0.1840 -1.3159  0.3636
17956TIP3   OH275358   3.269   1.343   1.120 -0.2492  0.0485  0.2485
17956TIP3    H175359   3.348   1.378   1.081 -0.7350  0.5537 -0.3019
17956TIP3    H275360   3.283   1.352   1.215  0.6930 -0.6624  0.1850
17957TIP3   OH275361   6.711   1.929  13.837 -0.6299  0.0941 -0.6307
17957TIP3    H175362   6.677   1.856  13.784 -1.3161 -0.5330  0.6391
17957TIP3    H275363   6.805   1.930  13.818 -0.9812  0.4669 -2.5421
17958TIP3   OH275364   0.454   1.876   1.525 -0.4708  0.4878 -0.4283
17958TIP3    H175365   0.464   1.971   1.532 -0.4567  0.3623  2.5972
17958TIP3    H275366   0.406   1.863   1.443  0.8861  2.9444 -1.7435
17959TIP3   OH275367   6.001   0.742   3.099 -0.3029 -0.0279 -0.2564
17959TIP3    H175368   5.981   0.807   3.032  0.4854  1.1743  0.6275
17959TIP3    H275369   6.056   0.677   3.054 -0.5139  0.2884 -0.9873
17960TIP3   OH275370   4.840   4.619  12.059  0.1013  0.4570 -0.2531
17960TIP3    H175371   4.822   4.627  11.966 -0.4429 -1.7947 -0.4040
17960TIP3    H275372   4.919   4.566  12.064 -1.1488 -1.4361  0.5367
17961TIP3   OH275373   4.820   4.030  12.011 -0.2915 -0.3139 -0.6384
17961TIP3    H175374   4.819   4.061  12.102 -3.7017  0.2965 -0.7725
17961TIP3    H275375   4.857   4.103  11.962 -0.9507  0.4581 -0.0197
17962TIP3   OH275376   1.735   2.026   3.173  0.4195  0.6518  0.6064
17962TIP3    H175377   1.748   2.094   3.240 -2.5211  1.8677  0.0971
17962TIP3    H275378   1.643   2.034   3.148  0.6916 -1.6725 -1.5695
17963TIP3   OH275379   6.331   4.304   2.004 -0.0268  0.0518  0.7105
17963TIP3    H175380   6.407   4.297   1.947  1.4196  0.2129  2.5330
17963TIP3    H275381   6.308   4.213   2.025 -0.2690  0.0090  0.2808
17964TIP3   OH275382   1.335   4.040   2.099  0.2284 -0.0120 -0.5466
17964TIP3    H175383   1.416   4.082   2.129  0.8147 -1.0186 -0.6756
17964TIP3    H275384   1.273   4.053   2.170  0.6250  0.4097 -0.2707
17965TIP3   OH275385   6.142   3.714  11.592 -0.5144  0.2627 -0.7439
17965TIP3    H175386   6.135   3.781  11.660 -1.2346 -0.4121 -0.1490
17965TIP3    H275387   6.060   3.665  11.597  0.5672 -1.5709 -0.2320
17966TIP3   OH275388   1.416   3.568   1.728 -0.3446 -0.4517  0.4478
17966TIP3    H175389   1.385   3.563   1.637  1.7879 -0.0658 -0.3575
17966TIP3    H275390   1.421   3.477   1.757  1.6941 -0.8090 -0.8508
17967TIP3   OH275391   6.513   0.087  16.242 -0.3808 -0.1997  0.2539
17967TIP3    H175392   6.440   0.094  16.180 -1.2829 -1.5454  1.0838
17967TIP3    H275393   6.591   0.106  16.191 -1.3032  1.1605 -0.7003
17968TIP3   OH275394   4.603   5.819   3.507 -0.5529 -0.3433  0.0455
17968TIP3    H175395   4.551   5.830   3.587  0.7073  0.4892  0.7851
17968TIP3    H275396   4.682   5.774   3.536  0.4145  0.9441 -0.5127
17969TIP3   OH275397   0.668   5.271   5.896  0.2279 -0.0113  0.3595
17969TIP3    H175398   0.716   5.194   5.927  0.1748 -0.5939 -0.9252
17969TIP3    H275399   0.588   5.272   5.947  0.9244  0.1106  1.4853
17970TIP3   OH275400   0.348   3.270   2.476 -0.2564  0.2009 -0.2626
17970TIP3    H175401   0.257   3.294   2.460 -0.5545 -1.1136 -0.6595
17970TIP3    H275402   0.344   3.181   2.511  0.6465  1.4317  3.4327
17971TIP3   OH275403   1.165   5.635  11.308  0.2505 -0.3941 -0.1637
17971TIP3    H175404   1.156   5.588  11.225 -1.1599  0.1212 -0.3212
17971TIP3    H275405   1.097   5.598  11.364  0.3293  0.1906  0.3234
17972TIP3   OH275406   2.331   5.951  10.884  0.5783  0.0815 -0.2453
17972TIP3    H175407   2.241   5.929  10.860  0.4387 -1.8950  1.7903
17972TIP3    H275408   2.383   5.929  10.807 -0.5701  0.5354 -1.1812
17973TIP3   OH275409   4.019   3.702  14.218  0.3373  0.0518 -0.0229
17973TIP3    H175410   4.044   3.645  14.290  0.8415 -0.2758 -0.4484
17973TIP3    H275411   4.029   3.648  14.140  0.7275  0.6896 -0.4256
17974TIP3   OH275412   5.598   2.771   1.684  0.5327 -0.4745 -0.3027
17974TIP3    H175413   5.508   2.772   1.650  0.4348 -0.9279 -0.0673
17974TIP3    H275414   5.634   2.856   1.657 -0.4061  0.3099  0.8041
17975TIP3   OH275415   0.630   4.536   2.398  0.0825  0.1167 -0.6371
17975TIP3    H175416   0.590   4.456   2.365  0.4766 -0.1530 -0.4745
17975TIP3    H275417   0.579   4.559   2.475 -1.2129  1.0720 -1.7242
17976TIP3   OH275418   1.051   2.484   6.302  0.4129  0.2428 -0.1325
17976TIP3    H175419   0.997   2.426   6.356 -0.0671 -0.4581 -1.3278
17976TIP3    H275420   1.087   2.548   6.364 -2.8389  1.5978  0.5825
17977TIP3   OH275421   4.252   5.964   1.361  0.9649 -0.5248 -0.0985
17977TIP3    H175422   4.247   6.060   1.360  1.0192 -0.4672  1.7904
17977TIP3    H275423   4.302   5.942   1.282 -0.9893  0.8187 -1.8436
17978TIP3   OH275424   3.902   0.706  12.745  0.0230  0.6079  0.1231
17978TIP3    H175425   3.918   0.673  12.657  1.9972  0.9021  0.3394
17978TIP3    H275426   3.824   0.658  12.774 -0.5304  0.3445 -1.6654
17979TIP3   OH275427   6.733   2.099  14.056  0.0084  0.0265  0.3530
17979TIP3    H175428   6.691   2.167  14.003 -0.5142 -0.4356  0.1649
17979TIP3    H275429   6.746   2.026  13.997  1.1520  0.1818  0.4001
17980TIP3   OH275430   2.417   5.015  16.339  0.2424  0.1118  0.0548
17980TIP3    H175431   2.350   5.018  16.271  1.2899 -0.3641 -1.0398
17980TIP3    H275432   2.444   4.924  16.342 -1.1814 -0.3293  2.5859
17981TIP3   OH275433   2.148   5.784  10.750  0.8585 -0.3900  0.2754
17981TIP3    H175434   2.105   5.833  10.679  1.8127 -1.4366 -1.0969
17981TIP3    H275435   2.080   5.725  10.782  0.1386  0.7562  0.9114
17982TIP3   OH275436   2.251   6.011   1.203  0.2682  0.5334 -0.0248
17982TIP3    H175437   2.326   5.982   1.152 -0.5962 -3.0390  0.4803
17982TIP3    H275438   2.276   5.998   1.294 -0.7443 -0.1964  0.1697
17983TIP3   OH275439   0.307   6.399  16.720 -0.7524 -0.4037 -0.3354
17983TIP3    H175440   0.377   6.464  16.709  0.4419 -1.8201 -1.4776
17983TIP3    H275441   0.227   6.451  16.724  0.1855  1.1533 -0.9404
17984TIP3   OH275442   4.856   6.428  15.197 -0.1994  0.1282 -0.0452
17984TIP3    H175443   4.809   6.511  15.199  0.4056  0.4925 -0.9857
17984TIP3    H275444   4.916   6.435  15.123 -1.3839 -1.8137 -1.2853
17985TIP3   OH275445   2.358   6.830  16.159 -0.1520 -0.6515  0.6616
17985TIP3    H175446   2.452   6.824  16.173 -0.1586  0.1396  1.1505
17985TIP3    H275447   2.348   6.872  16.074 -0.0691 -1.2233  0.3684
17986TIP3   OH275448   2.599   5.392  14.474 -0.0401 -0.3289  0.1688
17986TIP3    H175449   2.580   5.354  14.388 -0.0144 -0.4106  0.1991
17986TIP3    H275450   2.565   5.481  14.468  0.5411 -0.1227 -0.1484
17987TIP3   OH275451   1.977   0.738  10.848 -0.0525  0.0164 -0.4160
17987TIP3    H175452   2.024   0.655  10.861 -1.9453 -0.9557  0.7673
17987TIP3    H275453   2.031   0.803  10.892  0.4006 -0.9851  0.5857
17988TIP3   OH275454   4.033   0.440  15.650 -0.1776 -0.3305  0.2469
17988TIP3    H175455   3.950   0.411  15.688 -0.4226 -0.3989 -0.3263
17988TIP3    H275456   4.062   0.366  15.596 -0.1112 -0.0334 -0.1314
17989TIP3   OH275457   4.052   1.042  15.985 -0.4249 -0.8349 -0.2933
17989TIP3    H175458   4.067   1.049  15.891 -0.4127 -1.3209 -0.3305
17989TIP3    H275459   3.976   1.097  16.001 -1.2802 -1.8249 -0.8136
17990TIP3   OH275460   6.421   0.633  13.758  0.2526  0.0621 -0.5997
17990TIP3    H175461   6.363   0.698  13.717 -0.1840  0.0936  0.0499
17990TIP3    H275462   6.430   0.663  13.848  0.1057 -0.7388 -0.3112
17991TIP3   OH275463   0.410   1.028   2.253 -0.3331 -0.0851  0.3736
17991TIP3    H175464   0.487   1.059   2.300  0.2858  1.4166 -1.4807
17991TIP3    H275465   0.343   1.094   2.269  0.2552  1.0967 -1.7081
17992TIP3   OH275466   0.775   6.470  16.573  0.3214 -0.4272 -0.3688
17992TIP3    H175467   0.825   6.482  16.492 -0.8456 -0.0515 -1.0537
17992TIP3    H275468   0.837   6.428  16.633  0.2387 -4.2220 -2.5936
17993TIP3   OH275469   2.864   2.623   5.166  0.1268  0.2269  0.0128
17993TIP3    H175470   2.851   2.577   5.249 -0.1705 -0.0402 -0.1758
17993TIP3    H275471   2.842   2.714   5.184  2.8938  0.7725  0.9653
17994TIP3   OH275472   0.997   3.599  10.477  0.2630 -0.0654  0.2833
17994TIP3    H175473   1.045   3.523  10.509  0.6740  0.6921  1.5354
17994TIP3    H275474   0.910   3.565  10.455  0.5089 -0.9337  0.6178
17995TIP3   OH275475   0.022   4.355   3.752 -0.3506 -0.5722 -0.2054
17995TIP3    H175476  -0.024   4.414   3.811 -0.0205 -0.0900 -0.4274
17995TIP3    H275477  -0.043   4.330   3.687 -1.0459 -1.9972  0.9785
17996TIP3   OH275478   6.338   1.675   1.495 -0.2138  0.9416 -0.0853
17996TIP3    H175479   6.285   1.751   1.471 -0.1312  0.7871 -0.7754
17996TIP3    H275480   6.274   1.609   1.521 -0.3122  1.0418 -0.0714
17997TIP3   OH275481   5.957   2.029   5.442  0.3432 -0.0464 -0.2412
17997TIP3    H175482   5.948   1.934   5.438  1.8776 -0.1798 -0.8208
17997TIP3    H275483   6.015   2.045   5.516  0.7553  0.3938 -0.6546
17998TIP3   OH275484   6.707   5.056   4.512  0.1195  0.1962 -0.7293
17998TIP3    H175485   6.753   5.122   4.460  1.6763  0.0493  0.4071
17998TIP3    H275486   6.644   5.106   4.563  0.1472  0.6000 -1.0829
17999TIP3   OH275487   3.565   5.037  11.404 -0.5170  0.2268 -0.0217
17999TIP3    H175488   3.526   5.033  11.492  0.8258  2.2051  0.7373
17999TIP3    H275489   3.656   5.061  11.420  0.5157 -2.1008 -1.8545
18000TIP3   OH275490   4.289   0.760   3.742 -0.1037 -0.3099 -0.1492
18000TIP3    H175491   4.239   0.823   3.794 -0.0340 -1.0014  0.7851
18000TIP3    H275492   4.306   0.687   3.802 -0.9175 -1.6234 -1.4308
18001TIP3   OH275493   2.199   5.284  11.985  0.0665 -0.1584  0.2218
18001TIP3    H175494   2.276   5.237  11.952  0.5757 -0.1135  1.2980
18001TIP3    H275495   2.139   5.287  11.911  0.9566 -0.5159 -0.5322
18002TIP3   OH275496   6.202   1.793  15.909 -0.0684 -0.4162  0.2185
18002TIP3    H175497   6.156   1.813  15.828  1.2148  0.4509 -0.3434
18002TIP3    H275498   6.220   1.879  15.948  1.8642 -0.6406 -0.0819
18003TIP3   OH275499   3.858   6.761  14.149  0.4912  0.3221  0.1773
18003TIP3    H175500   3.839   6.820  14.222  0.5386 -1.1174  1.3891
18003TIP3    H275501   3.953   6.747  14.153  0.4186 -0.1750  0.1583
18004TIP3   OH275502   4.116   0.381  11.513 -0.8601 -0.2707 -0.1458
18004TIP3    H175503   4.087   0.290  11.503  3.4858 -1.7323 -1.5692
18004TIP3    H275504   4.193   0.388  11.457  0.3231  3.6565  1.6514
18005TIP3   OH275505   2.456   0.656   0.209  0.4813 -0.1110 -0.6808
18005TIP3    H175506   2.457   0.598   0.285  0.3785 -1.0220 -1.3574
18005TIP3    H275507   2.364   0.679   0.198  0.4583 -0.2096 -0.6989
18006TIP3   OH275508   0.433   3.057   4.865  0.2566 -0.3999  0.2058
18006TIP3    H175509   0.359   3.025   4.916 -0.5529  0.6724 -0.2680
18006TIP3    H275510   0.418   3.151   4.856  0.6786 -0.4510 -1.4899
18007TIP3   OH275511   6.581   4.380   5.334 -0.0516 -1.1949  0.3624
18007TIP3    H175512   6.639   4.334   5.395 -1.0856  0.0304  2.3805
18007TIP3    H275513   6.496   4.336   5.344 -0.8293  0.4926  1.6685
18008TIP3   OH275514   1.456   0.716  11.602  0.5737 -0.2788 -0.4888
18008TIP3    H175515   1.525   0.757  11.550  0.2599  0.8785 -0.0174
18008TIP3    H275516   1.478   0.623  11.600  4.7178  0.2741  3.1666
18009TIP3   OH275517   0.507   5.450   3.512 -0.2825 -0.0210 -1.1156
18009TIP3    H175518   0.518   5.393   3.588 -0.0325 -0.0207 -1.1509
18009TIP3    H275519   0.476   5.392   3.443  0.4034 -0.2044 -1.2780
18010TIP3   OH275520   1.424   2.952  16.007  0.0173 -0.0908 -0.0721
18010TIP3    H175521   1.333   2.960  16.038  0.0790  0.2862  0.0242
18010TIP3    H275522   1.470   2.910  16.079  0.0467  0.2904  0.1376
18011TIP3   OH275523   4.312   6.455  16.000  0.5022 -0.0412 -0.5986
18011TIP3    H175524   4.318   6.378  16.056  0.6156  1.3033  1.3213
18011TIP3    H275525   4.396   6.501  16.011 -0.1310  1.1446 -0.4780
18012TIP3   OH275526   3.857   5.337   5.198  0.0940 -0.4931  0.0682
18012TIP3    H175527   3.867   5.297   5.112  0.1407 -0.7367  0.1868
18012TIP3    H275528   3.765   5.362   5.203  0.2656  0.2684 -0.3803
18013TIP3   OH275529   0.471   2.715  15.416  0.7930  0.3278 -0.4666
18013TIP3    H175530   0.399   2.751  15.365  0.3247  2.6201  1.6003
18013TIP3    H275531   0.533   2.788  15.425  1.4670 -0.3801  1.0884
18014TIP3   OH275532   0.867   6.639   4.501  0.4869 -0.3536 -0.1670
18014TIP3    H175533   0.888   6.573   4.567 -0.9679 -1.0475 -0.3660
18014TIP3    H275534   0.823   6.709   4.550 -0.9872 -1.0660 -0.4365
18015TIP3   OH275535   1.328   3.814  13.966  0.0549 -0.6840  0.2980
18015TIP3    H175536   1.302   3.888  14.021  0.0550  0.6160 -1.3740
18015TIP3    H275537   1.387   3.852  13.901 -1.7332 -1.6507 -2.0272
18016TIP3   OH275538   3.632   1.912  13.497 -0.3505  0.4982  0.8839
18016TIP3    H175539   3.645   1.995  13.543  0.2476  1.3450 -0.7380
18016TIP3    H275540   3.703   1.856  13.527 -0.5295  0.7011  1.6987
18017TIP3   OH275541   6.068   5.405  13.293  0.5730 -0.0045  0.1670
18017TIP3    H175542   6.040   5.330  13.345 -0.5430  0.5398  0.3686
18017TIP3    H275543   6.066   5.373  13.202 -0.4503 -0.0530  0.2016
18018TIP3   OH275544   4.731   2.788   3.964 -0.3840  0.3698 -1.0013
18018TIP3    H175545   4.807   2.731   3.963 -0.7365 -0.1391 -0.0955
18018TIP3    H275546   4.760   2.866   4.012 -0.3876  0.2496 -0.8048
18019TIP3   OH275547   0.218   5.814   3.978 -0.1807  0.3391  0.0894
18019TIP3    H175548   0.188   5.858   3.898  0.0504 -3.2572 -2.2315
18019TIP3    H275549   0.313   5.824   3.977 -0.3353  2.3676  1.3568
18020TIP3   OH275550   3.024   0.346   2.863  0.5604  0.1364  0.5428
18020TIP3    H175551   3.089   0.413   2.884  0.6525  0.4752 -0.7731
18020TIP3    H275552   3.074   0.278   2.817 -0.1050  0.6987 -1.0633
18021TIP3   OH275553   0.269   5.855   3.229 -0.1186  0.1704 -0.3165
18021TIP3    H175554   0.315   5.865   3.146 -0.6977 -0.7502 -0.7702
18021TIP3    H275555   0.178   5.838   3.204 -0.8626  2.5482  0.5615
18022TIP3   OH275556   5.461   4.305   0.602  0.9790  0.3082 -0.7379
18022TIP3    H175557   5.459   4.398   0.578 -0.2463  1.2157  2.4617
18022TIP3    H275558   5.377   4.270   0.571  0.9947  0.5136 -1.0160
18023TIP3   OH275559   6.588   4.492   1.774 -0.4103  0.1714  0.2016
18023TIP3    H175560   6.659   4.555   1.760 -0.3143  0.2442  0.9965
18023TIP3    H275561   6.577   4.489   1.869 -3.0386  1.9147  0.0574
18024TIP3   OH275562   0.522   0.404  10.761 -0.5312  0.4370  0.2435
18024TIP3    H175563   0.500   0.329  10.707 -1.1958  1.0217 -0.3170
18024TIP3    H275564   0.570   0.367  10.835 -0.6134 -0.4999 -0.1561
18025TIP3   OH275565   5.857   0.477   4.231  0.1444 -0.1632  0.5086
18025TIP3    H175566   5.820   0.402   4.277  1.6043 -2.8823 -2.3993
18025TIP3    H275567   5.781   0.522   4.194 -0.7265 -0.4079  1.9012
18026TIP3   OH275568   5.708   2.782   2.609 -0.1634  0.6556  0.1243
18026TIP3    H175569   5.723   2.855   2.549 -2.5167 -0.0688 -1.4640
18026TIP3    H275570   5.700   2.823   2.695  0.0696  2.0855 -0.5076
18027TIP3   OH275571   3.162   4.924  15.482  0.5111 -0.1752  0.2174
18027TIP3    H175572   3.147   4.885  15.396  1.0016  1.3890 -0.6290
18027TIP3    H275573   3.094   4.887  15.538  0.5370 -1.6628 -0.6882
18028TIP3   OH275574   6.174   4.197   3.211 -0.2855  0.4167  0.3559
18028TIP3    H175575   6.196   4.196   3.304  1.4973  1.1488 -0.0250
18028TIP3    H275576   6.235   4.136   3.171 -0.9400  0.2252 -0.3790
18029TIP3   OH275577   6.334   0.138  11.393 -0.3719 -0.3740  0.2372
18029TIP3    H175578   6.391   0.214  11.398 -0.2876 -0.3224 -1.0794
18029TIP3    H275579   6.371   0.076  11.457  0.1382  0.3072  0.6135
18030TIP3   OH275580   0.721   3.932  14.553  0.0876 -0.2109 -0.0490
18030TIP3    H175581   0.699   3.998  14.619  0.1326 -1.3613  1.1589
18030TIP3    H275582   0.781   3.872  14.597 -0.5864 -1.5220 -0.8382
18031TIP3   OH275583   6.568   4.545  16.849  0.2910 -0.3206  0.3494
18031TIP3    H175584   6.636   4.570  16.787  1.4409 -0.9377  1.3303
18031TIP3    H275585   6.505   4.617  16.846  1.6200  0.8839  0.3427
18032TIP3   OH275586   5.840   0.601  13.329 -0.2989 -0.2295  0.0994
18032TIP3    H175587   5.759   0.587  13.377 -0.3967  1.4606  0.4949
18032TIP3    H275588   5.819   0.670  13.266  0.5918 -0.4048 -0.4150
18033TIP3   OH275589   6.669   0.681  13.660 -0.1050 -0.0694  0.1069
18033TIP3    H175590   6.666   0.722  13.573  0.2858  2.7943  1.3400
18033TIP3    H275591   6.578   0.685  13.691 -0.2797 -1.2674 -0.1998
18034TIP3   OH275592   0.321   4.075   4.054  0.3806  0.4460  0.1834
18034TIP3    H175593   0.335   4.156   4.103 -0.7708  1.4024 -1.0016
18034TIP3    H275594   0.384   4.014   4.091  0.7068  1.6300  1.6814
18035TIP3   OH275595   4.189   0.479   5.988 -0.1152  0.1719  0.5691
18035TIP3    H175596   4.255   0.495   6.055 -0.6560  1.5485  0.8139
18035TIP3    H275597   4.118   0.434   6.034  1.0880 -2.3868  0.0543
18036TIP3   OH275598   5.195   0.840  15.851  0.4788  0.0927  0.6702
18036TIP3    H175599   5.229   0.929  15.857 -0.9989  0.7392 -0.1796
18036TIP3    H275600   5.172   0.829  15.758 -0.3573 -0.7931  0.9624
18037TIP3   OH275601   3.837   0.640   3.374  0.4828  0.3522 -0.6649
18037TIP3    H175602   3.926   0.623   3.342  1.0817 -0.1513  1.1447
18037TIP3    H275603   3.797   0.694   3.306  1.9724  0.1120 -1.7931
18038TIP3   OH275604   4.180   1.506   2.373  0.4968 -0.1411  0.2342
18038TIP3    H175605   4.242   1.439   2.342  0.0617 -0.0347 -0.9074
18038TIP3    H275606   4.096   1.460   2.378 -0.2022  0.7278 -2.3736
18039TIP3   OH275607   1.767   3.559  12.355 -0.2560 -0.1962 -0.1681
18039TIP3    H175608   1.835   3.565  12.288 -1.3411 -0.0854 -1.3018
18039TIP3    H275609   1.685   3.562  12.306 -1.0893 -0.0857  1.1779
18040TIP3   OH275610   5.644   6.760   2.965  0.1509  0.1453  0.1348
18040TIP3    H175611   5.626   6.672   3.000  0.5661  0.0110  0.0143
18040TIP3    H275612   5.599   6.819   3.026 -0.1507 -0.1498  0.2046
18041TIP3   OH275613   4.081   5.230   5.809 -0.6928  0.4391  0.2133
18041TIP3    H175614   4.035   5.251   5.728  0.7811  0.4800 -0.6516
18041TIP3    H275615   4.170   5.207   5.781 -0.4391 -0.5905  1.7229
18042TIP3   OH275616   3.669   3.313  14.623  0.1668  0.3295  0.4100
18042TIP3    H175617   3.678   3.270  14.538  0.5225  1.6396 -0.2431
18042TIP3    H275618   3.611   3.256  14.673  1.2204 -1.2862 -0.1425
18043TIP3   OH275619   4.820   4.943   2.349  0.4804  0.0071 -0.0625
18043TIP3    H175620   4.872   4.940   2.269  1.6662 -2.7059  0.6718
18043TIP3    H275621   4.884   4.953   2.419 -0.3808  0.6610  0.6583
18044TIP3   OH275622   2.628   1.035  12.647  0.5105 -0.2660 -0.5429
18044TIP3    H175623   2.657   0.964  12.704  0.4285  0.4249  0.3742
18044TIP3    H275624   2.686   1.108  12.668  1.4832 -0.4261 -2.4435
18045TIP3   OH275625   0.614   6.700  11.706  0.2288 -0.3549  0.7272
18045TIP3    H175626   0.588   6.667  11.621 -0.2292  0.6175  0.4776
18045TIP3    H275627   0.697   6.656  11.725  0.4570 -0.4039 -0.3294
18046TIP3   OH275628   4.050   3.734  12.721  0.1240 -0.0662  0.2537
18046TIP3    H175629   3.956   3.745  12.704 -0.1623  0.9374  2.2572
18046TIP3    H275630   4.081   3.683  12.646 -2.4013 -2.1967  0.4850
18047TIP3   OH275631   3.882   0.151   3.184 -0.6799  0.1593  0.6508
18047TIP3    H175632   3.854   0.162   3.093 -0.3885 -1.8159  0.2904
18047TIP3    H275633   3.802   0.162   3.235 -0.4604  3.9531  0.4900
18048TIP3   OH275634   1.462   0.885  15.609 -0.0945 -0.4799  0.6231
18048TIP3    H175635   1.436   0.852  15.695  0.6823 -1.2980  0.5609
18048TIP3    H275636   1.430   0.975  15.607  1.4002  0.1563  2.4746
18049TIP3   OH275637   1.566   4.278  16.360 -0.1968 -0.0262 -0.0630
18049TIP3    H175638   1.593   4.318  16.278  1.3750  0.3137  0.5907
18049TIP3    H275639   1.476   4.308  16.372  0.4174  2.0899 -0.3655
18050TIP3   OH275640   5.224   0.791   3.398 -0.4141  0.1085 -1.0393
18050TIP3    H175641   5.172   0.871   3.386  0.1473  0.2773 -2.4323
18050TIP3    H275642   5.159   0.721   3.405 -0.9090  0.6637  0.1410
18051TIP3   OH275643   6.611   2.810  14.462  0.2051  0.7575  0.4164
18051TIP3    H175644   6.654   2.789  14.545  0.9134  3.5839  0.8648
18051TIP3    H275645   6.678   2.791  14.395  0.5161  0.8313  0.7051
18052TIP3   OH275646   4.723   3.390  11.637  0.3039  0.0475  0.0809
18052TIP3    H175647   4.735   3.295  11.631  1.0685  0.1326  0.1021
18052TIP3    H275648   4.643   3.407  11.588  0.3953 -0.5632 -0.2990
18053TIP3   OH275649   2.374   1.125  14.534 -0.0806 -0.2870 -0.6948
18053TIP3    H175650   2.408   1.039  14.558 -0.4746  0.0534  1.2614
18053TIP3    H275651   2.435   1.157  14.467  3.0540 -0.0928  1.9679
18054TIP3   OH275652   4.775   0.881  16.900 -0.5645 -0.4614  0.6698
18054TIP3    H175653   4.746   0.959  16.947  0.2298  1.3270 -1.5946
18054TIP3    H275654   4.702   0.861  16.841  0.1246  0.0561 -0.3997
18055TIP3   OH275655   1.032   6.637   1.175 -0.0379  0.0490  0.5816
18055TIP3    H175656   0.996   6.553   1.146 -0.8256  0.2360  0.9894
18055TIP3    H275657   1.055   6.682   1.094 -0.5684 -0.1475  0.3157
18056TIP3   OH275658   2.276   4.471  14.800 -0.9073  0.5942  0.0158
18056TIP3    H175659   2.298   4.405  14.735  0.0961  0.4146  0.5189
18056TIP3    H275660   2.262   4.551  14.750 -1.7064  0.1140 -0.5563
18057TIP3   OH275661   6.156   6.576   3.689 -1.3170 -0.4987 -0.4559
18057TIP3    H175662   6.118   6.498   3.728 -0.1447 -1.2012 -0.6495
18057TIP3    H275663   6.088   6.642   3.695 -0.9433 -0.2465  3.6412
18058TIP3   OH275664   1.923   1.095   0.402 -0.1003 -0.0982 -0.1133
18058TIP3    H175665   1.895   1.011   0.365  1.0691 -0.8016  0.5271
18058TIP3    H275666   1.894   1.091   0.493  1.1749 -0.4290  0.2976
18059TIP3   OH275667   4.455   4.153  11.586  0.0641 -0.8975  0.6613
18059TIP3    H175668   4.517   4.080  11.585  0.9757 -0.1375 -0.6279
18059TIP3    H275669   4.504   4.227  11.550 -0.6691  0.5187  2.4507
18060TIP3   OH275670   5.341   0.387  11.348  0.4088 -0.0131  0.3722
18060TIP3    H175671   5.308   0.370  11.260  1.5490  0.7180 -0.2303
18060TIP3    H275672   5.435   0.368  11.343  0.6375  0.8043  1.2077
18061TIP3   OH275673   6.048   0.283   3.391  0.0397 -0.3421  0.2506
18061TIP3    H175674   6.033   0.256   3.482 -0.7555 -0.4160  0.1047
18061TIP3    H275675   6.143   0.295   3.385  0.0785 -0.1095  1.1555
18062TIP3   OH275676   3.132   0.295  12.422 -0.4721  0.8677  0.1683
18062TIP3    H175677   3.208   0.238  12.430 -1.9765 -0.9726  3.5922
18062TIP3    H275678   3.169   0.383  12.416  1.9569 -0.0176  0.9135
18063TIP3   OH275679   4.167   2.156   5.161 -0.0796  0.1763  0.3451
18063TIP3    H175680   4.227   2.081   5.161 -0.8000 -0.4118  0.1203
18063TIP3    H275681   4.181   2.198   5.076  0.0870  0.1104  0.3385
18064TIP3   OH275682   2.928   4.027   2.915 -0.1279  0.2724 -0.0631
18064TIP3    H175683   2.914   3.956   2.977  2.1077 -0.9011 -0.7665
18064TIP3    H275684   2.940   3.983   2.831  2.7365  1.2363 -0.2912
18065TIP3   OH275685   2.626   1.342   2.707 -0.0775  0.0013  0.4574
18065TIP3    H175686   2.584   1.394   2.775 -0.9999 -2.2057  1.6601
18065TIP3    H275687   2.715   1.327   2.739 -0.5786 -1.2323  1.3695
18066TIP3   OH275688   1.660   3.717   0.079  0.0347 -0.1360 -0.0545
18066TIP3    H175689   1.616   3.704   0.163 -0.6569 -2.6285 -0.7196
18066TIP3    H275690   1.590   3.740   0.018  0.0644 -1.1395 -0.4936
18067TIP3   OH275691   6.132   4.761   2.612  0.4152  0.3252  0.5687
18067TIP3    H175692   6.114   4.757   2.707  0.5395 -2.3637  0.5671
18067TIP3    H275693   6.213   4.711   2.601  0.8194  1.2636 -0.8988
18068TIP3   OH275694   4.177   1.829  12.571  0.4734 -0.0602  0.2466
18068TIP3    H175695   4.144   1.745  12.537 -1.0288 -0.0097  1.4682
18068TIP3    H275696   4.268   1.811  12.594  1.1079 -0.4956 -2.2822
18069TIP3   OH275697   2.540   6.658   4.801 -0.1534 -0.5742 -0.2640
18069TIP3    H175698   2.518   6.639   4.710  0.7402  2.1647 -1.1441
18069TIP3    H275699   2.625   6.702   4.797 -0.0587 -0.4537  1.9026
18070TIP3   OH275700   4.095   0.249  12.645 -0.1816 -0.5099 -0.4080
18070TIP3    H175701   4.141   0.186  12.589  0.7531 -0.0909 -0.1231
18070TIP3    H275702   4.064   0.197  12.719 -1.6536 -1.1260 -1.3988
18071TIP3   OH275703   1.219   5.891   1.075 -0.2263  0.4623 -0.3955
18071TIP3    H175704   1.249   5.963   1.130  2.7909  0.1706 -1.4594
18071TIP3    H275705   1.232   5.813   1.129  1.8596  0.2685 -1.0677
18072TIP3   OH275706   2.852   0.272  12.342 -0.0948  0.0510 -0.2333
18072TIP3    H175707   2.941   0.303  12.322 -0.6210  1.6401 -0.2180
18072TIP3    H275708   2.795   0.345  12.319 -1.5541 -1.4219 -1.5321
18073TIP3   OH275709   4.270   2.268   1.062  0.1370  0.2743  0.2623
18073TIP3    H175710   4.189   2.262   1.012 -0.9842 -0.1615  2.0600
18073TIP3    H275711   4.332   2.310   1.002 -0.7381 -1.3565 -1.9498
18074TIP3   OH275712   2.447   2.102   2.532 -0.1329  0.0723  0.6734
18074TIP3    H175713   2.500   2.023   2.519 -0.7534  0.0192 -2.0355
18074TIP3    H275714   2.360   2.069   2.553  0.0138  0.1042  1.3718
18075TIP3   OH275715   5.827   2.044  14.930  0.2346  0.5652 -0.4478
18075TIP3    H175716   5.817   1.998  15.013  1.3242  0.7312 -0.2094
18075TIP3    H275717   5.828   2.137  14.954 -0.2621  0.6495 -0.7382
18076TIP3   OH275718   5.742   1.506   4.160 -0.5029  0.3960  0.6008
18076TIP3    H175719   5.796   1.537   4.232 -1.4309 -1.2867  2.0819
18076TIP3    H275720   5.654   1.497   4.197 -1.0638 -0.3134 -0.7992
18077TIP3   OH275721   5.484   5.836   3.815  0.2478  0.4738  0.0176
18077TIP3    H175722   5.468   5.881   3.732  0.8005  2.5039  0.9518
18077TIP3    H275723   5.399   5.797   3.838 -0.0010  0.1997 -1.2839
18078TIP3   OH275724   5.561   0.105   3.169  0.0099 -0.5618 -0.2744
18078TIP3    H175725   5.516   0.178   3.127  0.3010 -0.7524 -0.9253
18078TIP3    H275726   5.611   0.146   3.240 -1.2644 -0.3645  0.5464
18079TIP3   OH275727   3.797   0.685   0.025 -0.6079 -0.2868 -0.1297
18079TIP3    H175728   3.888   0.694   0.054 -0.1756 -0.1799 -1.4486
18079TIP3    H275729   3.745   0.723   0.097  0.5480  2.6317 -0.6933
18080TIP3   OH275730   2.084   0.790   0.649 -0.1324 -0.7604 -0.2236
18080TIP3    H175731   2.055   0.766   0.561 -0.4413 -1.4491  0.0514
18080TIP3    H275732   2.142   0.718   0.676  0.1628 -0.4306  0.0381
18081TIP3   OH275733   1.721   6.331  15.823 -0.5690 -0.7466 -0.2049
18081TIP3    H175734   1.733   6.279  15.902  0.3045 -0.8287 -0.3848
18081TIP3    H275735   1.790   6.398  15.827  0.0254 -1.2682 -1.2931
18082TIP3   OH275736   4.121   5.331   0.927 -0.2287  0.5235 -0.0581
18082TIP3    H175737   4.181   5.331   1.001 -1.6138 -1.9742  1.2031
18082TIP3    H275738   4.100   5.423   0.912  0.0369  1.1090  2.7430
18083TIP3   OH275739   6.621   0.948  16.728 -0.2457 -0.1231  0.5311
18083TIP3    H175740   6.553   0.976  16.788  1.1076  1.9419  1.2253
18083TIP3    H275741   6.606   0.999  16.648  1.3299  1.5922  1.2501
18084TIP3   OH275742   5.701   3.654   4.865 -0.6553  0.3315 -0.2173
18084TIP3    H175743   5.664   3.705   4.937  1.3540  1.7292 -0.0837
18084TIP3    H275744   5.669   3.696   4.785 -0.6886  0.4916 -0.1184
18085TIP3   OH275745   4.057   4.399  14.833 -0.1197 -0.3226  0.5207
18085TIP3    H175746   4.020   4.422  14.748  0.1106 -1.8803 -0.0369
18085TIP3    H275747   4.011   4.319  14.859  1.5719 -1.3120  0.6377
18086TIP3   OH275748   6.540   5.383  15.799 -0.1240 -0.3344  0.4148
18086TIP3    H175749   6.448   5.400  15.776  0.1038 -0.6074 -0.7866
18086TIP3    H275750   6.571   5.325  15.729  1.7399  1.9321 -0.7755
18087TIP3   OH275751   6.269   3.032   3.684  0.6369  0.2506 -0.2391
18087TIP3    H175752   6.256   3.073   3.770  0.7246 -1.2254  0.5053
18087TIP3    H275753   6.315   3.099   3.633  0.3486  1.2530  0.7636
18088TIP3   OH275754   0.643   2.068  14.726  0.3923 -0.4563 -0.4156
18088TIP3    H175755   0.681   2.154  14.744 -1.5014  0.4795 -0.6497
18088TIP3    H275756   0.653   2.020  14.809 -2.1960  1.4629  1.1524
18089TIP3   OH275757   4.585   5.348   1.341  0.0072 -0.4263 -0.0776
18089TIP3    H175758   4.530   5.282   1.383  1.7855  0.5329  4.3597
18089TIP3    H275759   4.545   5.432   1.364  0.8853  0.1752 -0.6527
18090TIP3   OH275760   2.414   0.761   2.877 -0.1458 -0.2122 -1.0229
18090TIP3    H175761   2.483   0.746   2.942  0.2289 -0.2539 -1.4306
18090TIP3    H275762   2.444   0.717   2.798 -0.5181 -0.0112 -1.2834
18091TIP3   OH275763   2.762   1.898   1.508  0.0397 -0.6056 -0.0202
18091TIP3    H175764   2.843   1.860   1.475  0.2793 -0.6632  0.6221
18091TIP3    H275765   2.789   1.974   1.559 -0.4656  0.7965 -1.7127
18092TIP3   OH275766   3.046   2.919   3.459 -0.1761  0.3852 -0.3503
18092TIP3    H175767   2.964   2.945   3.502 -0.1463 -0.7653  0.4362
18092TIP3    H275768   3.017   2.870   3.382 -0.2860 -1.5535  0.8585
18093TIP3   OH275769   3.607   1.561  15.333 -0.1667  0.4545  0.1515
18093TIP3    H175770   3.551   1.567  15.410  1.0320  0.8534  1.0294
18093TIP3    H275771   3.688   1.606  15.359  0.0910  0.9999 -1.5094
18094TIP3   OH275772   0.236   3.455  11.708  0.3732 -0.7514 -0.3543
18094TIP3    H175773   0.283   3.517  11.652 -0.4621  0.4467  0.2125
18094TIP3    H275774   0.303   3.395  11.740  1.6220  1.1999  0.8406
18095TIP3   OH275775   3.949   4.863  13.035  0.1813  0.2979 -0.1149
18095TIP3    H175776   3.949   4.834  13.126 -1.0275  0.1634 -0.1387
18095TIP3    H275777   3.857   4.885  13.017  0.7805  2.7353 -0.5402
18096TIP3   OH275778   5.866   6.662  10.718  0.3914 -0.1456 -0.3263
18096TIP3    H175779   5.856   6.692  10.808 -1.8566 -0.7268 -0.3230
18096TIP3    H275780   5.847   6.568  10.722  1.7525 -0.4805 -1.1901
18097TIP3   OH275781   2.671   4.517   2.746  0.0110  0.1019  0.4765
18097TIP3    H175782   2.679   4.503   2.841  1.8093  0.3328  0.3987
18097TIP3    H275783   2.748   4.569   2.723 -1.5495  2.0265 -0.7641
18098TIP3   OH275784   1.596   4.882  15.815 -0.5269  0.0747  0.2799
18098TIP3    H175785   1.604   4.806  15.874 -0.2278  0.0690  0.2379
18098TIP3    H275786   1.601   4.957  15.873 -0.4550  0.0656  0.2869
18099TIP3   OH275787   3.591   6.706   5.538  0.2478 -0.2993  0.4615
18099TIP3    H175788   3.625   6.783   5.492 -0.0128 -0.6598 -0.3681
18099TIP3    H275789   3.635   6.706   5.623  0.7145  0.4157  0.2231
18100TIP3   OH275790   2.759   4.685  16.745  0.1894 -0.0247  0.2953
18100TIP3    H175791   2.689   4.623  16.726  0.2298  0.3680 -1.2019
18100TIP3    H275792   2.716   4.755  16.795 -0.8927  1.0296 -1.9950
18101TIP3   OH275793   0.143   3.919   1.153  0.0089 -0.4722 -0.4601
18101TIP3    H175794   0.226   3.874   1.141  0.2811 -0.2431  0.4703
18101TIP3    H275795   0.162   3.990   1.214 -0.4605  0.7974 -1.7260
18102TIP3   OH275796   4.170   2.839  11.030 -0.4987  0.0683  0.1412
18102TIP3    H175797   4.264   2.859  11.033 -0.3075 -0.6524 -0.6810
18102TIP3    H275798   4.132   2.894  11.098  0.4605  0.6977  0.1907
18103TIP3   OH275799   5.105   2.606  12.094  0.5494  0.2499  0.5551
18103TIP3    H175800   5.135   2.523  12.132 -1.0994 -0.2287  0.8850
18103TIP3    H275801   5.071   2.656  12.169  0.4872  0.7526  0.1950
18104TIP3   OH275802   6.845   6.194  15.725 -0.3096 -0.7073  0.5083
18104TIP3    H175803   6.858   6.119  15.783  0.7351 -0.5663  0.4750
18104TIP3    H275804   6.896   6.264  15.765  0.1987 -0.5328 -0.4235
18105TIP3   OH275805   5.978   3.264  12.908 -0.1235 -0.2066 -0.0985
18105TIP3    H175806   5.980   3.299  12.819 -0.0754 -1.2012 -0.5039
18105TIP3    H275807   5.920   3.322  12.955  1.0734  1.2751 -0.3639
18106TIP3   OH275808   2.605   0.144  12.232 -0.0347  0.1888  0.0272
18106TIP3    H175809   2.565   0.083  12.294 -1.3232 -0.5034 -1.4002
18106TIP3    H275810   2.691   0.163  12.269  0.4868 -2.6094  0.5049
18107TIP3   OH275811   1.081   4.956  13.008 -0.0254 -0.5651 -0.3723
18107TIP3    H175812   0.996   4.912  13.004  0.3567 -1.5276  1.2310
18107TIP3    H275813   1.134   4.901  13.065  2.1798 -0.7589 -2.4841
18108TIP3   OH275814   6.759   4.901   2.786  0.5514 -0.2217  0.1130
18108TIP3    H175815   6.790   4.856   2.865 -0.2033  0.2845  0.7245
18108TIP3    H275816   6.831   4.958   2.761  0.7101 -0.2154  0.5725
18109TIP3   OH275817   6.731   0.229  15.862 -0.2634 -0.0487  1.2958
18109TIP3    H175818   6.734   0.290  15.789 -0.2815 -1.7884 -0.2452
18109TIP3    H275819   6.638   0.226  15.887 -0.7714 -1.3920 -0.4568
18110TIP3   OH275820   2.112   0.784  13.339  0.7825  0.0385  0.7319
18110TIP3    H175821   2.091   0.851  13.405  0.7145  1.7891 -0.9643
18110TIP3    H275822   2.183   0.823  13.289 -0.9393  0.0348 -1.9172
18111TIP3   OH275823   5.754   5.359  12.567 -0.1693 -0.5749 -0.5618
18111TIP3    H175824   5.808   5.419  12.620 -2.2647  0.5063  0.5109
18111TIP3    H275825   5.806   5.341  12.490  0.6637  2.5900 -0.8774
18112TIP3   OH275826   1.825   5.621   6.587 -0.0359 -0.1976  0.1323
18112TIP3    H175827   1.767   5.694   6.567 -1.5858 -1.4548 -0.1587
18112TIP3    H275828   1.788   5.582   6.666  0.7431 -0.7110  0.2575
18113TIP3   OH275829   0.921   1.698  13.043 -0.3272 -0.3953  0.6856
18113TIP3    H175830   0.962   1.731  12.964 -0.3090 -2.4269 -0.2193
18113TIP3    H275831   0.992   1.695  13.108 -0.0044 -0.0675  0.3499
18114TIP3   OH275832   4.733   2.165  14.649 -0.0895  0.1072 -0.4533
18114TIP3    H175833   4.698   2.210  14.572 -1.7781 -1.1416 -0.4751
18114TIP3    H275834   4.655   2.140  14.699  0.9239 -0.3141  0.9630
18115TIP3   OH275835   3.493   2.357   4.419  0.0038  0.2738  0.2412
18115TIP3    H175836   3.558   2.396   4.477 -0.7625  0.2824  1.1157
18115TIP3    H275837   3.525   2.376   4.331  0.9849  0.6007  0.6515
18116TIP3   OH275838   6.146   0.056   0.496  0.5062  0.4599 -0.5637
18116TIP3    H175839   6.147  -0.021   0.439  1.2796  1.4496 -1.9553
18116TIP3    H275840   6.086   0.033   0.566  0.1987 -1.1509 -1.3026
18117TIP3   OH275841   0.236   2.617  16.500  0.0359 -0.0584 -0.3440
18117TIP3    H175842   0.278   2.673  16.435 -0.1690  1.2026  0.5616
18117TIP3    H275843   0.195   2.678  16.561  0.8117 -1.1888  1.3712
18118TIP3   OH275844   3.904   6.620  15.976 -0.0743 -0.4366  0.4810
18118TIP3    H175845   3.919   6.678  15.901 -0.2069  0.6825  1.3101
18118TIP3    H275846   3.980   6.632  16.032 -0.1906 -0.9406  0.7572
18119TIP3   OH275847   2.679   0.735   3.038  0.2458 -0.2595 -0.1425
18119TIP3    H175848   2.757   0.775   3.076  0.7987 -2.9882  1.9159
18119TIP3    H275849   2.712   0.681   2.966  0.0406 -0.1105 -0.3491
18120TIP3   OH275850   6.527   3.721  16.429  0.2091  0.0565  0.0180
18120TIP3    H175851   6.548   3.632  16.401  3.1925  0.7644 -0.3295
18120TIP3    H275852   6.465   3.754  16.364 -0.7804 -1.6377  0.0460
18121TIP3   OH275853   0.655   6.661  14.988 -0.2766 -0.1890 -0.2767
18121TIP3    H175854   0.684   6.617  15.068 -0.3865 -1.1679 -0.7627
18121TIP3    H275855   0.704   6.617  14.918 -1.4217 -0.4869 -0.9084
18122TIP3   OH275856   3.898   2.771   5.167 -0.2056 -0.5312  0.2688
18122TIP3    H175857   3.811   2.743   5.140 -1.1944  0.8138  1.9424
18122TIP3    H275858   3.900   2.757   5.262  0.8855  0.7391  0.4624
18123TIP3   OH275859   3.594   4.779   0.203  0.0146  0.1289  0.6799
18123TIP3    H175860   3.688   4.794   0.219  0.3144  0.4286 -1.1008
18123TIP3    H275861   3.551   4.852   0.248  0.7050  0.5188  0.7385
18124TIP3   OH275862   4.883   4.646  13.407 -0.4544 -0.1505  0.2372
18124TIP3    H175863   4.898   4.575  13.470 -1.7057 -0.0568  0.6654
18124TIP3    H275864   4.823   4.608  13.343  2.8445 -1.1808 -2.5725
18125TIP3   OH275865   4.998   3.477   6.330  0.2665  0.2640 -0.3360
18125TIP3    H175866   4.916   3.490   6.282 -0.6235 -1.6020  0.5838
18125TIP3    H275867   5.063   3.458   6.261 -0.8900 -1.9062 -0.9426
18126TIP3   OH275868   6.654   3.859  13.797 -0.4863 -0.2428  0.4646
18126TIP3    H175869   6.572   3.899  13.824  0.6055  1.2033  1.8727
18126TIP3    H275870   6.643   3.765  13.815 -2.5330 -0.4185 -1.3679
18127TIP3   OH275871   1.505   2.196   1.271  0.4640  0.1336  0.3293
18127TIP3    H175872   1.557   2.242   1.337 -1.8715  2.4102  0.7343
18127TIP3    H275873   1.431   2.159   1.319  0.4410 -1.0267 -0.5482
18128TIP3   OH275874   6.409   4.868   4.558  0.4677  0.1247 -0.2235
18128TIP3    H175875   6.469   4.828   4.495  0.6791 -0.2108  0.1824
18128TIP3    H275876   6.349   4.797   4.581  0.1775  0.3428 -0.3062
18129TIP3   OH275877   5.360   3.187  14.952  0.3852 -0.4998 -0.3621
18129TIP3    H175878   5.374   3.275  14.920 -0.3085  0.3538  1.5247
18129TIP3    H275879   5.446   3.158  14.982  0.2268  0.4453  1.0910
18130TIP3   OH275880   1.444   2.163  11.588 -0.0363  0.1269 -0.3398
18130TIP3    H175881   1.524   2.152  11.640 -0.1925 -1.4911 -0.3828
18130TIP3    H275882   1.475   2.184  11.500  0.4027 -1.4024 -0.5732
18131TIP3   OH275883   5.957   2.534  17.031 -0.2418  0.1704 -0.2955
18131TIP3    H175884   5.896   2.466  17.061 -1.4985  1.3431 -0.0731
18131TIP3    H275885   5.907   2.616  17.038  0.7266  0.9563 -1.9736
18132TIP3   OH275886   4.354   4.521  14.301 -0.1425  0.4076  0.2674
18132TIP3    H175887   4.438   4.556  14.272  1.0947 -1.0961  1.8066
18132TIP3    H275888   4.337   4.566  14.384  1.0256 -1.8072  1.8105
18133TIP3   OH275889   5.358   2.834   4.631  0.2265 -0.0949  0.4535
18133TIP3    H175890   5.297   2.878   4.572  0.6350  1.0748  0.8822
18133TIP3    H275891   5.303   2.801   4.702 -0.3415 -1.9472 -0.7826
18134TIP3   OH275892   0.306   3.343  14.482 -0.1301 -0.2147  0.4068
18134TIP3    H175893   0.330   3.328  14.391 -1.3489  1.1594 -0.1681
18134TIP3    H275894   0.260   3.263  14.508 -0.7944 -0.1502 -0.5439
18135TIP3   OH275895   0.717   0.150  12.953  0.2627  0.0866 -0.1163
18135TIP3    H175896   0.783   0.164  13.020 -0.5280  0.6360  0.5697
18135TIP3    H275897   0.735   0.216  12.886  0.2294  0.4400  0.2182
18136TIP3   OH275898   1.529   0.299   3.492 -0.2076 -0.5404 -0.0658
18136TIP3    H175899   1.596   0.365   3.509 -2.0864  0.9026  2.4752
18136TIP3    H275900   1.556   0.225   3.547  0.5948 -0.9704 -1.0104
18137TIP3   OH275901   3.439   2.877   0.976  0.6538  1.2482  0.6413
18137TIP3    H175902   3.411   2.932   1.049 -0.1575  0.4482  0.9636
18137TIP3    H275903   3.515   2.921   0.940 -2.5485  5.2720 -2.1674
18138TIP3   OH275904   1.223   4.687   4.888 -0.4608 -0.2516 -0.4224
18138TIP3    H175905   1.204   4.631   4.813 -1.9286  1.5144 -1.4441
18138TIP3    H275906   1.140   4.696   4.934 -0.0624  0.4305  0.1888
18139TIP3   OH275907   5.369   2.068   0.710  0.1718 -0.2153 -0.0362
18139TIP3    H175908   5.294   2.084   0.654 -0.4628  0.5520  1.0040
18139TIP3    H275909   5.410   2.154   0.722 -1.0013  0.0837  2.4377
18140TIP3   OH275910   6.106   6.725   2.026  0.5414  0.3084 -0.2574
18140TIP3    H175911   6.188   6.674   2.030  0.8022  0.6735 -0.8133
18140TIP3    H275912   6.038   6.664   2.054  0.9070 -0.2211 -0.5205
18141TIP3   OH275913   6.462   5.538   4.581 -0.6711  0.2158 -0.4235
18141TIP3    H175914   6.540   5.560   4.530 -1.1531  0.7791 -0.9223
18141TIP3    H275915   6.478   5.448   4.612  0.7219  0.7578  0.5166
18142TIP3   OH275916   2.436   3.935  13.565 -0.0707  0.3301 -0.2234
18142TIP3    H175917   2.353   3.972  13.592  1.3041  2.4794  1.4060
18142TIP3    H275918   2.453   3.866  13.630 -0.1251  0.5714  0.0497
18143TIP3   OH275919   4.790   1.244  14.478  0.0946 -0.6562  0.7737
18143TIP3    H175920   4.842   1.229  14.400 -1.6806  0.9303 -0.8093
18143TIP3    H275921   4.719   1.179  14.472 -1.0407  0.6028  0.0708
18144TIP3   OH275922   3.194   5.556   2.683 -0.0404  0.6478 -0.3362
18144TIP3    H175923   3.178   5.650   2.675  0.3571  1.0707  2.6251
18144TIP3    H275924   3.146   5.530   2.762  0.4980 -1.4737 -0.6458
18145TIP3   OH275925   4.830   4.463   5.876  0.0095 -0.2161 -0.3170
18145TIP3    H175926   4.788   4.549   5.872  0.0474  0.3041  4.7090
18145TIP3    H275927   4.922   4.482   5.889  0.0603 -1.0273  0.5437
18146TIP3   OH275928   3.742   3.778  11.391 -0.2128  0.0756  0.3176
18146TIP3    H175929   3.654   3.760  11.424 -1.1892  2.9894 -0.3332
18146TIP3    H275930   3.781   3.836  11.457  0.8925 -0.4247  0.1389
18147TIP3   OH275931   1.723   3.350  12.510 -0.3467 -0.7840 -0.9006
18147TIP3    H175932   1.735   3.269  12.459  1.1527 -2.7558  2.2426
18147TIP3    H275933   1.757   3.419  12.454  1.4959 -2.8234 -2.4624
18148TIP3   OH275934   0.471   0.928  13.331 -0.0896  0.1410 -0.1251
18148TIP3    H175935   0.404   0.921  13.400  0.6317 -0.6855  0.5032
18148TIP3    H275936   0.451   0.857  13.270 -0.3336  0.4649 -0.4241
18149TIP3   OH275937   2.711   0.229  13.655  0.2037 -0.0169 -0.2656
18149TIP3    H175938   2.627   0.270  13.675 -0.7521 -2.5809  1.4999
18149TIP3    H275939   2.762   0.299  13.614 -2.9442  1.4960 -2.0267
18150TIP3   OH275940   2.688   5.667   1.701  0.5145 -0.1595 -0.1532
18150TIP3    H175941   2.705   5.654   1.794 -0.5181  3.8765  0.7857
18150TIP3    H275942   2.609   5.616   1.683 -0.3504  0.4553  1.6971
18151TIP3   OH275943   5.551   2.805  17.169  0.8096  0.5409  0.2767
18151TIP3    H175944   5.542   2.744  17.242  0.0869  0.9896  0.5750
18151TIP3    H275945   5.571   2.889  17.209  2.0867  0.4566 -0.1520
18152TIP3   OH275946   1.964   4.451  15.960  0.1660  0.5833  1.0177
18152TIP3    H175947   1.999   4.479  16.044  1.0752  2.5596  0.0532
18152TIP3    H275948   2.031   4.475  15.896 -0.1744 -1.5231 -0.2254
18153TIP3   OH275949   2.528   2.118  14.690  0.4182 -0.1103 -0.1276
18153TIP3    H175950   2.534   2.060  14.614  0.3183  1.3915 -1.3236
18153TIP3    H275951   2.619   2.130  14.717  0.4570 -0.6300 -0.0088
18154TIP3   OH275952   2.259   0.611  15.938  0.3350  0.0337  0.3741
18154TIP3    H175953   2.323   0.673  15.903 -0.0252  0.2588  0.1113
18154TIP3    H275954   2.206   0.663  15.999 -0.6394  0.2478 -0.6338
18155TIP3   OH275955   5.051   1.687  16.094  0.3235 -0.6444 -0.0788
18155TIP3    H175956   5.114   1.670  16.023  1.2129 -1.4270  0.8559
18155TIP3    H275957   4.973   1.639  16.068  0.7737 -1.2517 -0.3490
18156TIP3   OH275958   5.634   0.855  16.858 -0.0418  0.1917 -0.3288
18156TIP3    H175959   5.598   0.860  16.947  0.2011 -2.2430 -0.0304
18156TIP3    H275960   5.656   0.946  16.837 -1.5957  1.0753  1.4434
18157TIP3   OH275961   5.957   4.750   1.878  0.0272 -0.0270  0.0026
18157TIP3    H175962   6.020   4.692   1.833 -0.0302 -0.1277  0.0509
18157TIP3    H275963   6.011   4.819   1.916  0.1309 -0.2194  0.2082
18158TIP3   OH275964   3.592   3.073   3.618 -0.0854 -0.0056 -0.1083
18158TIP3    H175965   3.538   3.020   3.676  0.1815 -0.5840 -0.3803
18158TIP3    H275966   3.540   3.151   3.600  0.9830  1.7341  3.3915
18159TIP3   OH275967   0.048   4.529  15.115 -0.2828  0.2631  0.2007
18159TIP3    H175968  -0.042   4.504  15.099 -0.5169  0.4963  1.0706
18159TIP3    H275969   0.044   4.587  15.192  0.4355  1.5255 -0.6753
18160TIP3   OH275970   5.332   1.995  16.406  0.0449  0.2031 -0.3346
18160TIP3    H175971   5.352   2.046  16.328  0.3814  1.8062  0.7666
18160TIP3    H275972   5.388   2.031  16.474  0.2498 -1.6134  0.5136
18161TIP3   OH275973   5.483   0.355   1.889 -0.1441  0.0239  0.1090
18161TIP3    H175974   5.447   0.382   1.974  1.5290  0.1370  0.8145
18161TIP3    H275975   5.573   0.386   1.890  0.9534 -2.8379 -0.3284
18162TIP3   OH275976   5.177   0.937  13.397  0.5125  0.2197 -0.0198
18162TIP3    H175977   5.157   0.854  13.441  0.1490 -0.8638 -2.0987
18162TIP3    H275978   5.094   0.983  13.393  0.3425 -0.1132 -0.4096
18163TIP3   OH275979   3.037   3.561   5.028 -0.3696 -0.4655  0.0477
18163TIP3    H175980   3.004   3.627   4.967  1.2656 -0.0606 -0.4400
18163TIP3    H275981   3.084   3.611   5.095 -2.0542 -0.9088  1.6422
18164TIP3   OH275982   4.932   4.894   3.879 -0.0096  0.1988  0.0012
18164TIP3    H175983   4.846   4.855   3.859  0.4955 -0.4021 -1.0510
18164TIP3    H275984   4.991   4.819   3.883  0.7420  0.7438 -0.7529
18165TIP3   OH275985   6.018   5.261   3.277  0.2313 -0.0288  0.0791
18165TIP3    H175986   6.058   5.328   3.332  1.0235 -0.1795 -0.3063
18165TIP3    H275987   5.992   5.192   3.338 -0.7282  0.6685  0.5004
18166TIP3   OH275988   0.632   6.276   3.995  0.7033 -0.1101  0.0260
18166TIP3    H175989   0.682   6.213   3.943 -1.4979  0.5314 -3.1970
18166TIP3    H275990   0.643   6.359   3.949 -0.9584  0.6158  0.8449
18167TIP3   OH275991   1.307   6.790  12.056  0.1563  0.0205  0.2492
18167TIP3    H175992   1.355   6.868  12.028 -0.4211  0.2272 -0.1812
18167TIP3    H275993   1.311   6.793  12.152 -0.8393  1.2084  0.2818
18168TIP3   OH275994   4.091   1.365   0.640  0.4199  0.5857  0.2585
18168TIP3    H175995   4.057   1.396   0.556  1.3548  0.6351 -0.1147
18168TIP3    H275996   4.091   1.270   0.633 -0.3707  0.5550  0.5641
18169TIP3   OH275997   0.900   4.018   4.787 -0.5025  0.4906 -0.6941
18169TIP3    H175998   0.873   3.950   4.849 -0.6609  0.6475 -0.5883
18169TIP3    H275999   0.824   4.076   4.781  0.3641  1.9043  0.9258
18170TIP3   OH276000   1.050   1.572   4.540  0.3884  0.2023 -0.2630
18170TIP3    H176001   1.013   1.534   4.619 -1.6073  1.6933 -0.4105
18170TIP3    H276002   1.078   1.660   4.567  1.2424  0.1240 -0.8509
18171TIP3   OH276003   4.109   6.707   5.202  0.2154 -0.0892  0.3041
18171TIP3    H176004   4.048   6.634   5.200  1.8480 -1.4981 -1.0648
18171TIP3    H276005   4.196   6.666   5.210  1.4226  1.4421 -2.9959
18172TIP3   OH276006   3.251   5.071   1.885  0.3799 -0.4119 -0.0585
18172TIP3    H176007   3.199   5.050   1.807  3.1199 -0.9465 -1.8796
18172TIP3    H276008   3.313   4.999   1.892  2.3620  1.2808  0.6027
18173TIP3   OH276009   5.302   4.264   6.722  0.0687  0.0954  0.4901
18173TIP3    H176010   5.207   4.275   6.715  0.0414 -0.3794  0.0796
18173TIP3    H276011   5.336   4.298   6.639 -0.0395 -3.0126 -0.9584
18174TIP3   OH276012   6.695   3.776   4.284  0.1718 -0.4234  0.3504
18174TIP3    H176013   6.681   3.847   4.222 -2.1030 -0.1724  1.0603
18174TIP3    H276014   6.645   3.801   4.362  0.6713 -2.0246  1.2462
18175TIP3   OH276015   6.258   0.905   4.853 -0.2735  0.6271 -0.0505
18175TIP3    H176016   6.265   0.945   4.939 -0.0294  0.2398  0.1135
18175TIP3    H276017   6.221   0.974   4.797 -1.2712  0.6024  0.5521
18176TIP3   OH276018   3.492   5.470  12.268 -0.0412  0.1227 -0.0026
18176TIP3    H176019   3.486   5.442  12.176  1.3798  1.1270 -0.4526
18176TIP3    H276020   3.515   5.563  12.262  0.0548  0.2016  1.3772
18177TIP3   OH276021   5.654   6.019   4.107  0.0556 -0.8422 -0.6029
18177TIP3    H176022   5.716   6.091   4.122 -0.3258 -0.7341  0.5900
18177TIP3    H276023   5.578   6.061   4.067 -0.0234 -0.6340 -0.2430
18178TIP3   OH276024   4.123   0.671   6.247  0.2205 -0.2517  0.0341
18178TIP3    H176025   4.178   0.593   6.247  1.4000  0.5005 -2.1757
18178TIP3    H276026   4.088   0.676   6.336  3.3167 -1.0387  1.4152
18179TIP3   OH276027   4.889   1.458  17.114 -0.0156 -0.2804 -0.1336
18179TIP3    H176028   4.809   1.496  17.150 -0.7613 -0.1526 -1.8701
18179TIP3    H276029   4.879   1.364  17.129  0.4455 -0.1115  1.4234
18180TIP3   OH276030   0.288   1.305   2.095  0.0149  0.1237  0.0336
18180TIP3    H176031   0.219   1.317   2.030  0.4328  0.9978 -0.2646
18180TIP3    H276032   0.241   1.289   2.177 -0.5942  2.0319  0.0972
18181TIP3   OH276033   3.776   2.933   2.778  0.3600 -0.4517 -0.0473
18181TIP3    H176034   3.732   2.918   2.861 -0.5916 -0.5403 -0.5497
18181TIP3    H276035   3.862   2.893   2.788  0.8434  0.8934  1.4225
18182TIP3   OH276036   5.865   6.399   1.708 -1.2135  0.3276  0.6751
18182TIP3    H176037   5.919   6.325   1.679 -1.3541  0.2621  0.5793
18182TIP3    H276038   5.854   6.384   1.802  0.4111  1.2888  1.0613
18183TIP3   OH276039   0.167   5.350   1.609  0.1507 -0.0227 -0.3533
18183TIP3    H176040   0.222   5.385   1.679 -2.3080 -0.0371  1.7297
18183TIP3    H276041   0.093   5.411   1.603 -0.7352 -1.1414 -1.5162
18184TIP3   OH276042   1.171   5.366  16.302  0.0439 -0.9304  0.3413
18184TIP3    H176043   1.262   5.395  16.306  0.0337 -0.9103  0.4456
18184TIP3    H276044   1.164   5.318  16.220 -0.0137 -0.3717  0.0143
18185TIP3   OH276045   2.152   0.309  14.090 -0.1896  0.2672 -0.1417
18185TIP3    H176046   2.131   0.249  14.162 -1.6852  0.5974 -0.2701
18185TIP3    H276047   2.094   0.384  14.104  1.1765  1.4090 -0.3663
18186TIP3   OH276048   0.730   6.737  13.475 -0.0131  0.5068 -0.2318
18186TIP3    H176049   0.711   6.685  13.553  0.1171  0.4498 -0.2385
18186TIP3    H276050   0.818   6.771  13.489  0.1056  0.2964 -0.4643
18187TIP3   OH276051   3.564   2.212   6.491 -0.3364  0.3249  0.1218
18187TIP3    H176052   3.490   2.229   6.434  0.1485 -0.1104 -0.6537
18187TIP3    H276053   3.528   2.164   6.565 -0.8137  0.0825 -0.2712
18188TIP3   OH276054   0.019   2.706  15.106 -0.0534  0.7290  0.0227
18188TIP3    H176055   0.054   2.788  15.072 -1.2948  0.8056 -1.1693
18188TIP3    H276056   0.024   2.715  15.202  2.0817  1.1584 -0.0898
18189TIP3   OH276057   4.176   4.096   1.481 -0.0142 -0.0242 -0.2418
18189TIP3    H176058   4.187   4.046   1.562 -1.3096  0.2986  0.1588
18189TIP3    H276059   4.090   4.138   1.490 -0.3220 -0.2249 -1.9136
18190TIP3   OH276060   6.032   4.995   4.608 -0.4157  0.0768  0.3579
18190TIP3    H176061   5.975   5.063   4.570 -0.7382 -0.0804  0.5543
18190TIP3    H276062   6.110   5.042   4.635  0.5945 -0.0386 -2.0643
18191TIP3   OH276063   1.845   6.316  16.797  0.1391 -1.0257 -0.0417
18191TIP3    H176064   1.895   6.336  16.877  0.4976 -3.1376  0.3431
18191TIP3    H276065   1.757   6.297  16.828 -0.4915  0.9680 -0.5193
18192TIP3   OH276066   6.004   3.006  11.210 -0.5051 -0.5685  0.7087
18192TIP3    H176067   5.940   2.991  11.142  0.6488 -0.4783 -0.4371
18192TIP3    H276068   5.953   3.028  11.288 -1.8211 -0.2808 -0.2237
18193TIP3   OH276069   0.386   2.703   1.314 -0.1131 -0.2783  1.0245
18193TIP3    H176070   0.316   2.768   1.304  0.8552  0.8306  1.3172
18193TIP3    H276071   0.393   2.663   1.227  0.3174  1.1025  0.4016
18194TIP3   OH276072   1.624   5.812   4.684 -0.2196  0.4346  0.1334
18194TIP3    H176073   1.530   5.817   4.700 -0.1329 -0.3393  0.9492
18194TIP3    H276074   1.641   5.879   4.618 -0.7342  3.2556  2.6950
18195TIP3   OH276075   0.455   4.997   4.023  0.0247  0.4998 -0.0315
18195TIP3    H176076   0.365   4.974   4.043  0.0792  0.7213  0.5053
18195TIP3    H276077   0.466   5.085   4.060  0.5195  0.3869  0.1065
18196TIP3   OH276078   2.795   5.638  13.141 -0.8862  0.1773 -0.3344
18196TIP3    H176079   2.785   5.669  13.231  1.9419 -0.8975  0.4368
18196TIP3    H276080   2.773   5.545  13.144  0.4162 -0.1551 -0.4451
18197TIP3   OH276081   1.042   3.438  12.098  0.6118 -0.0925  0.5221
18197TIP3    H176082   1.123   3.392  12.073  0.5604  0.4412 -0.7171
18197TIP3    H276083   0.974   3.371  12.092  1.1109 -0.9147  2.9596
18198TIP3   OH276084   3.114   5.184  14.409 -0.0695  0.3557 -0.6083
18198TIP3    H176085   3.170   5.255  14.442  0.3139  0.2582 -1.0542
18198TIP3    H276086   3.143   5.107  14.458  0.5226  0.2043 -1.1935
18199TIP3   OH276087   0.164   3.401   1.422  0.4351  0.2484  0.0277
18199TIP3    H176088   0.189   3.471   1.361 -0.0542 -0.5351 -1.0941
18199TIP3    H276089   0.220   3.327   1.399  1.4184  0.4418  1.6527
18200TIP3   OH276090   6.660   0.537  11.872 -0.4104  0.1230  0.6226
18200TIP3    H176091   6.639   0.532  11.965 -2.0288 -1.6807  0.2323
18200TIP3    H276092   6.752   0.562  11.869 -0.3786  0.3811  2.6905
18201TIP3   OH276093   6.039   0.457  14.660 -0.5598  0.2734 -0.3465
18201TIP3    H176094   6.045   0.380  14.603  0.6179  0.4698 -0.5286
18201TIP3    H276095   5.972   0.435  14.724  0.2537 -1.2072  0.0353
18202TIP3   OH276096   0.792   5.172  14.310 -0.0755  0.0684  0.5616
18202TIP3    H176097   0.764   5.090  14.269  0.9735  0.3961 -0.8756
18202TIP3    H276098   0.723   5.235  14.289 -0.3018 -0.1466  0.6558
18203TIP3   OH276099   3.228   4.934   2.682 -0.4765 -0.0967  0.2847
18203TIP3    H176100   3.159   4.975   2.733 -0.4657  0.2906 -0.0051
18203TIP3    H276101   3.245   4.996   2.611 -1.0822 -0.9964 -0.6747
18204TIP3   OH276102   5.260   3.535  12.411 -0.3010  0.3090  0.1455
18204TIP3    H176103   5.338   3.488  12.381  0.5216  1.4099  0.4649
18204TIP3    H276104   5.215   3.562  12.331  0.6243  1.2057 -0.0973
18205TIP3   OH276105   1.242   6.069  12.067  0.5106  0.2543 -0.6797
18205TIP3    H176106   1.186   6.017  12.124 -0.7278  1.8438 -0.3915
18205TIP3    H276107   1.196   6.073  11.984  0.3314  1.3158 -0.5370
18206TIP3   OH276108   4.353   1.337  11.789 -0.1515  0.1938  0.1286
18206TIP3    H176109   4.309   1.252  11.790 -0.0889  0.1606  0.1331
18206TIP3    H276110   4.390   1.346  11.876  1.0737 -0.4334 -0.2984
18207TIP3   OH276111   3.653   2.642   5.905 -0.1661  0.1887 -0.0491
18207TIP3    H176112   3.657   2.558   5.950 -0.4534  0.5651  0.7265
18207TIP3    H276113   3.568   2.679   5.932 -0.1087  0.6597 -0.4878
18208TIP3   OH276114   1.686   2.769  11.654  0.3128 -0.2629 -0.4828
18208TIP3    H176115   1.618   2.781  11.719 -1.0489 -0.7969 -1.7620
18208TIP3    H276116   1.642   2.727  11.580  2.5217 -3.0257 -0.3994
18209TIP3   OH276117   0.435   3.359   0.019 -0.6765  0.0479  0.0965
18209TIP3    H176118   0.354   3.308   0.025 -0.5860 -0.2759 -1.2194
18209TIP3    H276119   0.436   3.393  -0.070  0.2992  0.6342  0.3166
18210TIP3   OH276120   2.339   5.229  13.075  0.2856  0.0507  0.0013
18210TIP3    H176121   2.397   5.158  13.104  0.3274 -0.2314 -0.7471
18210TIP3    H276122   2.396   5.305  13.069  0.0053  0.4587  1.9582
18211TIP3   OH276123   3.026   0.999   3.266 -0.5991  0.5321 -0.2881
18211TIP3    H176124   3.040   1.090   3.291  0.6276  0.0619  0.7882
18211TIP3    H276125   2.957   0.968   3.325 -0.5032  0.5479 -0.1688
18212TIP3   OH276126   0.071   5.366   3.803 -0.4383  0.2484 -0.4746
18212TIP3    H176127   0.092   5.421   3.729 -0.3865  1.8287  0.6621
18212TIP3    H276128  -0.001   5.411   3.847 -0.4734 -0.6421  0.4413
18213TIP3   OH276129   2.685   2.233   3.055  0.2716  0.0479  0.3657
18213TIP3    H176130   2.619   2.244   3.124 -0.7724  1.7998 -0.8389
18213TIP3    H276131   2.638   2.189   2.984  1.4884 -2.2717  0.8987
18214TIP3   OH276132   0.466   2.321   3.829 -0.0566  0.0731 -0.1116
18214TIP3    H176133   0.531   2.361   3.771 -0.8703  1.4101 -0.1558
18214TIP3    H276134   0.515   2.258   3.881  1.1757  0.6930 -0.4871
18215TIP3   OH276135   0.438   3.814   3.884 -0.4369 -0.8610 -0.2129
18215TIP3    H176136   0.374   3.804   3.814 -0.3718  0.3292 -0.4619
18215TIP3    H276137   0.449   3.909   3.893  1.5687 -1.0209 -0.4537
18216TIP3   OH276138   3.253   2.745   2.135 -0.3162 -0.1288 -0.4728
18216TIP3    H176139   3.168   2.742   2.091  0.2375 -1.0365 -1.5542
18216TIP3    H276140   3.316   2.731   2.064  0.7298  0.4124  0.3307
18217TIP3   OH276141   2.011   3.183  14.151 -0.3700  0.2649  0.8884
18217TIP3    H176142   1.982   3.095  14.176 -0.1222  0.3045  1.3322
18217TIP3    H276143   1.938   3.219  14.101 -1.2524  0.5104  2.3013
18218TIP3   OH276144   1.098   2.887   4.476  0.2756  0.3689 -0.0508
18218TIP3    H176145   1.178   2.939   4.474  1.2522 -1.0721  0.4541
18218TIP3    H276146   1.124   2.803   4.515 -1.1661 -0.6587 -1.1881
18219TIP3   OH276147   2.288   0.701  12.927  0.9600 -0.0242 -0.2990
18219TIP3    H176148   2.365   0.659  12.890  0.6810 -2.8949  2.0161
18219TIP3    H276149   2.265   0.647  13.002 -0.9022  3.0713  1.5869
18220TIP3   OH276150   2.531   0.933  16.242  0.6244  0.5743 -0.4721
18220TIP3    H176151   2.508   1.021  16.213 -1.4044  0.9951  2.0618
18220TIP3    H276152   2.605   0.945  16.302 -1.3026  1.0175  1.9705
18221TIP3   OH276153   1.183   2.776  11.888 -0.2120  0.1341  0.0635
18221TIP3    H176154   1.155   2.823  11.809 -1.2720 -1.1195 -0.3375
18221TIP3    H276155   1.180   2.842  11.957 -1.5185  0.7147 -0.5170
18222TIP3   OH276156   3.893   1.379  10.781 -0.1547  0.4112 -0.0920
18222TIP3    H176157   3.938   1.303  10.746 -0.1969  0.3040  0.0861
18222TIP3    H276158   3.830   1.403  10.714  1.6637  1.9166 -1.3673
18223TIP3   OH276159   5.467   1.476  11.876 -0.2454  0.0434  0.4601
18223TIP3    H176160   5.466   1.418  11.952 -1.3558 -0.0513  0.3876
18223TIP3    H276161   5.448   1.419  11.802 -1.3944  0.4789  0.3917
18224TIP3   OH276162   2.123   5.758   5.132  0.7801 -0.3064 -0.3989
18224TIP3    H176163   2.079   5.713   5.060  2.0176 -0.6784 -0.9566
18224TIP3    H276164   2.115   5.698   5.206 -0.0825 -0.1364 -0.3450
18225TIP3   OH276165   4.032   4.964   0.134 -0.1125 -0.0636  0.1427
18225TIP3    H176166   3.945   4.945   0.099  1.0327  0.0558 -3.1846
18225TIP3    H276167   4.020   5.046   0.183 -1.8321  0.1490 -0.5344
18226TIP3   OH276168   2.253   5.087  16.108  0.4326 -0.4927  0.0781
18226TIP3    H176169   2.296   5.017  16.059 -0.0037  0.7330 -2.1565
18226TIP3    H276170   2.231   5.153  16.043 -1.6544  0.5338  1.6992
18227TIP3   OH276171   3.359   0.824   1.439 -0.3033 -0.3120 -0.4283
18227TIP3    H176172   3.345   0.849   1.530  0.1677 -0.1136 -0.4061
18227TIP3    H276173   3.301   0.882   1.389  1.1476  1.2334 -0.4184
18228TIP3   OH276174   0.529   0.133   4.031  0.3203  0.0848 -0.2694
18228TIP3    H176175   0.588   0.205   4.007  0.2544  0.4083  0.5245
18228TIP3    H276176   0.461   0.135   3.963  1.5244 -0.6967 -1.5688
18229TIP3   OH276177   2.902   2.646   5.577  0.6073  0.5357 -0.1919
18229TIP3    H176178   2.881   2.682   5.490 -0.5974 -0.3305 -0.2877
18229TIP3    H276179   2.849   2.698   5.638  1.2036  0.9286 -0.0053
18230TIP3   OH276180   0.196   4.704   4.440  0.1854  0.1638 -0.1785
18230TIP3    H176181   0.206   4.708   4.344  1.9076  3.2510  0.0021
18230TIP3    H276182   0.173   4.794   4.465  0.4188 -0.4259  2.3906
18231TIP3   OH276183   5.926   2.667  15.520  0.1573  0.1144  0.1545
18231TIP3    H176184   5.924   2.574  15.498 -0.4777  0.1138  0.2068
18231TIP3    H276185   5.869   2.675  15.596 -1.9158  0.9415 -1.3968
18232TIP3   OH276186   2.426   1.969   1.987 -0.5777  0.2455  0.5703
18232TIP3    H176187   2.482   2.035   2.027 -1.0763  0.2163  1.3393
18232TIP3    H276188   2.486   1.904   1.952  0.0580  2.1481 -2.1862
18233TIP3   OH276189   1.671   3.048  12.080 -0.2326  0.0318  0.7373
18233TIP3    H176190   1.717   3.046  12.163  0.1230 -0.0237  0.5426
18233TIP3    H276191   1.608   3.120  12.089  0.1021  0.3086  0.9004
18234TIP3   OH276192   3.561   6.515   3.913 -0.0369 -0.2299  0.4056
18234TIP3    H176193   3.640   6.566   3.931 -0.3420  0.1861  0.5867
18234TIP3    H276194   3.564   6.498   3.819 -0.8929  1.7834 -0.0404
18235TIP3   OH276195   6.314   2.857  13.645  0.2470 -0.2333 -0.0914
18235TIP3    H176196   6.409   2.870  13.647  0.4146 -1.3644 -0.0661
18235TIP3    H276197   6.295   2.807  13.725 -0.1933 -1.0444 -0.6840
18236TIP3   OH276198   6.435   0.759   0.902 -0.5480 -0.0385 -0.2383
18236TIP3    H176199   6.437   0.842   0.854 -2.6039  0.2555  0.1060
18236TIP3    H276200   6.354   0.717   0.875 -1.3568 -0.2652  2.2881
18237TIP3   OH276201   2.099   1.832   1.182  0.1823  0.3389 -0.2818
18237TIP3    H176202   2.177   1.866   1.137 -0.1811  0.1552 -1.0595
18237TIP3    H276203   2.029   1.839   1.117 -0.2401 -0.4045  0.0898
18238TIP3   OH276204   2.811   2.162  14.508 -0.7337  0.1138 -0.4139
18238TIP3    H176205   2.853   2.077  14.492 -0.8804  0.1759 -1.1459
18238TIP3    H276206   2.883   2.225  14.507 -0.8038  0.1972 -1.4903
18239TIP3   OH276207   4.316   5.740  16.344  0.3603  0.3975  0.8596
18239TIP3    H176208   4.395   5.687  16.339  0.2499  0.3020 -0.0480
18239TIP3    H276209   4.303   5.772  16.255 -1.0688 -0.2379  0.8116
18240TIP3   OH276210   2.351   6.530   0.826 -0.6153 -0.3749 -0.2119
18240TIP3    H176211   2.378   6.443   0.796  0.9542 -0.7139  1.9509
18240TIP3    H276212   2.431   6.582   0.825 -0.7937  0.0201  1.7507
18241TIP3   OH276213   3.651   4.997   3.264  0.3035  0.3754 -0.0335
18241TIP3    H176214   3.661   5.073   3.322  2.3593 -0.0362  0.2414
18241TIP3    H276215   3.658   4.921   3.322 -0.6541 -0.0565 -0.4534
18242TIP3   OH276216   3.673   5.549  12.707 -0.2532 -0.2496  0.4096
18242TIP3    H176217   3.764   5.568  12.684  0.2680 -0.9895  1.6975
18242TIP3    H276218   3.644   5.485  12.642 -0.1202  0.5640 -0.4695
18243TIP3   OH276219   5.159   1.893  15.279  0.2400  0.3843 -0.5407
18243TIP3    H176220   5.192   1.837  15.209 -1.2335 -0.4268 -0.6218
18243TIP3    H276221   5.130   1.832  15.347  0.4126  1.1184  0.2072
18244TIP3   OH276222   2.628   0.647   6.307 -0.2147 -0.2494  0.1878
18244TIP3    H176223   2.571   0.586   6.354 -2.0969  0.7904 -0.6420
18244TIP3    H276224   2.609   0.732   6.346 -1.4749  0.5767 -2.0498
18245TIP3   OH276225   2.548   2.355  11.209  1.1066  0.2880 -0.1976
18245TIP3    H176226   2.462   2.315  11.223  1.2054  0.3204  0.5229
18245TIP3    H276227   2.532   2.425  11.146  0.6308  0.1939 -0.1836
18246TIP3   OH276228   4.870   3.683   2.056 -0.0956  0.5285  0.1860
18246TIP3    H176229   4.938   3.629   2.096  2.0227  0.7331 -2.7841
18246TIP3    H276230   4.798   3.622   2.039  1.3031 -0.8894 -0.9624
18247TIP3   OH276231   4.732   3.181  13.562  0.5206 -0.6930  0.7039
18247TIP3    H176232   4.751   3.223  13.645  0.8651  0.6747 -0.0435
18247TIP3    H276233   4.693   3.249  13.508 -0.8238 -1.8622  0.1267
18248TIP3   OH276234   1.762   1.110  14.273  0.5265 -0.3052 -0.8706
18248TIP3    H176235   1.741   1.202  14.256 -2.7390 -0.5005  1.2144
18248TIP3    H276236   1.714   1.061  14.206  1.9170 -0.5955 -1.7125
18249TIP3   OH276237   6.221   2.899   1.423 -0.4528 -0.0019 -0.4050
18249TIP3    H176238   6.251   2.810   1.406  1.0991  0.4085 -0.0540
18249TIP3    H276239   6.260   2.951   1.352 -2.9254  0.1716 -1.7544
18250TIP3   OH276240   2.292   3.452   5.265  0.2401 -0.3412 -0.2000
18250TIP3    H176241   2.334   3.383   5.214  0.9691  0.4562 -0.7071
18250TIP3    H276242   2.302   3.424   5.356  0.5438 -0.8901 -0.4007
18251TIP3   OH276243   2.987   4.437  11.260 -0.4636 -0.4261 -0.3984
18251TIP3    H176244   2.946   4.468  11.179 -1.5236 -0.5792  0.0628
18251TIP3    H276245   3.065   4.389  11.231 -1.1630 -0.9993 -1.3645
18252TIP3   OH276246   1.776   5.257   5.769 -0.6090  0.7182 -0.1422
18252TIP3    H176247   1.713   5.194   5.735 -0.4431  0.9994 -0.9990
18252TIP3    H276248   1.800   5.223   5.855 -0.0289 -0.7332 -0.8523
18253TIP3   OH276249   4.087   0.089   2.939 -0.1576 -0.3218 -0.1301
18253TIP3    H176250   3.996   0.111   2.922 -0.5110 -2.0496 -0.6883
18253TIP3    H276251   4.088   0.055   3.028  0.1581  0.6901  0.2706
18254TIP3   OH276252   0.232   5.616  14.814 -0.2022  0.1927 -0.3831
18254TIP3    H176253   0.154   5.600  14.867  0.7792 -0.1763  0.9968
18254TIP3    H276254   0.297   5.650  14.875  0.3936  1.6027 -1.7169
18255TIP3   OH276255   4.148   5.373  16.478 -0.4881 -0.8394  0.1508
18255TIP3    H176256   4.068   5.323  16.468 -0.7763 -0.2063 -0.9104
18255TIP3    H276257   4.211   5.330  16.420 -0.7109 -0.0660 -0.6960
18256TIP3   OH276258   4.102   2.657  14.552  0.5055 -0.1802  0.0006
18256TIP3    H176259   4.044   2.675  14.626  0.4885  0.7143 -0.2100
18256TIP3    H276260   4.144   2.574  14.573  2.9551  1.5178  2.6217
18257TIP3   OH276261   1.811   0.336  16.002 -0.7671  0.4584  0.2105
18257TIP3    H176262   1.906   0.353  15.996  0.1191 -3.2423  1.2885
18257TIP3    H276263   1.777   0.363  15.917  1.9341 -1.1866 -1.5610
18258TIP3   OH276264   1.068   5.206   2.387 -0.2382 -0.0384  0.0829
18258TIP3    H176265   1.094   5.145   2.319 -1.2081  0.2418 -0.5598
18258TIP3    H276266   1.002   5.262   2.346 -0.5758  0.3721  1.1386
18259TIP3   OH276267   3.842   0.949  11.525 -0.3019 -0.2393  0.6537
18259TIP3    H176268   3.799   0.948  11.440  0.9440 -0.1968 -0.0050
18259TIP3    H276269   3.790   1.009  11.578 -0.8336  0.0927 -0.2270
18260TIP3   OH276270   1.418   2.725  10.214 -0.2923  0.4588  0.2641
18260TIP3    H176271   1.503   2.704  10.250 -0.9693  0.4136  1.9060
18260TIP3    H276272   1.382   2.791  10.273 -1.0628  1.1001 -0.8746
18261TIP3   OH276273   5.014   4.328   5.692  0.3374 -0.0909 -0.0458
18261TIP3    H176274   5.094   4.350   5.643  0.1581  1.1944  0.2010
18261TIP3    H276275   4.944   4.376   5.647 -0.1850 -0.6537  0.1572
18262TIP3   OH276276   0.003   4.382   1.104  0.1564  0.1671 -0.1884
18262TIP3    H176277  -0.092   4.390   1.107  0.0121 -1.4385  0.7939
18262TIP3    H276278   0.019   4.287   1.106  1.7711  0.4205  0.3368
18263TIP3   OH276279   4.918   0.647  11.862  0.3820 -0.4752 -0.7387
18263TIP3    H176280   4.973   0.704  11.915 -0.6313  0.3131 -0.5161
18263TIP3    H276281   4.977   0.576  11.834  1.1000 -0.5161  0.8114
18264TIP3   OH276282   2.778   1.631   5.129 -0.2769  0.5900 -0.5797
18264TIP3    H176283   2.816   1.591   5.206 -1.4190  1.7515  0.6357
18264TIP3    H276284   2.843   1.695   5.100  0.9819 -1.1260 -1.7683
18265TIP3   OH276285   6.365   6.209  15.411 -0.4346 -0.2990  0.3006
18265TIP3    H176286   6.388   6.118  15.429 -2.8082 -1.2457 -1.0203
18265TIP3    H276287   6.285   6.204  15.358 -0.5571  2.5600  0.0446
18266TIP3   OH276288   4.991   4.593   0.422 -0.1389 -0.8579 -0.3214
18266TIP3    H176289   4.898   4.612   0.430  0.3599  1.7666  0.2941
18266TIP3    H276290   5.018   4.565   0.509  0.2448  1.9433  0.5776
18267TIP3   OH276291   1.844   5.476   5.621 -0.2168  0.0716  0.1501
18267TIP3    H176292   1.772   5.532   5.649  1.3185  0.6097  3.4393
18267TIP3    H276293   1.828   5.392   5.665 -0.5274 -0.9399 -1.7794
18268TIP3   OH276294   1.473   0.075  16.286  0.3860 -0.4810 -0.2437
18268TIP3    H176295   1.384   0.075  16.253  0.9813 -1.5671 -1.9922
18268TIP3    H276296   1.464   0.079  16.381 -1.4839  0.1220 -0.4230
18269TIP3   OH276297   2.162   3.092  16.502 -0.0766 -0.1070  0.3230
18269TIP3    H176298   2.192   3.136  16.423  0.9853 -1.1965  0.0852
18269TIP3    H276299   2.067   3.087  16.492 -0.1020  1.0781 -0.1668
18270TIP3   OH276300   4.807   3.834  15.067  0.8146  0.5676 -0.6732
18270TIP3    H176301   4.892   3.867  15.038  2.2642 -3.4379 -1.5202
18270TIP3    H276302   4.767   3.798  14.987 -1.4201  1.6302 -0.1368
18271TIP3   OH276303   2.969   5.553   1.899 -0.1734  0.0353 -0.0066
18271TIP3    H176304   3.000   5.473   1.856  1.7199  0.3703  0.6462
18271TIP3    H276305   3.012   5.552   1.984 -0.3152  1.6182  0.0978
18272TIP3   OH276306   1.695   3.103   4.493  0.5181 -0.4869 -0.3530
18272TIP3    H176307   1.695   3.192   4.529 -1.5363  0.2329 -1.9568
18272TIP3    H276308   1.656   3.050   4.562 -1.0680  0.4257 -0.5014
18273TIP3   OH276309   3.321   1.943   5.410  0.7080 -0.8681 -0.1259
18273TIP3    H176310   3.252   1.886   5.443  0.0083  0.0503  0.0384
18273TIP3    H276311   3.299   1.958   5.319 -0.3672  0.8717  0.3640
18274TIP3   OH276312   2.566   0.770   3.919  0.1804  0.2572  0.0505
18274TIP3    H176313   2.477   0.769   3.955  0.4012 -2.5587  0.7961
18274TIP3    H276314   2.554   0.780   3.825 -1.0291 -0.8555  0.0546
18275TIP3   OH276315   0.686   0.665   2.391 -0.0759  0.9971 -0.0011
18275TIP3    H176316   0.753   0.625   2.336  0.2082 -0.3104  1.2293
18275TIP3    H276317   0.636   0.591   2.426 -2.1616  1.9262 -0.8215
18276TIP3   OH276318   3.630   3.489   1.527 -0.1596 -0.4917 -0.2128
18276TIP3    H176319   3.554   3.437   1.500 -0.0549 -0.3135 -0.8447
18276TIP3    H276320   3.705   3.448   1.483 -0.3798  1.7892 -2.9951
18277TIP3   OH276321   4.630   0.731  14.244  0.5435 -0.2448  0.1753
18277TIP3    H176322   4.597   0.779  14.168 -0.0692  0.9727  1.1784
18277TIP3    H276323   4.609   0.639  14.225  0.2459  0.0492 -1.0321
18278TIP3   OH276324   0.237   1.976   4.053 -0.2250 -0.1244  0.0852
18278TIP3    H176325   0.276   2.010   4.133  1.5799 -0.3380 -0.6466
18278TIP3    H276326   0.250   1.881   4.058  0.1990 -0.1104 -0.5848
18279TIP3   OH276327   3.090   0.607   0.264  0.0147  0.6751 -0.2182
18279TIP3    H176328   3.029   0.622   0.192 -0.2619 -0.1292 -0.1653
18279TIP3    H276329   3.125   0.694   0.285  0.5510  0.8403 -1.7102
18280TIP3   OH276330   5.515   1.345   2.825  0.2636  0.3845  0.3840
18280TIP3    H176331   5.515   1.251   2.843 -0.8670 -0.0558 -1.6357
18280TIP3    H276332   5.433   1.377   2.862 -0.7652 -0.0225 -1.4189
18281TIP3   OH276333   4.831   0.822   3.397 -0.0498 -0.5998 -0.0442
18281TIP3    H176334   4.809   0.791   3.309  2.2630  0.3229 -1.0191
18281TIP3    H276335   4.792   0.909   3.403  0.4867 -0.3203 -0.5027
18282TIP3   OH276336   6.356   6.660  14.988 -0.6098 -0.3194 -0.0752
18282TIP3    H176337   6.371   6.592  14.922 -0.0484 -0.1596 -0.1207
18282TIP3    H276338   6.352   6.613  15.071  2.0933 -0.2328  0.1903
18283TIP3   OH276339   1.870   5.888  13.218  0.0383 -0.3834  0.0315
18283TIP3    H176340   1.830   5.831  13.152 -0.5454  0.1765 -0.1001
18283TIP3    H276341   1.866   5.976  13.180 -0.6892  0.0074  0.9945
18284TIP3   OH276342   5.150   4.119   6.024 -0.0124  0.5633 -0.3893
18284TIP3    H176343   5.168   4.130   6.118  0.1405 -1.2809 -0.1645
18284TIP3    H276344   5.069   4.067   6.022  1.1737 -1.3612 -1.2073
18285TIP3   OH276345   5.590   6.303  10.970 -0.3698 -0.4153 -0.3929
18285TIP3    H176346   5.574   6.293  11.063  1.3466  0.1190 -0.0032
18285TIP3    H276347   5.503   6.313  10.931 -1.0229  2.0498  1.4783
18286TIP3   OH276348   0.491   0.832   1.154  0.0123  0.2370 -0.1752
18286TIP3    H176349   0.425   0.814   1.087  1.2797 -2.0601 -0.9026
18286TIP3    H276350   0.563   0.773   1.134  1.4553  1.1917  1.8193
18287TIP3   OH276351   4.266   4.104   6.636 -0.8265 -0.0491  0.0350
18287TIP3    H176352   4.266   4.011   6.659  1.0862 -0.0056  0.3998
18287TIP3    H276353   4.220   4.146   6.709 -2.0015 -0.7196 -0.2936
18288TIP3   OH276354   5.127   3.770   1.332 -0.4884 -0.6081 -0.0083
18288TIP3    H176355   5.198   3.757   1.395 -0.4332  0.7170  0.2231
18288TIP3    H276356   5.146   3.854   1.290 -2.2104  0.0704  0.4743
18289TIP3   OH276357   6.306   0.480  15.508  0.1419 -0.1498 -0.2178
18289TIP3    H176358   6.362   0.403  15.495  1.1763  0.7655 -1.6287
18289TIP3    H276359   6.229   0.448  15.553  2.1875 -1.3473  2.7176
18290TIP3   OH276360   3.173   3.008   6.518  0.2616  0.3877 -0.0954
18290TIP3    H176361   3.231   3.024   6.444  1.4203 -2.0449  0.1678
18290TIP3    H276362   3.227   3.027   6.595 -0.3185  1.0740  0.1516
18291TIP3   OH276363   0.844   4.718   4.080  0.1999 -0.6341 -0.1422
18291TIP3    H176364   0.842   4.698   4.174  1.7077 -0.5588 -0.0743
18291TIP3    H276365   0.823   4.811   4.076  1.5380 -0.2958  0.2591
18292TIP3   OH276366   1.020   0.792   0.693 -0.7329  0.2927  0.2276
18292TIP3    H176367   1.062   0.802   0.607 -1.4126 -0.3339 -0.1972
18292TIP3    H276368   1.029   0.878   0.734  1.2776  0.0657  0.3219
18293TIP3   OH276369   3.494   2.037  15.262 -0.4617 -0.8280  0.6583
18293TIP3    H176370   3.550   1.965  15.232 -0.2708 -0.2123 -0.5410
18293TIP3    H276371   3.508   2.106  15.197 -2.1046 -0.4128  0.7143
18294TIP3   OH276372   3.743   1.745   0.201  0.4492  0.0115 -0.2285
18294TIP3    H176373   3.716   1.806   0.132 -2.2044  0.0744  0.7550
18294TIP3    H276374   3.819   1.786   0.241 -0.1266  1.7558 -0.8264
18295TIP3   OH276375   0.626   6.701   2.636 -0.1125  0.8121 -0.1449
18295TIP3    H176376   0.617   6.736   2.725 -0.0734  2.3681 -0.7184
18295TIP3    H276377   0.536   6.692   2.605 -0.1307  0.1276  0.0939
18296TIP3   OH276378   5.345   4.973  11.217 -0.5597  0.4897  0.4463
18296TIP3    H176379   5.312   4.961  11.306  1.7421 -0.4570  1.2564
18296TIP3    H276380   5.359   4.884  11.185 -0.8251  0.8353 -0.6495
18297TIP3   OH276381   2.246   0.757  16.499 -0.4869  0.5556 -0.6565
18297TIP3    H176382   2.268   0.685  16.439 -1.5596 -0.0366 -0.3685
18297TIP3    H276383   2.152   0.746  16.516 -0.2938  0.9423  0.8258
18298TIP3   OH276384   1.231   5.180  12.309  0.6877  0.0212  0.5414
18298TIP3    H176385   1.183   5.116  12.362 -0.6146 -0.5667 -1.2489
18298TIP3    H276386   1.310   5.133  12.281  0.3432 -0.3880  0.2481
18299TIP3   OH276387   6.416   4.548  12.096 -0.2831  0.4372 -0.1748
18299TIP3    H176388   6.380   4.629  12.132 -0.2124  0.1539  0.5297
18299TIP3    H276389   6.384   4.479  12.154  0.7724  0.0998  0.0248
18300TIP3   OH276390   2.522   0.349  12.876  0.6840 -0.4362  0.3521
18300TIP3    H176391   2.476   0.426  12.842  2.0892 -0.5366 -2.0436
18300TIP3    H276392   2.591   0.384  12.932 -0.1062 -0.1048  1.1335
18301TIP3   OH276393   6.704   2.478  13.754  0.3579 -0.9022  0.3207
18301TIP3    H176394   6.786   2.518  13.724 -0.2841  0.2502  0.0195
18301TIP3    H276395   6.728   2.435  13.836  1.1910 -0.2585  0.4375
18302TIP3   OH276396   1.549   1.977  15.349 -0.0091 -0.1956 -0.3771
18302TIP3    H176397   1.538   2.038  15.423  0.9971 -0.7620  0.2642
18302TIP3    H276398   1.641   1.986  15.325 -0.4394  0.3426 -1.9089
18303TIP3   OH276399   5.262   0.223  13.478  0.5060  0.3298 -0.1762
18303TIP3    H176400   5.190   0.222  13.541  2.2727  1.6736  2.0066
18303TIP3    H276401   5.304   0.137  13.488  0.2268  0.1862 -0.2322
18304TIP3   OH276402   1.112   6.059   3.228 -0.5838  0.5970 -0.8532
18304TIP3    H176403   1.103   6.138   3.174 -1.9040 -0.3912 -2.1858
18304TIP3    H276404   1.145   5.993   3.168 -0.7479 -0.1982 -0.0846
18305TIP3   OH276405   5.447   6.613  17.174  0.4366 -0.5227 -0.0419
18305TIP3    H176406   5.459   6.519  17.159  0.6358 -0.3550 -0.9538
18305TIP3    H276407   5.492   6.629  17.258 -1.2631 -1.5876  1.1434
18306TIP3   OH276408   2.312   5.097  16.966 -0.4899  0.2032 -0.4727
18306TIP3    H176409   2.321   5.151  16.888  0.4540 -1.6637 -1.7443
18306TIP3    H276410   2.394   5.112  17.014  0.6850 -1.5008 -1.8266
18307TIP3   OH276411   5.319   6.310   3.997  0.6411  0.3335  0.2097
18307TIP3    H176412   5.226   6.289   4.004  0.7029  0.2102  0.6741
18307TIP3    H276413   5.321   6.400   3.964  0.3547  0.4235  0.4349
18308TIP3   OH276414   0.589   3.036   3.059  0.0456 -0.7924 -0.2370
18308TIP3    H176415   0.609   2.943   3.056 -0.4652 -1.0174  1.8739
18308TIP3    H276416   0.502   3.041   3.098  0.0059  0.5594 -0.4508
18309TIP3   OH276417   1.720   5.023   4.192 -0.0713  0.1376 -0.2494
18309TIP3    H176418   1.728   5.086   4.121  3.7183 -0.0457 -0.2019
18309TIP3    H276419   1.715   5.076   4.271 -1.2282  0.3386 -0.4449
18310TIP3   OH276420   0.904   6.406   1.466  0.1679  0.7582  0.0929
18310TIP3    H176421   0.941   6.409   1.554  0.4821 -0.0665 -0.0037
18310TIP3    H276422   0.811   6.391   1.480  0.7288 -3.8053  0.2953
18311TIP3   OH276423   6.480   4.621   4.890  0.0462  0.4240 -0.1424
18311TIP3    H176424   6.386   4.631   4.871 -0.1068 -0.8680 -0.1184
18311TIP3    H276425   6.494   4.677   4.967 -1.0906 -0.6809  0.9092
18312TIP3   OH276426   3.687   6.055   2.242 -0.5380  0.4885 -0.0688
18312TIP3    H176427   3.744   6.080   2.315 -0.9881  2.7320 -0.4209
18312TIP3    H276428   3.600   6.047   2.281 -0.4993 -0.0166 -0.0737
18313TIP3   OH276429   4.692   0.323  11.099  0.2236 -0.2529  0.4652
18313TIP3    H176430   4.661   0.404  11.058  0.4548 -0.5074 -0.2399
18313TIP3    H276431   4.785   0.338  11.113  0.0060  0.1015  1.5728
18314TIP3   OH276432   1.404   1.512   1.345  0.0944 -0.1926  0.1044
18314TIP3    H176433   1.366   1.430   1.312  2.0482 -0.3748 -1.9311
18314TIP3    H276434   1.474   1.484   1.404 -0.9931  0.1091  1.6028
18315TIP3   OH276435   0.065   1.467   2.781 -0.4257  0.4282 -0.3565
18315TIP3    H176436   0.119   1.542   2.753 -0.8732  0.7093 -0.4835
18315TIP3    H276437  -0.009   1.468   2.721  0.2456 -0.9642 -1.2651
18316TIP3   OH276438   3.767   3.440   0.394  0.2409 -0.0623  0.3578
18316TIP3    H176439   3.745   3.529   0.421 -0.5339 -0.1778  0.1404
18316TIP3    H276440   3.773   3.445   0.299 -0.8554 -0.4615  0.2633
18317TIP3   OH276441   6.430   2.110  11.872  0.0723  0.3294  0.5565
18317TIP3    H176442   6.388   2.041  11.923 -1.1862  0.4699 -0.2326
18317TIP3    H276443   6.376   2.116  11.792 -0.7527  3.1820  1.2119
18318TIP3   OH276444   2.072   5.446   4.566 -0.2125 -0.8107 -0.3249
18318TIP3    H176445   2.070   5.511   4.636  2.5169 -0.5862 -0.3584
18318TIP3    H276446   2.007   5.477   4.503 -0.3342  0.8344  0.5454
18319TIP3   OH276447   6.626   3.180   2.819  0.0681 -0.2917  0.6959
18319TIP3    H176448   6.687   3.220   2.757 -0.1974 -0.0752  0.5732
18319TIP3    H276449   6.625   3.088   2.796  1.8001 -0.6689  1.8962
18320TIP3   OH276450   0.496   6.198   6.376  0.7063 -0.3540 -0.5380
18320TIP3    H176451   0.534   6.284   6.396 -0.6454  0.1487  0.0165
18320TIP3    H276452   0.558   6.135   6.411  0.7528  0.4397  0.8726
18321TIP3   OH276453   1.132   6.579  17.054  0.0442  0.0620 -0.1459
18321TIP3    H176454   1.082   6.601  17.133 -1.2744 -0.5058 -0.7896
18321TIP3    H276455   1.186   6.504  17.080 -0.5579 -0.2721  0.1648
18322TIP3   OH276456   0.428   0.883   3.262 -0.1929  0.0275  0.0609
18322TIP3    H176457   0.474   0.949   3.313 -1.5862  2.4350 -1.6351
18322TIP3    H276458   0.393   0.823   3.328  2.0884  0.2219  1.5836
18323TIP3   OH276459   4.883   2.920  14.223  0.6714  0.8386  0.2719
18323TIP3    H176460   4.840   2.858  14.164 -0.9556  1.2983  0.8914
18323TIP3    H276461   4.937   2.865  14.280  0.4199  0.1470 -0.1412
18324TIP3   OH276462   4.426   5.090   3.852 -0.5001  0.0613  0.3541
18324TIP3    H176463   4.333   5.077   3.833 -0.4045 -0.3449  0.1602
18324TIP3    H276464   4.434   5.184   3.870 -0.9109  0.1306  0.1791
18325TIP3   OH276465   6.016   5.630  11.202 -0.0116  0.4130  0.1273
18325TIP3    H176466   6.029   5.564  11.135 -0.7707 -0.0454  0.4220
18325TIP3    H276467   5.937   5.676  11.176  0.3164  0.9779  0.1130
18326TIP3   OH276468   2.115   3.216  14.449  0.2769 -0.0173  0.1074
18326TIP3    H176469   2.033   3.263  14.435 -0.3070 -1.4323 -1.4521
18326TIP3    H276470   2.093   3.146  14.510  1.0369  1.3331  2.0295
18327TIP3   OH276471   2.645   0.433   1.747 -0.3209  0.2508 -0.5163
18327TIP3    H176472   2.571   0.466   1.799 -0.7606 -0.3605 -0.7497
18327TIP3    H276473   2.604   0.391   1.671  0.2922  0.4426 -0.9555
18328TIP3   OH276474   0.950   4.709   2.809  0.0677 -0.2021 -0.0187
18328TIP3    H176475   1.012   4.744   2.744 -0.3319  0.1045 -0.2401
18328TIP3    H276476   1.004   4.659   2.869  0.3666 -0.9882 -0.9306
18329TIP3   OH276477   5.506   6.373  13.179 -0.4456  0.0213 -0.0057
18329TIP3    H176478   5.538   6.332  13.098 -1.5323 -2.0569  0.5276
18329TIP3    H276479   5.411   6.380  13.165 -0.5786  0.0706  0.9010
18330TIP3   OH276480   0.772   3.826   3.157  0.0576 -0.7089 -0.6733
18330TIP3    H176481   0.708   3.875   3.208  0.1576  0.4152 -1.5969
18330TIP3    H276482   0.739   3.736   3.157 -1.4140 -0.1883 -0.9795
18331TIP3   OH276483   0.288   4.903   1.788 -0.2811 -0.2556  0.0621
18331TIP3    H176484   0.347   4.978   1.781  0.5565 -1.0094 -1.6845
18331TIP3    H276485   0.202   4.941   1.809  0.5202  0.9753  1.2508
18332TIP3   OH276486   1.017   6.683  15.210 -0.7639  0.0845  0.4753
18332TIP3    H176487   0.978   6.673  15.297 -0.4955 -0.5727  0.5229
18332TIP3    H276488   0.948   6.656  15.150 -0.9315  0.4875  0.4852
18333TIP3   OH276489   2.093   4.710  14.896 -0.1855  0.2668 -0.0051
18333TIP3    H176490   2.066   4.730  14.806  1.2763  0.2173 -0.4912
18333TIP3    H276491   2.160   4.776  14.915  1.2069 -1.1272  0.1577
18334TIP3   OH276492   1.849   5.537   3.833  0.4466  0.0961 -0.0596
18334TIP3    H176493   1.881   5.621   3.802  1.8024 -0.8104 -1.2519
18334TIP3    H276494   1.769   5.521   3.781 -0.5867  1.2103  1.1213
18335TIP3   OH276495   5.548   5.047  12.232  0.1766 -0.0099  0.1722
18335TIP3    H176496   5.551   5.025  12.325  1.8312  1.4983  0.5323
18335TIP3    H276497   5.628   5.010  12.196  0.2058  0.5558 -0.3625
18336TIP3   OH276498   0.099   6.222  12.689  0.3822  0.1141 -0.4593
18336TIP3    H176499   0.157   6.248  12.760  1.4180 -0.7178 -0.9776
18336TIP3    H276500   0.043   6.155  12.728  1.6552 -1.1204 -0.6635
18337TIP3   OH276501   0.222   2.049  10.997  0.5376  0.1299 -0.0958
18337TIP3    H176502   0.159   2.032  11.066 -0.0965 -0.2017 -0.7473
18337TIP3    H276503   0.198   1.989  10.927  1.3284  0.2800 -0.5086
18338TIP3   OH276504   1.844   4.649   6.790  0.2292  0.0377 -0.2185
18338TIP3    H176505   1.763   4.680   6.831 -0.0631  0.9471 -1.3930
18338TIP3    H276506   1.903   4.631   6.863 -1.1796 -1.1448  0.6968
18339TIP3   OH276507   5.684   4.798   4.844  0.1376 -0.2221  0.6101
18339TIP3    H176508   5.634   4.722   4.875 -2.8441  0.8966 -1.0631
18339TIP3    H276509   5.626   4.873   4.858  1.8115  1.3601 -0.4251
18340TIP3   OH276510   3.837   1.494   0.508 -0.0554  0.3340 -0.7375
18340TIP3    H176511   3.810   1.542   0.586 -0.8271 -0.7575 -0.3131
18340TIP3    H276512   3.922   1.531   0.486  0.0467  0.8628  0.4460
18341TIP3   OH276513   4.674   2.306  16.817  0.8595  0.8581  0.1600
18341TIP3    H176514   4.718   2.391  16.816  0.1447  1.2374  0.3145
18341TIP3    H276515   4.581   2.327  16.817  0.6720  0.0694 -0.0361
18342TIP3   OH276516   4.435   6.798   1.636 -0.0343 -0.4076 -0.0538
18342TIP3    H176517   4.530   6.792   1.640  0.2870  2.7881  3.6218
18342TIP3    H276518   4.416   6.852   1.560  1.1585 -0.1379 -0.1627
18343TIP3   OH276519   0.494   5.568  16.363 -0.1596  0.3583  0.2004
18343TIP3    H176520   0.515   5.531  16.449 -0.6928  0.1629  0.2498
18343TIP3    H276521   0.434   5.640  16.383 -0.7746 -0.0755 -0.0501
18344TIP3   OH276522   3.690   1.500   2.217  0.1890  0.0509 -0.4765
18344TIP3    H176523   3.637   1.515   2.139 -0.8902 -1.0860  0.0127
18344TIP3    H276524   3.627   1.484   2.287  1.1357  1.0825  0.6671
18345TIP3   OH276525   3.166   6.071   2.466  0.7516 -0.1492  0.5540
18345TIP3    H176526   3.135   6.119   2.543  1.1373  0.9030  0.0745
18345TIP3    H276527   3.094   6.074   2.404  1.1533  0.7806  0.1092
18346TIP3   OH276528   1.360   0.126   2.692 -0.2346  0.2177  0.2077
18346TIP3    H176529   1.448   0.155   2.715 -0.1583  1.8415 -1.9036
18346TIP3    H276530   1.302   0.187   2.739 -0.1245  1.7041 -1.5061
18347TIP3   OH276531   6.661   5.431  10.908  0.5335  0.2635 -0.1659
18347TIP3    H176532   6.662   5.448  10.814 -0.0919  0.1314 -0.2010
18347TIP3    H276533   6.582   5.475  10.939 -0.6886 -1.8226 -0.1233
18348TIP3   OH276534   4.373   5.129  12.175 -0.2573  0.8311  0.0444
18348TIP3    H176535   4.455   5.095  12.138 -0.3423 -1.4724  1.7750
18348TIP3    H276536   4.305   5.090  12.120 -0.2604  1.2595 -0.2609
18349TIP3   OH276537   0.872   3.647   0.166 -0.4771  0.4233 -0.1676
18349TIP3    H176538   0.857   3.643   0.260  0.6880 -0.6310 -0.0048
18349TIP3    H276539   0.806   3.589   0.129  0.3450 -0.7813  0.1894
18350TIP3   OH276540   0.990   5.308   2.962 -0.0160 -0.3531  0.3645
18350TIP3    H176541   0.981   5.221   2.924 -0.4694 -0.3338  0.4187
18350TIP3    H276542   0.900   5.342   2.966  0.1864  0.2289  0.0786
18351TIP3   OH276543   6.719   2.787   3.813  0.1688 -0.2187 -0.0779
18351TIP3    H176544   6.787   2.732   3.853 -0.0558 -1.5222 -1.4182
18351TIP3    H276545   6.647   2.784   3.875 -0.4001 -2.7068 -0.7733
18352TIP3   OH276546   2.326   2.813   5.261 -0.3379 -0.3226  0.2439
18352TIP3    H176547   2.258   2.747   5.274 -0.6710  0.0214  0.2577
18352TIP3    H276548   2.407   2.762   5.250 -0.4828 -0.7023  0.9242
18353TIP3   OH276549   3.542   4.263   1.324  0.1605  0.3281 -0.0732
18353TIP3    H176550   3.551   4.345   1.276  1.5558 -0.3713 -1.0615
18353TIP3    H276551   3.538   4.289   1.416  0.6285  1.4951 -0.3749
18354TIP3   OH276552   1.389   5.703   5.483 -0.5665  0.0720 -0.1458
18354TIP3    H176553   1.451   5.748   5.425 -3.5344  1.2609 -2.7127
18354TIP3    H276554   1.413   5.611   5.477  1.5291  0.5712 -0.2019
18355TIP3   OH276555   3.469   2.657   2.437 -0.1395  0.2141 -0.1566
18355TIP3    H176556   3.541   2.669   2.498 -0.7425 -0.5638  0.7311
18355TIP3    H276557   3.497   2.585   2.380  0.3216  0.7847 -0.6717
18356TIP3   OH276558   0.741   3.397   0.103 -0.1340 -0.0794  0.0849
18356TIP3    H176559   0.763   3.365   0.190 -1.6077  1.8014  1.2226
18356TIP3    H276560   0.652   3.366   0.087 -0.1809  0.2730 -0.3873
18357TIP3   OH276561   1.049   4.463   6.104 -0.3314  0.2471  0.2630
18357TIP3    H176562   1.144   4.466   6.118  0.2075  1.3078 -2.8741
18357TIP3    H276563   1.013   4.512   6.178  1.6922  1.2161  0.7024
18358TIP3   OH276564   4.323   1.382  13.150  0.2838 -1.2784 -0.3979
18358TIP3    H176565   4.230   1.404  13.161  0.0620 -1.9151 -0.9314
18358TIP3    H276566   4.364   1.463  13.121  0.0660 -0.7500  0.6899
18359TIP3   OH276567   0.664   0.011  16.128  0.1915  0.1809  0.2419
18359TIP3    H176568   0.699  -0.019  16.212  1.2494  0.8355  0.0548
18359TIP3    H276569   0.741   0.019  16.071 -0.4490  0.2285 -0.6465
18360TIP3   OH276570   2.722   3.522   4.385 -0.2697  0.1113  0.1683
18360TIP3    H176571   2.653   3.529   4.319 -1.0849 -1.7081  0.7589
18360TIP3    H276572   2.683   3.471   4.456  1.0284  0.8361  1.4636
18361TIP3   OH276573   3.025   3.596  12.080 -0.3705 -0.0383  0.7492
18361TIP3    H176574   3.007   3.570  11.990 -2.1034 -0.9404  1.3065
18361TIP3    H276575   3.059   3.685  12.073 -0.1845 -0.1961 -0.7948
18362TIP3   OH276576   3.502   5.040  11.994  0.1173  0.3345  0.2761
18362TIP3    H176577   3.457   5.122  12.017  0.1708  0.6072 -0.5613
18362TIP3    H276578   3.591   5.067  11.972 -0.0949  0.1757 -0.8322
18363TIP3   OH276579   6.444   4.933  14.899 -0.2940  0.2338  0.4121
18363TIP3    H176580   6.350   4.920  14.913 -0.5531  2.0979  0.6522
18363TIP3    H276581   6.454   4.937  14.804 -0.4513 -0.0298  0.3849
18364TIP3   OH276582   4.663   0.854   5.361  0.2355 -0.0661 -0.1801
18364TIP3    H176583   4.656   0.947   5.383 -0.6007 -0.2381  0.3191
18364TIP3    H276584   4.715   0.817   5.432 -1.7655 -0.4679  1.1542
18365TIP3   OH276585   5.872   0.022  12.162 -0.2488 -0.0294  0.3073
18365TIP3    H176586   5.882  -0.011  12.073 -1.1833 -2.4246  0.9932
18365TIP3    H276587   5.958   0.014  12.201 -0.3435 -1.2585  0.2950
18366TIP3   OH276588   6.324   3.960   1.849  0.4771 -0.3461 -0.1789
18366TIP3    H176589   6.327   3.890   1.783 -0.6885 -1.9255  1.3565
18366TIP3    H276590   6.259   3.931   1.912  0.1814  2.0112  0.7157
18367TIP3   OH276591   1.561   6.652   5.804  0.1910 -0.3490  0.0768
18367TIP3    H176592   1.607   6.603   5.872  0.6281  0.3490  0.2848
18367TIP3    H276593   1.468   6.644   5.828  0.4214  1.0036  1.5139
18368TIP3   OH276594   0.111   0.659   0.992 -0.3392 -0.1280  0.4306
18368TIP3    H176595   0.070   0.740   1.021  0.9287  0.1789  1.4429
18368TIP3    H276596   0.099   0.598   1.064  0.0466 -0.3606  0.3059
18369TIP3   OH276597   2.951   2.639   4.499 -1.0622 -0.3241  0.3007
18369TIP3    H176598   2.904   2.563   4.532 -1.6699  0.6461  1.7950
18369TIP3    H276599   2.925   2.710   4.558 -0.7054  1.0971 -1.1814
18370TIP3   OH276600   0.649   3.350  12.897  0.2200  0.0233  0.2650
18370TIP3    H176601   0.690   3.424  12.942 -0.5174 -0.1938  1.3486
18370TIP3    H276602   0.598   3.390  12.827  0.1839  0.5205  0.5660
18371TIP3   OH276603   5.939   6.662   3.309 -0.6894 -0.2614  0.2654
18371TIP3    H176604   6.034   6.668   3.320 -0.5392 -2.7834  1.0099
18371TIP3    H276605   5.907   6.751   3.325  1.6661  1.1211 -1.9100
18372TIP3   OH276606   3.104   3.071   2.921  0.0251  0.6877 -0.4562
18372TIP3    H176607   3.179   3.036   2.872 -0.4682  0.4454 -1.0565
18372TIP3    H276608   3.142   3.135   2.980  0.9091 -0.5548  0.3812
18373TIP3   OH276609   1.674   3.040  12.634 -0.2726  0.6118 -0.0303
18373TIP3    H176610   1.746   3.078  12.582 -0.9182  1.9829  0.0279
18373TIP3    H276611   1.603   3.104  12.625 -0.4811  0.7725  2.3502
18374TIP3   OH276612   3.448   0.302   2.631 -0.4379  0.4908  0.1961
18374TIP3    H176613   3.439   0.213   2.664  0.3280  1.1117  2.2534
18374TIP3    H276614   3.537   0.328   2.657 -1.1957  2.3694  1.0495
18375TIP3   OH276615   6.129   5.526   1.272 -0.5110 -0.4095 -0.4838
18375TIP3    H176616   6.185   5.524   1.194  0.3619 -1.4739  0.1446
18375TIP3    H276617   6.047   5.563   1.241  0.0439 -0.1686 -1.7581
18376TIP3   OH276618   5.487   0.159  11.901  0.0938 -0.3146 -0.7770
18376TIP3    H176619   5.495   0.064  11.907  0.2666 -0.2088  1.8536
18376TIP3    H276620   5.524   0.192  11.983 -0.8836  1.9617 -1.1595
18377TIP3   OH276621   1.443   5.673   3.362  0.2317 -0.5620  0.0695
18377TIP3    H176622   1.473   5.587   3.389  1.6324 -0.3912 -0.8761
18377TIP3    H276623   1.443   5.725   3.443 -0.4191 -1.3773  0.6015
18378TIP3   OH276624   3.289   1.867   5.700  0.3690  0.2934  0.7427
18378TIP3    H176625   3.348   1.829   5.636  0.0615  1.6640 -0.4056
18378TIP3    H276626   3.332   1.948   5.727 -0.5408  0.8535  0.5713
18379TIP3   OH276627   1.200   0.626  17.173  0.0699  0.3112 -0.6135
18379TIP3    H176628   1.155   0.636  17.257  1.1989 -0.1642  0.0746
18379TIP3    H276629   1.145   0.672  17.110 -0.8503  0.5843  0.3715
18380TIP3   OH276630   0.987   1.411   6.031  0.2905 -0.9370 -0.1259
18380TIP3    H176631   0.898   1.378   6.039 -0.2448  0.6148  0.7446
18380TIP3    H276632   1.003   1.458   6.113  1.0478  0.7697 -1.2007
18381TIP3   OH276633   2.916   1.422   2.697  0.0926  0.4240  0.2041
18381TIP3    H176634   3.008   1.398   2.695 -0.1107 -0.3749 -1.5377
18381TIP3    H276635   2.901   1.457   2.785  1.7611 -0.5555  0.8985
18382TIP3   OH276636   2.603   6.765  14.259 -0.0269  0.0196 -0.4690
18382TIP3    H176637   2.643   6.846  14.292 -0.0036 -0.2144  0.0905
18382TIP3    H276638   2.556   6.730  14.335 -1.2541  0.2586 -1.0930
18383TIP3   OH276639   2.468   6.285   5.173  0.0614  0.1026 -0.7911
18383TIP3    H176640   2.503   6.215   5.117 -1.9231 -0.0240 -1.9355
18383TIP3    H276641   2.452   6.358   5.113 -0.8704  0.4202 -0.1713
18384TIP3   OH276642   1.749   1.493   2.585  0.2057 -0.2887  0.2942
18384TIP3    H176643   1.795   1.479   2.502  0.8545 -2.3288  0.9191
18384TIP3    H276644   1.746   1.588   2.595  0.2961  0.0128 -1.9408
18385TIP3   OH276645   4.527   6.757  12.135  0.5714  0.1440 -0.4569
18385TIP3    H176646   4.540   6.840  12.088  2.9027 -0.4718 -1.0656
18385TIP3    H276647   4.433   6.751  12.149  0.1688  2.0553 -1.9468
18386TIP3   OH276648   3.547   5.061   2.058 -0.5997 -0.2853  0.3802
18386TIP3    H176649   3.508   5.035   1.974 -3.6808  0.3820  1.4604
18386TIP3    H276650   3.565   4.978   2.103 -0.0331 -0.6253 -0.4456
18387TIP3   OH276651   3.194   5.169  16.259  0.2701  0.2635  0.1604
18387TIP3    H176652   3.259   5.099  16.252  0.4294  0.4110  0.1621
18387TIP3    H276653   3.118   5.136  16.210  0.2578 -0.0094  0.3624
18388TIP3   OH276654   5.794   5.390  14.564 -0.0373  0.4466  0.3179
18388TIP3    H176655   5.812   5.345  14.482 -0.6034 -0.7317  0.8120
18388TIP3    H276656   5.727   5.337  14.606 -1.0021  1.9643  0.7784
18389TIP3   OH276657   3.208   5.337  12.293  0.1257  0.1692  0.0452
18389TIP3    H176658   3.196   5.242  12.295 -0.1974  0.2054  1.8862
18389TIP3    H276659   3.298   5.349  12.263  0.2146 -0.7304 -0.0746
18390TIP3   OH276660   1.905   2.717  11.861  0.1392 -0.5135  0.6844
18390TIP3    H176661   1.820   2.733  11.819 -0.4076  0.4192  2.0583
18390TIP3    H276662   1.966   2.709  11.788 -1.1525 -1.4603 -0.3505
18391TIP3   OH276663   6.710   5.961  13.815 -0.8717 -0.3368 -0.6392
18391TIP3    H176664   6.763   5.928  13.742 -1.0568 -2.7357  0.2231
18391TIP3    H276665   6.727   5.899  13.886 -1.6336  1.2441  0.9887
18392TIP3   OH276666   1.300   1.836   1.738 -0.1216 -0.1411  0.5881
18392TIP3    H176667   1.332   1.922   1.711  1.7891 -1.0457 -0.2008
18392TIP3    H276668   1.233   1.813   1.674 -0.0356  0.3986  0.3056
18393TIP3   OH276669   0.399   2.466   1.646 -0.0803 -0.2393  0.0402
18393TIP3    H176670   0.369   2.377   1.630 -0.3763  0.0935 -1.3884
18393TIP3    H276671   0.461   2.483   1.575 -0.0781  0.7176  0.2615
18394TIP3   OH276672   1.802   3.097  12.353  0.5432  0.0402  0.9046
18394TIP3    H176673   1.881   3.045  12.366 -0.2196 -1.5006 -0.2284
18394TIP3    H276674   1.823   3.155  12.279  0.6199 -0.3953  0.5789
18395TIP3   OH276675   4.214   1.213   1.655  0.0747  0.1598  0.4172
18395TIP3    H176676   4.252   1.291   1.696  2.1011 -0.4689 -0.1664
18395TIP3    H276677   4.155   1.178   1.721  2.3843 -0.1839  2.4177
18396TIP3   OH276678   3.890   6.825   5.334 -0.4588 -0.0616 -0.1373
18396TIP3    H176679   3.983   6.843   5.318 -0.6062  0.1675 -0.7958
18396TIP3    H276680   3.884   6.808   5.428  0.7331 -3.0894 -0.5131
18397TIP3   OH276681   2.119   6.423  15.011  0.4212  0.2422 -0.0550
18397TIP3    H176682   2.211   6.423  14.985  0.1200 -1.2447 -1.2396
18397TIP3    H276683   2.072   6.396  14.932 -0.9386 -0.0553  0.8304
18398TIP3   OH276684   3.646   5.913  11.558  0.0324  0.0594  0.2695
18398TIP3    H176685   3.664   5.867  11.476 -2.1636 -1.3035  0.4717
18398TIP3    H276686   3.707   5.874  11.621  0.9682  0.3332 -0.4401
18399TIP3   OH276687   0.110   3.073  16.965 -0.6859  0.0091 -0.2568
18399TIP3    H176688   0.141   2.991  16.925 -0.5485  0.5588 -1.3113
18399TIP3    H276689   0.017   3.059  16.978 -0.3138 -1.1283  1.6365
18400TIP3   OH276690   4.451   2.496   5.343 -0.0017 -0.0864 -0.2922
18400TIP3    H176691   4.388   2.560   5.377  0.3739 -0.9801  2.2818
18400TIP3    H276692   4.485   2.536   5.263 -1.7862  1.6606 -0.2521
18401TIP3   OH276693   6.686   4.736  14.096  0.1197 -0.2486  0.4884
18401TIP3    H176694   6.639   4.655  14.073 -1.0546 -0.2736  2.6858
18401TIP3    H276695   6.618   4.804  14.095  0.7192  0.3647  0.5005
18402TIP3   OH276696   3.394   6.740  17.053  0.0557 -0.2180  0.1192
18402TIP3    H176697   3.403   6.829  17.087  0.8221 -0.3932  0.4081
18402TIP3    H276698   3.345   6.750  16.972 -0.0675  0.4390  0.2652
18403TIP3   OH276699   2.050   1.020  12.700 -0.2872 -0.4137 -0.1203
18403TIP3    H176700   2.144   1.037  12.698 -0.1260 -1.3234 -0.9299
18403TIP3    H276701   2.034   0.984  12.787 -0.1366  1.0022  0.5170
18404TIP3   OH276702   0.624   5.938   6.638 -0.2776 -0.2564  0.3219
18404TIP3    H176703   0.683   5.947   6.713 -1.4939  1.7323  1.1273
18404TIP3    H276704   0.649   6.010   6.580 -0.1612 -1.0352 -0.5959
18405TIP3   OH276705   0.597   6.216   0.897 -0.2709 -0.0710 -0.0879
18405TIP3    H176706   0.659   6.212   0.970 -1.4964  0.2828  1.0109
18405TIP3    H276707   0.609   6.304   0.861  0.0184 -0.0833 -0.0233
18406TIP3   OH276708   6.213   6.591   1.550 -0.2607 -0.0286 -0.3144
18406TIP3    H176709   6.304   6.579   1.575  0.7553  2.5707 -2.2374
18406TIP3    H276710   6.180   6.503   1.532  2.2060 -0.9531 -0.6136
18407TIP3   OH276711   2.575   4.675   1.863 -0.2449 -0.3427  0.0753
18407TIP3    H176712   2.509   4.612   1.833 -1.5777  0.3956  1.3011
18407TIP3    H276713   2.566   4.675   1.959  0.1474  1.2278  0.1477
18408TIP3   OH276714   1.162   4.618  10.475  0.2564  0.0279 -0.3924
18408TIP3    H176715   1.237   4.648  10.525 -0.4444  0.9527  0.1453
18408TIP3    H276716   1.166   4.667  10.393 -0.8584  1.6279  0.4641
18409TIP3   OH276717   2.105   4.297   2.657 -0.7465  0.0923  0.4033
18409TIP3    H176718   2.035   4.304   2.591  1.1978  1.8001 -1.6110
18409TIP3    H276719   2.117   4.203   2.668 -0.9423 -0.2699 -1.9591
18410TIP3   OH276720   0.232   1.701   2.198  0.5471 -0.1629 -0.4481
18410TIP3    H176721   0.265   1.711   2.109  0.3239  0.6614 -0.4393
18410TIP3    H276722   0.137   1.702   2.189  0.5243  0.3960 -0.1469
18411TIP3   OH276723   5.567   2.753  15.947  0.2790 -0.0189  0.3926
18411TIP3    H176724   5.510   2.768  16.022 -1.5676 -0.6536 -0.8215
18411TIP3    H276725   5.577   2.658  15.944 -2.8841 -0.4312 -2.3141
18412TIP3   OH276726   6.227   5.661  15.616  0.0153 -0.1902 -0.4852
18412TIP3    H176727   6.195   5.705  15.537 -0.4444 -2.1123 -1.4202
18412TIP3    H276728   6.154   5.604  15.643 -0.5625  1.6655  2.4026
18413TIP3   OH276729   4.265   6.118   1.662  0.1980  0.4881 -0.2462
18413TIP3    H176730   4.220   6.044   1.704 -0.3646  0.5919 -0.6491
18413TIP3    H276731   4.356   6.090   1.656 -0.0392 -0.2594 -0.5702
18414TIP3   OH276732   1.091   1.218  12.260 -0.3216 -0.2557 -0.3256
18414TIP3    H176733   0.997   1.228  12.244 -0.1765  0.3466 -0.8342
18414TIP3    H276734   1.119   1.303  12.293  0.2926  0.0031 -1.4539
18415TIP3   OH276735   5.959   2.949   3.602  0.2215  0.1810  0.2624
18415TIP3    H176736   6.028   2.946   3.536 -1.2807 -2.9944 -1.3726
18415TIP3    H276737   5.966   2.865   3.648 -0.9019  0.9274  1.9159
18416TIP3   OH276738   3.684   0.827   5.085 -0.6461  1.1360 -0.2027
18416TIP3    H176739   3.744   0.894   5.051 -0.7027  0.3970 -1.8955
18416TIP3    H276740   3.628   0.873   5.147  0.0529  2.3997 -0.4722
18417TIP3   OH276741   1.869   1.510   0.533  0.0129 -0.0796  0.5672
18417TIP3    H176742   1.779   1.535   0.552  0.2332 -0.5753  2.3990
18417TIP3    H276743   1.891   1.446   0.600  0.4122 -3.1309 -2.2324
18418TIP3   OH276744   4.979   2.813   2.269 -0.6311 -1.4300  0.4391
18418TIP3    H176745   4.932   2.894   2.287 -1.9935 -2.2819  0.9436
18418TIP3    H276746   5.008   2.820   2.178  1.3275  0.5621  1.1391
18419TIP3   OH276747   0.371   3.076   4.366 -0.0817 -0.0022 -0.2035
18419TIP3    H176748   0.279   3.092   4.389 -0.2522 -1.1244 -0.0539
18419TIP3    H276749   0.409   3.038   4.445  0.1563 -0.8306 -0.7064
18420TIP3   OH276750   2.800   0.444   6.244 -0.1956 -0.5094  0.5477
18420TIP3    H176751   2.884   0.445   6.290 -0.6484  1.1974  1.3866
18420TIP3    H276752   2.751   0.517   6.281 -1.9588 -1.2939 -0.1371
18421TIP3   OH276753   2.631   2.799   3.266 -0.5128  0.0422 -0.9204
18421TIP3    H176754   2.580   2.836   3.339 -1.1265 -1.1383 -0.7298
18421TIP3    H276755   2.627   2.866   3.198 -1.9642  0.1668 -0.7386
18422TIP3   OH276756   5.912   3.280   6.295  0.2659 -0.4026 -0.6908
18422TIP3    H176757   5.853   3.332   6.240  0.2818  1.3580  0.8491
18422TIP3    H276758   5.863   3.199   6.312 -1.7002  0.9092  0.3406
18423TIP3   OH276759   3.132   3.323   1.439 -0.7432 -0.6983 -0.3584
18423TIP3    H176760   3.198   3.278   1.491 -0.5196 -1.0756 -0.9552
18423TIP3    H276761   3.145   3.290   1.350  1.4540  2.7387 -1.5095
18424TIP3   OH276762   2.709   0.486  10.544  0.3901  0.3984 -0.1446
18424TIP3    H176763   2.684   0.574  10.515 -0.5789  0.8394  1.8396
18424TIP3    H276764   2.796   0.498  10.582 -0.7124  1.0782  2.3309
18425TIP3   OH276765   4.560   2.668   5.655 -0.1495  0.3177  0.5788
18425TIP3    H176766   4.595   2.670   5.566  0.9386 -1.0557  0.9398
18425TIP3    H276767   4.478   2.620   5.647  1.2632 -2.2796  0.6662
18426TIP3   OH276768   3.810   0.596  11.416  0.0538  0.3925 -0.1752
18426TIP3    H176769   3.789   0.520  11.471  2.4961  0.1129  0.4762
18426TIP3    H276770   3.814   0.560  11.327 -1.5967  0.3871 -0.2920
18427TIP3   OH276771   2.943   3.175   1.575  0.1476  0.9385 -0.4023
18427TIP3    H176772   2.987   3.167   1.660 -1.6958 -1.1353  0.4723
18427TIP3    H276773   2.988   3.247   1.531  2.2175  1.0368  1.6748
18428TIP3   OH276774   0.500   3.640  15.699  0.1795  0.0648  0.4706
18428TIP3    H176775   0.407   3.656  15.714  0.3822 -0.1558  2.2319
18428TIP3    H276776   0.504   3.593  15.616 -1.2665  0.1888  0.3155
18429TIP3   OH276777   2.458   0.292  13.706 -0.6746 -0.6815  0.0948
18429TIP3    H176778   2.409   0.252  13.778 -0.9036  1.0387  0.9407
18429TIP3    H276779   2.415   0.376  13.691  0.4409 -0.2597 -0.8898
18430TIP3   OH276780   4.628   4.397   6.499 -0.4971 -0.2494 -0.4851
18430TIP3    H176781   4.700   4.459   6.490 -0.2630 -0.5176 -0.4387
18430TIP3    H276782   4.552   4.444   6.462 -0.8147  0.8979  1.4849
18431TIP3   OH276783   0.334   4.115   0.272  0.1916 -0.3907 -0.4394
18431TIP3    H176784   0.338   4.211   0.268  2.3171 -0.4262 -0.6635
18431TIP3    H276785   0.299   4.096   0.359 -0.4563  0.5803 -0.4726
18432TIP3   OH276786   0.408   3.360   1.620 -0.1145 -0.4358 -0.6275
18432TIP3    H176787   0.471   3.307   1.571  1.8171  1.7595 -0.6870
18432TIP3    H276788   0.344   3.388   1.554  0.7795  0.0500 -1.3164
18433TIP3   OH276789   0.312   1.744  15.926  0.1921  0.0712 -0.4256
18433TIP3    H176790   0.407   1.750  15.940  0.4595 -0.0616 -2.0716
18433TIP3    H276791   0.301   1.740  15.831 -1.3323 -2.1225 -0.2306
18434TIP3   OH276792   4.366   4.725  12.441 -0.3239 -0.0567 -0.3247
18434TIP3    H176793   4.406   4.702  12.357 -1.4852  0.3467 -1.0136
18434TIP3    H276794   4.275   4.695  12.433 -0.0987 -1.2731  1.3283
18435TIP3   OH276795   5.081   3.010   6.549 -0.1076  0.5124 -0.4445
18435TIP3    H176796   5.043   3.097   6.558 -1.3602 -0.0682  0.3534
18435TIP3    H276797   5.168   3.017   6.587 -0.4202  1.2856  0.1532
18436TIP3   OH276798   1.744   3.327   3.454 -0.0053 -0.1010 -0.1663
18436TIP3    H176799   1.792   3.317   3.372  0.1096 -1.0788  0.0090
18436TIP3    H276800   1.720   3.238   3.479 -2.9760  0.3905 -0.8809
18437TIP3   OH276801   4.579   0.098  14.492 -0.8304  0.0328  0.5614
18437TIP3    H176802   4.591   0.109  14.586 -0.4227  0.5838  0.4526
18437TIP3    H276803   4.570   0.003  14.480 -0.8578 -0.0454  1.1468
18438TIP3   OH276804   3.594   2.332   5.914 -0.1336 -0.0474 -0.1414
18438TIP3    H176805   3.600   2.240   5.942  1.0041  0.5197  1.6300
18438TIP3    H276806   3.627   2.332   5.825  1.0862 -1.1857  0.2779
18439TIP3   OH276807   0.448   1.544  12.014  0.3719  0.0538 -0.3967
18439TIP3    H176808   0.358   1.511  12.020 -0.8137  2.9433 -0.7582
18439TIP3    H276809   0.466   1.581  12.100 -0.1147  2.4199 -1.2360
18440TIP3   OH276810   0.648   5.459   1.283  0.0340  0.6409  0.1747
18440TIP3    H176811   0.568   5.484   1.238  0.3641  0.2299 -0.6690
18440TIP3    H276812   0.703   5.420   1.214 -0.2364 -1.8710  1.2537
18441TIP3   OH276813   3.952   1.708  14.164 -0.3181 -0.1636 -0.0043
18441TIP3    H176814   3.987   1.784  14.212  0.6082 -0.8605  0.4654
18441TIP3    H276815   3.876   1.681  14.216  0.2890 -0.5114  0.7172
18442TIP3   OH276816   4.935   1.132  16.233  0.2587 -0.1477 -0.3152
18442TIP3    H176817   4.933   1.045  16.193 -0.8597 -0.0113 -0.5682
18442TIP3    H276818   4.844   1.152  16.252  0.7066 -0.0740  2.0490
18443TIP3   OH276819   6.124   2.344  12.834  0.0455  0.4336  0.3752
18443TIP3    H176820   6.152   2.409  12.898 -0.1809  0.8064  0.0961
18443TIP3    H276821   6.034   2.368  12.813 -0.6120 -0.8940  1.4628
18444TIP3   OH276822   0.974   1.627  13.802  0.3418  0.0067 -0.2115
18444TIP3    H176823   1.018   1.712  13.808  0.4056 -0.0405  0.0170
18444TIP3    H276824   0.941   1.623  13.713  0.5741  0.1564 -0.3060
18445TIP3   OH276825   3.477   0.468   3.777 -0.1716  0.7102  0.2276
18445TIP3    H176826   3.423   0.395   3.809 -0.2589  0.5902 -0.1977
18445TIP3    H276827   3.460   0.538   3.840 -0.3433  0.4727  0.4523
18446TIP3   OH276828   5.239   6.286   0.394  1.2746 -0.3244  0.6200
18446TIP3    H176829   5.324   6.326   0.373  0.9722 -0.2572 -0.5415
18446TIP3    H276830   5.217   6.322   0.481  1.5201  1.2198  0.0851
18447TIP3   OH276831   5.058   6.177  11.477 -0.3106 -0.2621 -0.4464
18447TIP3    H176832   5.041   6.250  11.536 -2.3170 -0.8716 -0.1786
18447TIP3    H276833   5.073   6.217  11.392 -0.3750  0.5057 -0.1038
18448TIP3   OH276834   6.742   2.691   2.005 -0.3229  0.1694  0.4215
18448TIP3    H176835   6.668   2.718   2.059  0.7089  0.1869  1.8922
18448TIP3    H276836   6.758   2.765   1.946 -1.1448  0.3626  0.4388
18449TIP3   OH276837   3.669   1.171  12.866 -0.3978 -0.1827 -0.2960
18449TIP3    H176838   3.669   1.242  12.930 -2.1334  0.1779 -0.6394
18449TIP3    H276839   3.723   1.203  12.794  0.1148  0.1348  0.2216
18450TIP3   OH276840   3.570   1.837  12.872  0.0316 -0.4019 -0.0927
18450TIP3    H176841   3.582   1.890  12.951  1.3368 -0.1456 -0.4326
18450TIP3    H276842   3.520   1.761  12.901  0.0235 -0.0409  0.8631
18451TIP3   OH276843   5.295   0.457   4.882  0.7842  0.0940  0.3225
18451TIP3    H176844   5.351   0.421   4.950  2.1780  0.2075 -0.7106
18451TIP3    H276845   5.289   0.387   4.817  1.3204  0.7444 -0.4564
18452TIP3   OH276846   2.833   2.014   4.437  0.2743 -0.5313 -0.0220
18452TIP3    H176847   2.850   2.041   4.527 -1.3835  1.1175 -0.1430
18452TIP3    H276848   2.896   2.063   4.384  0.4804 -0.6295  0.1297
18453TIP3   OH276849   1.605   4.555  14.120 -0.2247 -0.0837  1.0872
18453TIP3    H176850   1.641   4.467  14.108 -1.7136 -0.7421  1.1887
18453TIP3    H276851   1.631   4.603  14.042 -1.1901 -1.2734 -0.0060
18454TIP3   OH276852   5.329   1.511   5.246  0.6099 -0.1908  0.0050
18454TIP3    H176853   5.318   1.478   5.157  0.0622  1.1953 -0.4562
18454TIP3    H276854   5.414   1.556   5.245 -0.1058  1.2113 -0.2872
18455TIP3   OH276855   2.356   1.539  12.313  0.1134  0.1481  0.1635
18455TIP3    H176856   2.412   1.615  12.296 -0.7293  0.5828 -0.8430
18455TIP3    H276857   2.336   1.504  12.226  0.1681 -0.9985  0.5978
18456TIP3   OH276858   3.335   0.823  12.438  0.4974 -0.0125 -0.0001
18456TIP3    H176859   3.292   0.894  12.391  1.7380  0.7851  0.0175
18456TIP3    H276860   3.264   0.766  12.467 -0.7228  2.2004  1.6244
18457TIP3   OH276861   2.592   2.821   6.058 -0.7785 -0.0412 -0.1878
18457TIP3    H176862   2.596   2.763   6.134  0.3502 -3.5706 -2.6178
18457TIP3    H276863   2.681   2.852   6.047 -1.2292  1.6453  0.6631
18458TIP3   OH276864   3.026   2.219   5.681  0.5284 -0.3086  0.1967
18458TIP3    H176865   3.073   2.302   5.688  2.1407 -0.9705 -1.9187
18458TIP3    H276866   2.936   2.244   5.661  1.1364  0.9396 -1.1091
18459TIP3   OH276867   3.362   6.234   1.677  0.4016 -0.2663 -0.5907
18459TIP3    H176868   3.371   6.205   1.768  4.4625 -0.8923 -1.0056
18459TIP3    H276869   3.272   6.211   1.653 -0.0114 -2.4599  2.4822
18460TIP3   OH276870   1.550   0.220  12.793  0.3301  0.1730 -0.6073
18460TIP3    H176871   1.529   0.271  12.715  1.3700  0.5594 -0.6564
18460TIP3    H276872   1.483   0.152  12.796  1.2311 -0.8993 -2.8042
18461TIP3   OH276873   1.859   1.954  13.937  0.5731 -0.2438 -0.5566
18461TIP3    H176874   1.856   1.938  14.031  0.6480 -0.1782 -0.5427
18461TIP3    H276875   1.868   1.867  13.898 -2.6566 -0.6527 -0.6760
18462TIP3   OH276876   6.209   5.326  15.758  0.5616  0.2504 -0.4791
18462TIP3    H176877   6.259   5.312  15.678  0.3282  1.1484 -0.7911
18462TIP3    H276878   6.223   5.246  15.809 -0.0331 -0.7424 -1.8046
18463TIP3   OH276879   0.028   4.737  10.665  0.0055  0.3680 -0.6538
18463TIP3    H176880   0.067   4.657  10.631 -0.2384 -0.1167  0.1788
18463TIP3    H276881  -0.053   4.747  10.614  0.2161  0.2906 -1.0094
18464TIP3   OH276882   3.833   3.988  16.182 -0.2463 -0.2658  0.3146
18464TIP3    H176883   3.824   3.948  16.268 -1.0631  2.2186  1.4742
18464TIP3    H276884   3.919   3.961  16.151  0.0457 -1.2414  1.8782
18465TIP3   OH276885   5.480   4.437   5.191  0.0204  0.3935 -0.0964
18465TIP3    H176886   5.512   4.364   5.243 -0.6085  0.8763  1.0147
18465TIP3    H276887   5.497   4.514   5.246 -0.5999  0.9243 -0.6399
18466TIP3   OH276888   0.858   1.467  11.678  0.1954  0.2572 -0.5347
18466TIP3    H176889   0.944   1.486  11.640  0.1931  1.4856  0.0322
18466TIP3    H276890   0.877   1.434  11.766  0.1019 -0.0905 -0.6418
18467TIP3   OH276891   1.808   6.689  14.354 -0.3165 -0.2287  0.0286
18467TIP3    H176892   1.784   6.603  14.388 -0.9810 -0.1060 -0.1025
18467TIP3    H276893   1.734   6.714  14.299 -0.1775  0.4726  0.1457
18468TIP3   OH276894   4.488   1.378  15.579 -0.8708  0.4579  0.4823
18468TIP3    H176895   4.433   1.453  15.559 -1.4118 -0.4219 -1.6281
18468TIP3    H276896   4.458   1.309  15.519  2.4074 -0.1261 -0.7399
18469TIP3   OH276897   4.853   5.854  13.128  0.5679  0.0845  0.5598
18469TIP3    H176898   4.889   5.869  13.041 -2.2788  0.3913 -0.6910
18469TIP3    H276899   4.758   5.847  13.114  0.0649 -0.7008  3.5345
18470TIP3   OH276900   1.352   4.862   1.372  0.0648 -0.2497 -0.4564
18470TIP3    H176901   1.291   4.831   1.439  0.9081 -2.0182 -0.4291
18470TIP3    H276902   1.430   4.807   1.384  1.3642  1.3836 -1.0059
18471TIP3   OH276903   2.567   0.039   4.265 -0.5680 -0.2044  0.1812
18471TIP3    H176904   2.619   0.084   4.198  0.5134  0.3196  1.3375
18471TIP3    H276905   2.476   0.056   4.240 -0.1810  0.6596 -0.7040
18472TIP3   OH276906   3.213   4.277  13.710 -0.1975 -0.0655 -0.0973
18472TIP3    H176907   3.185   4.364  13.737 -0.7909 -0.3047  0.0748
18472TIP3    H276908   3.198   4.275  13.616 -0.2113  0.0041 -0.0965
18473TIP3   OH276909   4.453   0.431  15.134  0.6231 -0.2030 -0.2436
18473TIP3    H176910   4.484   0.362  15.076  1.6347  0.8902 -1.0542
18473TIP3    H276911   4.491   0.512  15.098 -1.7054  0.9971 -0.2456
18474TIP3   OH276912   6.375   3.133  11.267 -0.0785  0.5483 -0.5512
18474TIP3    H176913   6.335   3.132  11.180 -0.2322  1.0491 -0.4913
18474TIP3    H276914   6.373   3.042  11.295 -0.0288  0.3803 -1.0716
18475TIP3   OH276915   6.456   2.435   4.567  0.3055 -0.0283  0.2963
18475TIP3    H176916   6.469   2.360   4.625 -0.9218 -0.2151  0.3464
18475TIP3    H276917   6.545   2.469   4.552  0.5851  0.6988  3.1593
18476TIP3   OH276918   6.577   2.873   2.539  0.0630 -0.0949 -0.0882
18476TIP3    H176919   6.503   2.877   2.599 -0.1197  0.6984 -0.3497
18476TIP3    H276920   6.653   2.899   2.591  0.0480 -0.2761  0.0218
18477TIP3   OH276921   4.174   6.569   3.185  0.4091  0.3836  0.5079
18477TIP3    H176922   4.136   6.565   3.097 -0.0702 -0.4611  0.7474
18477TIP3    H276923   4.194   6.662   3.198  2.9045  0.2350 -1.5018
18478TIP3   OH276924   4.315   2.749   1.072 -0.1826  0.1801  0.2972
18478TIP3    H176925   4.372   2.820   1.101 -1.8849  1.2497  1.2765
18478TIP3    H276926   4.369   2.695   1.015  3.1789 -1.4423  4.5090
18479TIP3   OH276927   3.758   6.187  14.638 -0.6160 -0.1729  0.7319
18479TIP3    H176928   3.757   6.279  14.663 -1.0724  0.0582 -0.1116
18479TIP3    H276929   3.709   6.184  14.556  1.0881 -0.8517 -0.3147
18480TIP3   OH276930   2.040   2.698  10.574  0.2116 -0.0348  0.5142
18480TIP3    H176931   1.979   2.690  10.501 -0.3692  1.6024  0.7783
18480TIP3    H276932   2.088   2.779  10.558  0.2390  0.2358  1.8072
18481TIP3   OH276933   6.411   1.085  12.485  0.0542 -0.5411 -0.4316
18481TIP3    H176934   6.483   1.022  12.478  0.0468 -0.8988  1.8082
18481TIP3    H276935   6.350   1.043  12.546 -0.9429  0.7594 -0.5140
18482TIP3   OH276936   5.391   6.066  13.476 -0.5006 -0.2347 -0.3604
18482TIP3    H176937   5.365   6.125  13.547  0.3089 -0.3335  0.0219
18482TIP3    H276938   5.467   6.108  13.437 -0.9047 -0.2099 -1.1429
18483TIP3   OH276939   6.450   0.526  17.172  0.2018 -0.2269 -0.0071
18483TIP3    H176940   6.357   0.529  17.194  0.1427 -1.3465 -0.0409
18483TIP3    H276941   6.495   0.544  17.254 -0.0436 -0.2948  0.1422
18484TIP3   OH276942   6.226   0.315   0.379  0.8444  0.1652 -0.4656
18484TIP3    H176943   6.253   0.257   0.308  1.6232  0.5966 -0.5330
18484TIP3    H276944   6.186   0.257   0.444  1.1181 -0.3731 -0.7737
18485TIP3   OH276945   4.724   6.053   0.523 -0.4275 -0.0599  0.1624
18485TIP3    H176946   4.643   6.002   0.526  0.1164 -1.0035 -0.5989
18485TIP3    H276947   4.793   5.989   0.504  0.5401  0.6913  0.9988
18486TIP3   OH276948   4.515   1.432   4.190 -0.4472 -0.1049 -0.2403
18486TIP3    H176949   4.435   1.483   4.203  0.3863  0.8532  1.4890
18486TIP3    H276950   4.579   1.474   4.247  1.3509 -0.7440 -1.7234
18487TIP3   OH276951   2.861   4.158  12.832  0.3637  0.5578  0.5039
18487TIP3    H176952   2.840   4.079  12.782  2.5318 -1.0825  2.0149
18487TIP3    H276953   2.779   4.181  12.876 -0.2445 -1.0681  0.2937
18488TIP3   OH276954   2.299   2.603  15.047  0.4204  0.1210  0.2486
18488TIP3    H176955   2.294   2.666  14.975 -2.6329  1.6173  1.5730
18488TIP3    H276956   2.299   2.517  15.004  0.6008  0.9727 -1.5541
18489TIP3   OH276957   2.184   6.240   2.576  0.1272 -0.2296 -0.1770
18489TIP3    H176958   2.221   6.153   2.593 -0.0647 -0.2625  0.0819
18489TIP3    H276959   2.090   6.225   2.566  0.1791 -0.1397 -0.8015
18490TIP3   OH276960   4.201   4.346   6.171 -0.3630  0.2353  0.4176
18490TIP3    H176961   4.187   4.383   6.084 -0.2886 -0.8613 -0.0743
18490TIP3    H276962   4.113   4.341   6.209 -0.9134 -2.5452 -0.9782
18491TIP3   OH276963   5.995   0.110  12.979 -0.0960  0.2157 -0.3595
18491TIP3    H176964   5.985   0.115  12.884 -0.3335  2.7820 -0.2610
18491TIP3    H276965   6.089   0.110  12.993 -0.0397 -1.3076 -0.5964
18492TIP3   OH276966   3.721   1.954   2.259 -0.2070 -0.1691 -0.1802
18492TIP3    H176967   3.637   1.925   2.224 -1.1960  0.6409  1.3636
18492TIP3    H276968   3.755   2.016   2.194 -1.9219  1.2207  0.1877
18493TIP3   OH276969   4.663   1.244  12.908  0.9056  0.1132 -0.4512
18493TIP3    H176970   4.603   1.171  12.893 -2.7671  2.9058 -0.7284
18493TIP3    H276971   4.647   1.270  12.999  2.2663  0.5158 -0.3048
18494TIP3   OH276972   2.935   0.856  16.344  0.1619 -0.6227  0.6458
18494TIP3    H176973   2.903   0.796  16.411  1.5325  0.4257  2.3297
18494TIP3    H276974   2.884   0.936  16.357  0.2528 -0.5059  0.2829
18495TIP3   OH276975   0.018   2.459   4.473 -0.3673  0.2948 -0.1707
18495TIP3    H176976  -0.010   2.385   4.420 -0.8876 -0.2927  0.9091
18495TIP3    H276977   0.059   2.519   4.410 -0.3714 -0.6782 -1.1264
18496TIP3   OH276978   1.422   1.166  13.419 -0.0868  0.2830  0.5468
18496TIP3    H176979   1.412   1.093  13.358  2.1046  0.6515 -0.3246
18496TIP3    H276980   1.338   1.169  13.466 -0.5309 -2.2864  0.0863
18497TIP3   OH276981   4.069   1.781   5.127 -0.4619  0.1273 -0.1268
18497TIP3    H176982   3.997   1.814   5.073  0.3629  0.7002 -0.9005
18497TIP3    H276983   4.068   1.686   5.114  0.9350  0.4026 -2.7444
18498TIP3   OH276984   4.897   6.026   1.260 -0.4006 -0.2043  0.1750
18498TIP3    H176985   4.821   5.997   1.208 -0.8607  0.7230  0.3156
18498TIP3    H276986   4.971   5.979   1.221 -0.7933  0.1361 -1.0458
18499TIP3   OH276987   5.253   3.466  12.029 -0.4160 -0.0746 -0.5849
18499TIP3    H176988   5.227   3.376  12.047  0.5413 -0.0101  1.3973
18499TIP3    H276989   5.202   3.519  12.091  0.7817  0.4778 -0.0126
18500TIP3   OH276990   0.010   2.448  10.911 -0.1332 -0.1555  0.2000
18500TIP3    H176991   0.042   2.385  10.975 -0.4308 -0.4809  0.0268
18500TIP3    H276992  -0.015   2.396  10.835  1.5793  0.3365 -0.7567
18501TIP3   OH276993   5.368   3.340  13.584  0.1718  0.0087  0.3648
18501TIP3    H176994   5.386   3.430  13.558 -0.2109  0.6705  2.2709
18501TIP3    H276995   5.391   3.288  13.507 -1.1299  1.8444 -1.3562
18502TIP3   OH276996   4.623   2.726  16.803  0.6059 -0.0723  0.4490
18502TIP3    H176997   4.616   2.815  16.839  1.8369  0.9272 -1.6197
18502TIP3    H276998   4.533   2.701  16.784  0.3454  1.3395 -0.3089
18503TIP3   OH276999   5.465   2.616   3.215 -0.3769  0.1111  0.1210
18503TIP3    H177000   5.544   2.600   3.162  0.1271  0.1707  0.8338
18503TIP3    H277001   5.499   2.627   3.304 -1.0962  1.2141  0.2677
18504TIP3   OH277002   0.946   2.518  16.867  0.2965 -0.0180 -0.0434
18504TIP3    H177003   0.870   2.460  16.867  0.1337  0.0791  2.2204
18504TIP3    H277004   0.909   2.606  16.870  0.5338  0.1256 -1.0291
18505TIP3   OH277005   3.192   4.569   3.535  0.6301 -0.4044  0.0896
18505TIP3    H177006   3.121   4.506   3.547  1.8820 -2.1386 -1.1301
18505TIP3    H277007   3.162   4.648   3.580 -2.6879 -0.5675 -1.5946
18506TIP3   OH277008   0.113   6.017  14.852  0.7465 -0.2629 -0.2582
18506TIP3    H177009   0.114   5.988  14.760  0.6928 -0.5966 -0.1547
18506TIP3    H277010   0.075   6.104  14.849  1.4569  0.0467 -0.6443
18507TIP3   OH277011   4.684   4.895   0.580  0.4121 -0.6794 -0.3220
18507TIP3    H177012   4.668   4.851   0.496 -3.9480  2.6660 -1.6060
18507TIP3    H277013   4.633   4.844   0.643  0.3694 -0.9154 -0.5446
18508TIP3   OH277014   3.793   3.962  15.056 -0.0435  0.1015 -0.0288
18508TIP3    H177015   3.816   3.931  15.143  0.9500  0.8847  0.0073
18508TIP3    H277016   3.743   3.891  15.017  3.9139 -2.6271 -0.7799
18509TIP3   OH277017   3.373   2.457   3.610 -0.1396  0.5599  0.1708
18509TIP3    H177018   3.415   2.491   3.689  0.0448 -0.9460  0.7669
18509TIP3    H277019   3.372   2.362   3.623  0.1505  0.2482 -1.7665
18510TIP3   OH277020   5.951   0.322  11.932 -0.7592  0.0414 -0.4290
18510TIP3    H177021   5.928   0.324  11.839 -0.3769 -0.7948 -0.5473
18510TIP3    H277022   5.873   0.285  11.974  0.3405 -3.1282 -0.8718
18511TIP3   OH277023   3.959   6.515   5.403  0.4365  0.5003  0.0284
18511TIP3    H177024   3.924   6.601   5.429  1.1702  0.3341  1.6857
18511TIP3    H277025   4.025   6.495   5.470  1.3830 -0.6600 -1.2118
18512TIP3   OH277026   0.008   0.857   2.730 -0.3040  0.0495 -0.0506
18512TIP3    H177027   0.100   0.843   2.752  0.6166  2.4991 -1.9341
18512TIP3    H277028  -0.029   0.899   2.807 -0.1301 -1.6663  1.0334
18513TIP3   OH277029   0.826   4.927   3.739  0.4251 -0.3653  0.3502
18513TIP3    H177030   0.918   4.907   3.755  0.8358  0.6310 -0.5919
18513TIP3    H277031   0.792   4.955   3.824  0.4433 -2.5809  1.1495
18514TIP3   OH277032   1.174   2.600   2.330  0.1073  0.2049 -0.2665
18514TIP3    H177033   1.174   2.541   2.405  1.5161  1.1210  0.4983
18514TIP3    H277034   1.242   2.565   2.272  0.5107  0.7286 -0.1057
18515TIP3   OH277035   4.682   4.980  13.275 -0.1758 -0.0751 -0.1727
18515TIP3    H177036   4.750   5.022  13.327 -1.6230  1.9004  0.2431
18515TIP3    H277037   4.651   4.908  13.330 -0.8776  1.2706  1.2701
18516TIP3   OH277038   6.796   1.275   1.468 -0.4755  0.4269 -0.2905
18516TIP3    H177039   6.769   1.188   1.497  0.4664  0.0985 -0.3878
18516TIP3    H277040   6.887   1.265   1.441  0.4012  1.9402  1.8598
18517TIP3   OH277041   6.278   5.139   4.580 -0.1732 -0.3191 -0.1772
18517TIP3    H177042   6.331   5.071   4.538  0.7700  1.0611 -1.3119
18517TIP3    H277043   6.242   5.189   4.507 -0.5477  0.6386  0.6426
18518TIP3   OH277044   4.458   6.526   2.064 -0.6842  0.0354 -0.3087
18518TIP3    H177045   4.405   6.456   2.102  0.6865 -0.5588  0.5854
18518TIP3    H277046   4.410   6.553   1.986 -2.2752 -0.4809  0.4610
18519TIP3   OH277047   6.085   4.896   5.480  0.0766  0.6662 -0.3056
18519TIP3    H177048   6.116   4.854   5.560  0.1592  1.4862  0.0973
18519TIP3    H277049   6.128   4.847   5.410  0.4759  0.3297  0.1665
18520TIP3   OH277050   4.283   2.861  16.392 -0.0480  0.0183  0.1234
18520TIP3    H177051   4.216   2.919  16.356 -0.5914  0.0321  1.1336
18520TIP3    H277052   4.276   2.781  16.340  0.1192  0.5236 -0.7004
18521TIP3   OH277053   2.541   4.321  14.052  0.0876 -0.1411  0.1205
18521TIP3    H177054   2.622   4.335  14.002 -0.3030 -0.7821 -0.7230
18521TIP3    H277055   2.523   4.405  14.092 -0.9369  1.2095 -2.8579
18522TIP3   OH277056   0.437   6.152  11.587  0.3562 -0.0357 -0.6879
18522TIP3    H177057   0.365   6.100  11.552  1.9610 -2.0229 -1.2478
18522TIP3    H277058   0.502   6.087  11.614  1.6654  1.6547  0.4345
18523TIP3   OH277059   0.747   2.133  17.038 -0.4729 -0.1178  0.0730
18523TIP3    H177060   0.803   2.123  17.115  0.0056 -0.0629 -0.2670
18523TIP3    H277061   0.778   2.067  16.977 -1.1599 -0.4738  0.0995
18524TIP3   OH277062   1.718   1.957   6.704  0.6963 -0.7681  0.4635
18524TIP3    H177063   1.791   1.989   6.758  0.2864  2.6921 -0.7385
18524TIP3    H277064   1.754   1.950   6.616  0.0697 -1.0067  0.2170
18525TIP3   OH277065   3.079   2.669   2.468 -0.4756 -0.3792  0.5325
18525TIP3    H177066   3.155   2.700   2.518 -0.1011  0.8380 -0.7520
18525TIP3    H277067   3.094   2.574   2.460  0.8667 -0.1817  0.3933
18526TIP3   OH277068   1.560   4.939  13.953  0.9010  0.0144  0.0131
18526TIP3    H177069   1.540   4.849  13.930  2.0764 -0.5875  1.1882
18526TIP3    H277070   1.483   4.970  14.000 -0.4537  0.4256 -2.2896
18527TIP3   OH277071   5.479   4.751   4.164 -0.0518  0.2848  0.1921
18527TIP3    H177072   5.446   4.765   4.253  1.5116  1.5862  0.6330
18527TIP3    H277073   5.546   4.818   4.153  1.7784 -1.6018 -0.9371
18528TIP3   OH277074   5.275   2.562  12.388 -0.3085 -0.2165  0.7251
18528TIP3    H177075   5.344   2.621  12.419  1.5138 -1.9658  0.2262
18528TIP3    H277076   5.278   2.571  12.293 -0.4503 -0.6218  0.6810
18529TIP3   OH277077   3.918   6.670   4.393  1.0720 -0.1553  0.6152
18529TIP3    H177078   3.846   6.608   4.407  0.4770 -0.0855 -1.6774
18529TIP3    H277079   3.988   6.617   4.356  1.2450  0.2228  0.3955
18530TIP3   OH277080   5.611   6.025   1.423  0.7256  0.5967 -0.1262
18530TIP3    H177081   5.641   6.080   1.496 -0.0245  1.3316 -0.3644
18530TIP3    H277082   5.522   6.053   1.406  0.5215 -0.3170 -0.6312
18531TIP3   OH277083   5.753   2.448  13.255 -0.1207 -0.5118  0.5075
18531TIP3    H177084   5.796   2.502  13.321 -0.4616 -1.4984  1.5635
18531TIP3    H277085   5.661   2.475  13.258 -0.9667 -3.1179  3.2322
18532TIP3   OH277086   0.981   6.419  14.585  0.1356 -0.4258  0.5865
18532TIP3    H177087   0.972   6.334  14.542  0.5228  0.3983 -1.2339
18532TIP3    H277088   0.935   6.480  14.527  0.7166  0.7490  1.3274
18533TIP3   OH277089   2.485   0.220   5.286  0.2360  0.5795 -0.5055
18533TIP3    H177090   2.414   0.166   5.250  0.0473  0.8092 -0.4756
18533TIP3    H277091   2.451   0.309   5.284  0.2768  0.6128  0.1251
18534TIP3   OH277092   5.079   5.249   1.769  0.2156 -0.7745  0.2224
18534TIP3    H177093   5.020   5.323   1.756 -0.2984 -1.2202 -0.0529
18534TIP3    H277094   5.025   5.172   1.751  1.0169 -1.1811 -0.5216
18535TIP3   OH277095   5.784   0.104  11.446 -0.3448 -0.0492 -0.0377
18535TIP3    H177096   5.724   0.032  11.463 -0.3522 -0.5000 -1.8038
18535TIP3    H277097   5.859   0.064  11.401  0.2883  0.8312  0.2038
18536TIP3   OH277098   5.494   1.076   2.896 -0.6187 -0.2676 -0.0520
18536TIP3    H177099   5.424   1.060   2.960 -0.2422  2.9965  1.3518
18536TIP3    H277100   5.572   1.036   2.935 -0.9360 -0.7005  0.1562
18537TIP3   OH277101   3.396   4.464   3.692  0.6684  0.2364 -0.1200
18537TIP3    H177102   3.334   4.486   3.622  0.6165  0.6694  0.0559
18537TIP3    H277103   3.353   4.497   3.772  0.9107  0.1116  0.0603
18538TIP3   OH277104   3.215   2.341   1.384  0.3401 -0.2898  0.0779
18538TIP3    H177105   3.168   2.266   1.348  1.0836 -0.4196 -0.6243
18538TIP3    H277106   3.146   2.395   1.423 -0.3608 -0.6295 -0.6612
18539TIP3   OH277107   0.379   5.691   2.101 -0.3198 -0.1926 -0.3545
18539TIP3    H177108   0.391   5.774   2.147 -1.0499 -0.5184  0.4609
18539TIP3    H277109   0.388   5.713   2.008  2.1266  0.3153 -0.0650
18540TIP3   OH277110   1.000   6.555   5.423  0.0984 -0.0362  0.3956
18540TIP3    H177111   1.016   6.620   5.355 -0.2867  0.2755  0.5990
18540TIP3    H277112   1.087   6.539   5.461 -0.1991  3.0464  2.7545
18541TIP3   OH277113   1.764   1.903  14.552  0.7299 -0.3057  0.1498
18541TIP3    H177114   1.679   1.902  14.507  0.1245 -2.0124  1.2357
18541TIP3    H277115   1.818   1.962  14.499 -0.9403  0.3490 -0.9117
18542TIP3   OH277116   1.747   3.058  13.085 -0.6347 -0.3175 -0.6948
18542TIP3    H177117   1.663   3.046  13.131 -0.0689 -1.3302  0.1274
18542TIP3    H277118   1.764   3.152  13.090  0.6430 -0.5673  3.5722
18543TIP3   OH277119   5.056   3.640  11.067 -0.5078 -0.0681  0.0694
18543TIP3    H177120   5.023   3.552  11.049 -0.6110  0.2291 -1.3294
18543TIP3    H277121   5.003   3.672  11.141 -2.0412 -0.3349 -0.8686
18544TIP3   OH277122   3.674   0.732   2.440 -0.0503 -0.1381  0.3729
18544TIP3    H177123   3.633   0.716   2.355  0.1180 -1.1157  0.4711
18544TIP3    H277124   3.736   0.661   2.451 -1.7350 -1.4159  2.3599
18545TIP3   OH277125   2.947   5.978   4.822 -0.2317 -0.2331 -0.4351
18545TIP3    H177126   2.989   5.927   4.891  1.0971 -2.1681 -2.5011
18545TIP3    H277127   3.001   6.057   4.814  0.6992 -0.8457 -0.4190
18546TIP3   OH277128   5.362   5.180   1.831  0.3708  0.2178  0.0763
18546TIP3    H177129   5.313   5.159   1.911  0.0763 -1.2250 -0.4642
18546TIP3    H277130   5.454   5.172   1.856  0.2740 -0.6839  0.1511
18547TIP3   OH277131   4.110   5.335   4.880  0.1021 -0.3534 -1.0202
18547TIP3    H177132   4.099   5.302   4.791 -1.1375 -0.2225 -0.9327
18547TIP3    H277133   4.027   5.315   4.923  1.1334 -1.5911  0.5102
18548TIP3   OH277134   3.934   0.189   0.169 -0.1720 -0.2878  0.9192
18548TIP3    H177135   3.902   0.269   0.127  0.5980  0.1272  1.1090
18548TIP3    H277136   3.926   0.205   0.262  1.9974  0.4512  1.0269
18549TIP3   OH277137   2.431   5.303   2.245 -0.0844 -0.5377  0.6704
18549TIP3    H177138   2.519   5.318   2.282  0.1658 -2.5708  1.0182
18549TIP3    H277139   2.432   5.211   2.217 -0.4476  0.5848 -3.9463
18550TIP3   OH277140   1.001   6.568   2.945  0.3444  0.4447  0.5325
18550TIP3    H177141   0.924   6.513   2.933 -0.0091  1.2236 -0.9475
18550TIP3    H277142   0.983   6.615   3.027 -0.5244  0.2622  0.4615
18551TIP3   OH277143   2.551   5.011   6.411 -0.3477  0.9874 -0.5550
18551TIP3    H177144   2.460   5.041   6.406  0.1272  2.4579 -0.8661
18551TIP3    H277145   2.564   4.991   6.503 -2.1528 -3.2979 -0.9854
18552TIP3   OH277146   5.673   1.371   2.594  0.2198 -0.0047  0.0081
18552TIP3    H177147   5.624   1.375   2.677 -0.0597 -0.5052 -0.1279
18552TIP3    H277148   5.625   1.307   2.542  1.8747 -1.6867  0.4519
18553TIP3   OH277149   0.710   4.587  13.952 -0.3322 -0.2041  0.3365
18553TIP3    H177150   0.752   4.606  14.036  2.5118 -1.9552 -0.5794
18553TIP3    H277151   0.771   4.619  13.886 -2.2401  0.6110 -1.1422
18554TIP3   OH277152   1.685   2.820   3.421 -0.0631 -0.7012 -0.1251
18554TIP3    H177153   1.746   2.748   3.408  0.9067 -0.0362  0.6583
18554TIP3    H277154   1.629   2.818   3.343  1.2813 -1.0013 -1.1153
18555TIP3   OH277155   0.452   0.597   5.182  0.7635  0.1349  0.3295
18555TIP3    H177156   0.532   0.611   5.131  0.7135 -2.0429 -0.4356
18555TIP3    H277157   0.476   0.531   5.247  0.2739  1.4441  1.9161
18556TIP3   OH277158   6.012   0.458   4.012 -0.3485 -0.7772  0.6779
18556TIP3    H177159   5.963   0.468   4.094 -2.8297  0.3838 -0.8230
18556TIP3    H277160   6.015   0.363   3.998 -0.7184 -0.9481  1.6238
18557TIP3   OH277161   3.298   3.269   4.469 -0.3355  0.3429 -0.6460
18557TIP3    H177162   3.333   3.352   4.503  0.9818  0.3687 -1.9816
18557TIP3    H277163   3.281   3.216   4.547  0.4091  1.2464  0.1461
18558TIP3   OH277164   2.025   4.442  14.931 -0.2276  0.5977 -0.0671
18558TIP3    H177165   2.025   4.518  14.872 -0.0752 -0.4197 -1.4407
18558TIP3    H277166   2.118   4.421  14.942 -0.3118 -0.6949 -1.5047
18559TIP3   OH277167   0.607   4.744  14.867 -0.5955  0.4523  0.6510
18559TIP3    H177168   0.637   4.783  14.949  0.8977  0.0736  0.2996
18559TIP3    H277169   0.534   4.688  14.892 -0.0048  0.1649  1.7552
18560TIP3   OH277170   3.515   3.880   6.057 -0.5451 -0.4883  0.0739
18560TIP3    H177171   3.551   3.968   6.047 -0.5822 -0.5900 -1.1394
18560TIP3    H277172   3.575   3.836   6.118  0.4360 -0.1341 -0.6049
18561TIP3   OH277173   6.815   1.669  14.701  0.2716 -0.2731  0.2331
18561TIP3    H177174   6.805   1.617  14.621  1.0373 -0.4538  0.2489
18561TIP3    H277175   6.857   1.750  14.672 -0.9142  0.3537  0.2096
18562TIP3   OH277176   2.483   4.692  14.711  0.2681  0.5204 -0.0195
18562TIP3    H177177   2.436   4.775  14.700  1.7182  1.2560 -1.1357
18562TIP3    H277178   2.453   4.638  14.638  1.1543  1.0221 -0.7834
18563TIP3   OH277179   4.226   4.961  15.629  0.1128 -0.4803  0.6957
18563TIP3    H177180   4.198   4.871  15.645  0.3992 -0.6504  0.2619
18563TIP3    H277181   4.303   4.972  15.686 -0.0723 -0.4221  0.9385
18564TIP3   OH277182   0.007   6.037   5.184  0.2725  0.1314 -0.3105
18564TIP3    H177183  -0.051   6.105   5.217  0.6301 -0.4520  1.6919
18564TIP3    H277184  -0.032   5.955   5.214  1.2448 -0.3743 -0.3610
18565TIP3   OH277185   4.862   3.293  10.250  0.7397  0.3180  0.0920
18565TIP3    H177186   4.869   3.222  10.314 -1.4538 -0.4556 -0.4468
18565TIP3    H277187   4.930   3.355  10.276 -0.3544  0.2821  3.4448
18566TIP3   OH277188   5.051   0.292   1.466  0.0280 -0.7491  0.2981
18566TIP3    H177189   5.085   0.359   1.525 -0.0344 -0.0410 -0.4540
18566TIP3    H277190   4.971   0.330   1.430 -0.2536 -1.4117  0.2022
18567TIP3   OH277191   1.507   4.363  11.261  0.1825  0.9443  0.2230
18567TIP3    H177192   1.511   4.343  11.167  0.1738  0.4356  0.3270
18567TIP3    H277193   1.418   4.397  11.274  0.0696  0.6977  0.1056
18568TIP3   OH277194   5.094   5.752  10.829  0.2895 -0.2481 -0.3314
18568TIP3    H177195   5.147   5.728  10.905  2.3336  3.4339 -0.3851
18568TIP3    H277196   5.024   5.807  10.864  1.1886  1.3922 -1.0164
18569TIP3   OH277197   2.667   4.158   3.398 -0.2021 -0.4254 -0.1963
18569TIP3    H177198   2.605   4.227   3.375  1.2023  0.7766 -0.5050
18569TIP3    H277199   2.688   4.115   3.315 -1.3999 -1.5656  0.0487
18570TIP3   OH277200   6.062   4.066   3.913  0.2883 -0.0835  0.0087
18570TIP3    H177201   6.055   4.080   4.008  0.9880 -0.5926  0.1467
18570TIP3    H277202   5.978   4.096   3.878 -0.1549 -0.3174  0.8404
18571TIP3   OH277203   5.908   0.680  15.734  0.1293  0.2667  0.3197
18571TIP3    H177204   5.840   0.748  15.742 -1.5320 -0.9839 -1.9610
18571TIP3    H277205   5.987   0.729  15.709 -0.1898  1.6242  1.7516
18572TIP3   OH277206   1.811   3.908   1.734 -0.3819  0.6016 -0.0221
18572TIP3    H177207   1.870   3.870   1.668  0.7286  0.6124  0.9354
18572TIP3    H277208   1.724   3.879   1.708  0.3839 -2.6624  0.6682
18573TIP3   OH277209   1.972   2.594  15.370 -0.2555 -0.2953  0.1615
18573TIP3    H177210   1.931   2.677  15.393 -0.8870 -0.5755  0.0711
18573TIP3    H277211   1.963   2.540  15.448  0.6147 -0.1096  0.3978
18574TIP3   OH277212   5.760   6.214  16.321 -0.0610  0.3212  0.5491
18574TIP3    H177213   5.802   6.129  16.304  0.5741  0.7336 -0.0184
18574TIP3    H277214   5.739   6.212  16.414 -1.2031 -0.9589  0.3007
18575TIP3   OH277215   3.332   5.479  15.359 -0.7286 -0.3154 -0.7135
18575TIP3    H177216   3.251   5.507  15.401  0.7262  1.3054  1.1881
18575TIP3    H277217   3.358   5.553  15.304  0.1309 -0.2646 -0.2569
18576TIP3   OH277218   1.006   2.382   2.648 -0.0879 -0.1432 -0.1283
18576TIP3    H177219   0.944   2.310   2.659 -1.1200  0.7624  0.1916
18576TIP3    H277220   1.063   2.355   2.576 -2.4527  0.0568 -2.1860
18577TIP3   OH277221   3.210   3.188   3.945 -0.0952  0.2326  0.2235
18577TIP3    H177222   3.280   3.142   3.991 -0.6699 -1.0439 -0.1333
18577TIP3    H277223   3.239   3.192   3.854 -0.6142 -0.5708  0.0181
18578TIP3   OH277224   6.463   0.948   6.478  0.4446 -0.1583 -0.0873
18578TIP3    H177225   6.497   0.893   6.549  0.6229 -0.8637 -0.7072
18578TIP3    H277226   6.379   0.909   6.456  1.0299 -0.8365 -1.2252
18579TIP3   OH277227   6.496   0.414   5.651 -0.1728 -0.0164  0.0290
18579TIP3    H177228   6.556   0.342   5.635 -0.9861 -0.6680 -0.1353
18579TIP3    H277229   6.553   0.491   5.658  0.6081 -0.4823 -0.9495
18580TIP3   OH277230   2.383   5.217  14.828  0.0800  0.1785  0.3941
18580TIP3    H177231   2.387   5.257  14.915 -1.1665  0.0636  0.5233
18580TIP3    H277232   2.292   5.229  14.800 -0.1386 -1.7664  0.0714
18581TIP3   OH277233   6.394   6.287   1.896  0.1175 -0.6460  0.3940
18581TIP3    H177234   6.362   6.226   1.830  0.8754 -1.6841  0.9659
18581TIP3    H277235   6.389   6.239   1.978  0.1421  0.2815  0.9486
18582TIP3   OH277236   3.772   2.656   4.727 -0.2076  0.3085 -0.4562
18582TIP3    H177237   3.772   2.751   4.720  0.5327  0.3618  0.1322
18582TIP3    H277238   3.681   2.633   4.745 -0.6846  0.7678 -2.0893
18583TIP3   OH277239   1.989   3.847  11.677 -0.0712  0.5625 -0.4059
18583TIP3    H177240   1.965   3.761  11.642  0.1414  0.8443 -1.2749
18583TIP3    H277241   2.007   3.901  11.599  1.0307  1.0393  0.1544
18584TIP3   OH277242   0.800   4.272  15.578 -0.8980 -0.4692  0.1779
18584TIP3    H177243   0.731   4.300  15.517 -1.9149 -2.0854  0.5197
18584TIP3    H277244   0.833   4.354  15.615 -1.9233  0.4157 -0.7604
18585TIP3   OH277245   5.961   0.036   6.468 -0.6448 -0.4924  0.6839
18585TIP3    H177246   5.974   0.124   6.433  1.6947 -1.2491 -0.5118
18585TIP3    H277247   6.034   0.022   6.528 -0.9182 -1.6753  0.7696
18586TIP3   OH277248   6.003   5.963  16.030  0.1472 -0.4170 -0.3139
18586TIP3    H177249   5.911   5.988  16.035 -0.0318 -1.1467  0.1481
18586TIP3    H277250   6.020   5.916  16.112  0.7298 -0.9527 -0.7345
18587TIP3   OH277251   4.012   6.738   0.328  0.3134 -0.5965 -0.0405
18587TIP3    H177252   4.031   6.795   0.403 -2.0663 -1.6462  1.4927
18587TIP3    H277253   4.088   6.679   0.324  0.1810 -1.0176  2.1016
18588TIP3   OH277254   3.888   5.862   2.147  1.0307  0.0931 -0.4952
18588TIP3    H177255   3.954   5.857   2.216  0.9205  2.1680 -0.1663
18588TIP3    H277256   3.805   5.873   2.195  0.8100  0.3557 -0.9295
18589TIP3   OH277257   3.091   5.327  14.717 -0.0302 -1.3679 -0.3152
18589TIP3    H177258   3.150   5.342  14.643  1.1691 -0.6919  0.7334
18589TIP3    H277259   3.005   5.319  14.677 -0.2502  3.6152 -1.5856
18590TIP3   OH277260   3.793   4.745   4.343  0.2863  0.2214 -0.3864
18590TIP3    H177261   3.782   4.661   4.299 -0.5376  0.2808 -0.3238
18590TIP3    H277262   3.887   4.762   4.341  0.4605 -0.7062 -0.3857
18591TIP3   OH277263   2.054   2.935   5.621 -0.4298  0.0360 -0.7035
18591TIP3    H177264   2.111   3.007   5.649 -1.1027  1.2182 -2.2450
18591TIP3    H277265   2.113   2.862   5.606  0.6643  1.1177 -1.8921
18592TIP3   OH277266   5.993   4.423   1.552 -0.7385  0.3195 -0.0307
18592TIP3    H177267   5.996   4.328   1.563 -2.2579  0.1442 -0.8649
18592TIP3    H277268   6.046   4.440   1.474 -0.2985  0.1788  0.2377
18593TIP3   OH277269   6.568   5.998  13.015 -0.1445 -0.5445 -0.1046
18593TIP3    H177270   6.609   6.040  13.090 -0.8395 -1.0205  0.5547
18593TIP3    H277271   6.508   5.934  13.053 -0.5673 -0.7361 -1.0634
18594TIP3   OH277272   0.510   2.951   1.486  0.0413  0.0975  0.0342
18594TIP3    H177273   0.417   2.961   1.507  0.8338 -0.3840  4.9943
18594TIP3    H277274   0.528   2.858   1.500  1.1660 -0.0974 -2.1387
18595TIP3   OH277275   1.214   1.277   2.812 -0.0153  0.1403  0.1960
18595TIP3    H177276   1.119   1.266   2.824 -0.0383 -0.4415 -0.4361
18595TIP3    H277277   1.251   1.260   2.898 -0.4497 -0.2093  0.3237
18596TIP3   OH277278   3.421   6.845   4.303 -0.0710  0.0694  0.0182
18596TIP3    H177279   3.377   6.761   4.309  1.9421 -1.0611 -0.1787
18596TIP3    H277280   3.431   6.861   4.209 -0.7803  0.7440  0.0439
18597TIP3   OH277281   0.741   4.004  12.511 -0.2193  0.3197  0.4907
18597TIP3    H177282   0.668   3.970  12.562 -1.3133  0.3325 -1.0135
18597TIP3    H277283   0.755   4.092  12.546 -2.0353  0.9617 -0.2601
18598TIP3   OH277284   1.952   4.559   3.291 -0.0714  0.1120  0.0560
18598TIP3    H177285   2.002   4.503   3.351 -0.7058 -2.0360 -1.3105
18598TIP3    H277286   1.862   4.553   3.322  0.1015  2.0261  1.0587
18599TIP3   OH277287   3.922   0.924  12.250  0.2122  0.3203  0.7531
18599TIP3    H177288   3.859   0.994  12.232  0.4587 -0.1665 -2.7132
18599TIP3    H277289   3.869   0.849  12.276 -0.3214  0.8726  1.2759
18600TIP3   OH277290   2.032   0.929  11.500  0.4878 -0.7564  0.0572
18600TIP3    H177291   1.943   0.963  11.498  0.9968  0.5838 -1.8309
18600TIP3    H277292   2.083   0.998  11.543  0.6457 -1.5663  1.2337
18601TIP3   OH277293   1.439   0.512   6.115  0.0869 -0.3578 -0.3776
18601TIP3    H177294   1.451   0.604   6.137 -0.8666 -0.3445  0.1402
18601TIP3    H277295   1.525   0.473   6.126  0.6252  0.5768 -1.1609
18602TIP3   OH277296   2.949   1.119  10.773  0.3935 -0.0890  0.3244
18602TIP3    H177297   2.950   1.198  10.719 -0.4084 -0.7379 -0.6931
18602TIP3    H277298   3.020   1.131  10.835  0.3889  1.3543  0.0832
18603TIP3   OH277299   1.945   5.459  16.824 -0.0905 -0.0029 -0.7088
18603TIP3    H177300   1.884   5.423  16.889  0.1072 -0.4946 -0.7935
18603TIP3    H277301   1.920   5.416  16.742  0.7979 -0.7340 -0.6211
18604TIP3   OH277302   2.064   2.295   2.000 -0.4382 -0.1619  0.1151
18604TIP3    H177303   2.127   2.258   1.938 -0.3279 -0.0582  0.1637
18604TIP3    H277304   2.099   2.382   2.021 -0.8737  0.1078 -0.2637
18605TIP3   OH277305   5.060   2.661   4.308 -0.0071  0.0403 -0.5657
18605TIP3    H177306   5.099   2.592   4.362 -0.4657 -0.3728 -0.7490
18605TIP3    H277307   5.025   2.724   4.371 -1.3022 -0.8594 -0.3318
18606TIP3   OH277308   6.640   2.868   1.254  0.1157  0.0988 -0.6238
18606TIP3    H177309   6.721   2.911   1.281  0.6513 -0.5569 -1.1644
18606TIP3    H277310   6.571   2.932   1.273  0.7036  0.4791  0.2673
18607TIP3   OH277311   4.754   3.034  16.778  0.7735 -0.4469 -0.8746
18607TIP3    H177312   4.760   3.127  16.756  0.1477  0.0041  0.7030
18607TIP3    H277313   4.845   3.006  16.789  1.0534 -0.4198 -2.7382
18608TIP3   OH277314   0.447   0.800   4.807 -0.8686  0.3925  0.0751
18608TIP3    H177315   0.352   0.808   4.797 -1.0080 -0.9159  0.1249
18608TIP3    H277316   0.462   0.706   4.808  0.4130  0.5907  0.3110
18609TIP3   OH277317   4.086   3.180   6.137 -0.6006  0.5552 -0.3611
18609TIP3    H177318   4.001   3.136   6.142 -0.4947  0.4685  1.8863
18609TIP3    H277319   4.147   3.111   6.111 -1.0977  0.4706 -1.3489
18610TIP3   OH277320   6.771   5.886  13.557  0.1833 -0.3527 -0.1008
18610TIP3    H177321   6.690   5.881  13.505 -0.3320  1.4661  0.4612
18610TIP3    H277322   6.839   5.905  13.494 -0.1253 -0.0958 -0.3606
18611TIP3   OH277323   4.077   6.206  14.444  0.4631  0.3259  0.0457
18611TIP3    H177324   4.096   6.260  14.521  0.4162  1.4262 -0.6961
18611TIP3    H277325   4.143   6.232  14.380  1.0843 -1.2356 -0.0054
18612TIP3   OH277326   2.027   4.258  15.530  0.0956 -0.0778  0.0165
18612TIP3    H177327   2.117   4.226  15.526  0.5714  1.3286 -1.5598
18612TIP3    H277328   1.973   4.181  15.510  1.0867 -0.4168 -1.4902
18613TIP3   OH277329   3.414   4.282  15.806  0.7128  0.3901  0.4121
18613TIP3    H177330   3.389   4.190  15.792 -0.0694  0.2465  2.3964
18613TIP3    H277331   3.332   4.325  15.832  1.5237  1.0755  1.9740
18614TIP3   OH277332   6.631   5.248  14.478  0.6322 -1.0037  0.0012
18614TIP3    H177333   6.578   5.321  14.511  1.6299 -1.1122  2.0483
18614TIP3    H277334   6.635   5.261  14.384  2.3147  2.7030  0.4156
18615TIP3   OH277335   6.117   1.574  12.560 -0.3387  0.6914 -0.6747
18615TIP3    H177336   6.116   1.611  12.472  1.1768  1.2982 -0.4743
18615TIP3    H277337   6.161   1.641  12.613  0.4542 -0.4459  0.1510
18616TIP3   OH277338   4.101   1.928  16.664 -0.3451  0.5604  0.5724
18616TIP3    H177339   4.149   1.995  16.615 -0.9124  0.0011 -0.8196
18616TIP3    H277340   4.011   1.934  16.631 -0.5436 -0.4497  0.8899
18617TIP3   OH277341   3.963   3.108   2.275 -0.1111 -0.5590  0.1366
18617TIP3    H177342   3.935   3.101   2.184  2.3768 -1.4454 -0.6649
18617TIP3    H277343   3.888   3.078   2.326 -0.8399 -2.1997 -1.7660
18618TIP3   OH277344   6.681   2.197   1.674  0.0130 -0.4269  0.2988
18618TIP3    H177345   6.689   2.102   1.677  1.7333 -0.4837 -2.3942
18618TIP3    H277346   6.751   2.229   1.732 -0.9090 -0.7315  1.6336
18619TIP3   OH277347   3.866   1.447   3.593 -0.4129 -0.2655  0.0127
18619TIP3    H177348   3.956   1.474   3.611 -0.3645 -0.7958  0.5796
18619TIP3    H277349   3.839   1.503   3.519  1.1935 -1.7586 -1.8107
18620TIP3   OH277350   1.209   5.381   0.588 -0.0378  0.3146 -0.6015
18620TIP3    H177351   1.236   5.451   0.648 -0.3810  0.5076 -0.6696
18620TIP3    H277352   1.187   5.308   0.646 -2.3861  1.1477 -0.3010
18621TIP3   OH277353   4.458   3.928   5.954  0.7006  0.0820 -0.3370
18621TIP3    H177354   4.438   3.849   5.905 -1.3568  0.3324  0.0046
18621TIP3    H277355   4.510   3.898   6.028 -0.6735 -1.1197  0.1983
18622TIP3   OH277356   4.447   4.826   1.374  0.0888  0.1693 -0.3146
18622TIP3    H177357   4.370   4.771   1.384 -0.5094  1.1052  0.4090
18622TIP3    H277358   4.413   4.906   1.333  0.5232  0.9021  0.7297
18623TIP3   OH277359   5.260   1.011   3.041 -0.1802 -0.0861  0.5076
18623TIP3    H177360   5.171   0.984   3.019 -0.2271  0.9857 -0.7959
18623TIP3    H277361   5.261   1.105   3.023  1.0100  0.0559  1.2341
18624TIP3   OH277362   2.185   6.313  16.634  0.1732 -0.5966 -0.1721
18624TIP3    H177363   2.237   6.235  16.613 -0.9811 -2.0888  2.0623
18624TIP3    H277364   2.099   6.296  16.594 -0.6801 -1.4586  1.8827
18625TIP3   OH277365   3.665   1.327  10.970 -0.3649 -0.0390 -0.6872
18625TIP3    H177366   3.741   1.384  10.964 -0.6082  0.2219 -1.3222
18625TIP3    H277367   3.630   1.322  10.881 -0.2566 -1.3054 -0.6856
18626TIP3   OH277368   5.548   0.095   5.759  0.3177 -0.1908 -0.2147
18626TIP3    H177369   5.571   0.007   5.730  1.3705  0.1331 -0.3878
18626TIP3    H277370   5.632   0.139   5.772 -0.1915  0.6767  0.2198
18627TIP3   OH277371   2.252   5.876   0.213  0.0347 -0.0857 -0.0617
18627TIP3    H177372   2.207   5.927   0.146  0.7567 -0.7627 -1.0858
18627TIP3    H277373   2.217   5.787   0.203  1.6870 -0.6636 -0.9957
18628TIP3   OH277374   4.364   3.841   3.088 -0.2404 -0.1143  0.6822
18628TIP3    H177375   4.389   3.845   2.995 -1.5869  0.9610  0.3259
18628TIP3    H277376   4.314   3.760   3.097  0.7122 -0.7189  0.7159
18629TIP3   OH277377   5.912   3.190  15.924  0.0635 -0.4469 -0.6286
18629TIP3    H177378   5.985   3.149  15.972  0.1255 -0.7524 -0.9807
18629TIP3    H277379   5.847   3.121  15.915 -0.1152 -0.2787 -0.6478
18630TIP3   OH277380   6.769   0.450  14.283 -0.0197 -0.8232  0.1891
18630TIP3    H177381   6.731   0.529  14.244 -0.5460 -1.2086 -0.0799
18630TIP3    H277382   6.702   0.418  14.343  0.5820 -0.5249  1.0404
18631TIP3   OH277383   0.100   6.712  13.427 -0.7243 -0.0116 -0.1917
18631TIP3    H177384   0.121   6.804  13.407  1.7404 -0.5894 -0.5675
18631TIP3    H277385   0.046   6.717  13.506  1.1558  1.7163  1.1019
18632TIP3   OH277386   6.368   1.044  15.112  0.4299  0.3629 -0.3296
18632TIP3    H177387   6.441   1.101  15.137  1.5249 -0.2509 -1.9541
18632TIP3    H277388   6.327   1.088  15.038 -0.3163  0.2742  0.0263
18633TIP3   OH277389   3.094   6.619  16.389 -0.6338  0.4880  0.0971
18633TIP3    H177390   3.032   6.550  16.411 -0.4457 -0.0044 -0.8487
18633TIP3    H277391   3.084   6.684  16.459 -2.1287  0.3768  0.0238
18634TIP3   OH277392   2.800   5.944   3.169 -0.5797 -0.6221  0.1644
18634TIP3    H177393   2.822   5.851   3.169 -2.7116 -1.1965  1.3527
18634TIP3    H277394   2.879   5.987   3.137  0.3313 -2.8522 -0.8251
18635TIP3   OH277395   3.094   5.791  10.635 -0.4417  0.6505 -0.2223
18635TIP3    H177396   3.138   5.707  10.629 -0.0547  0.9469 -1.7557
18635TIP3    H277397   3.151   5.844  10.691 -0.9138 -0.2073  1.1332
18636TIP3   OH277398   6.790   0.013   2.466 -0.4906  0.0478 -0.7428
18636TIP3    H177399   6.817   0.056   2.384 -1.3617  1.9088 -0.1001
18636TIP3    H277400   6.702  -0.019   2.449 -0.7688  0.6557 -0.4683
18637TIP3   OH277401   0.292   1.050   3.923 -0.6051  0.5746  0.2695
18637TIP3    H177402   0.261   1.113   3.858  0.6578  0.2472 -0.7028
18637TIP3    H277403   0.356   1.098   3.975 -0.0532  0.2785 -0.1148
18638TIP3   OH277404   0.932   3.298  13.479 -0.0300 -0.2772 -0.0337
18638TIP3    H177405   0.878   3.220  13.492  1.1661 -1.3051 -0.9804
18638TIP3    H277406   1.021   3.264  13.469  0.4474  1.1663 -1.0000
18639TIP3   OH277407   4.550   3.523  12.280 -0.1849 -0.1499  0.2454
18639TIP3    H177408   4.627   3.570  12.312  0.7340 -0.7355 -1.0024
18639TIP3    H277409   4.561   3.433  12.313 -0.0258 -0.3708 -0.3835
18640TIP3   OH277410   1.044   5.086   4.126  0.1899 -0.0775  0.0644
18640TIP3    H177411   0.957   5.071   4.161  0.8660  1.4043  2.6127
18640TIP3    H277412   1.036   5.167   4.075  0.1130  0.1581  0.4505
18641TIP3   OH277413   4.286   3.743   2.303  0.2164 -0.0149  0.3359
18641TIP3    H177414   4.318   3.655   2.323  1.4900  0.6782  1.5223
18641TIP3    H277415   4.346   3.801   2.350 -0.6613  1.4859 -0.3463
18642TIP3   OH277416   2.602   1.257   1.681  0.2024  0.1757 -0.3776
18642TIP3    H177417   2.659   1.198   1.730  0.0143 -0.3499 -0.7806
18642TIP3    H277418   2.550   1.301   1.748  0.1382 -0.3314 -0.0868
18643TIP3   OH277419   1.827   2.142   0.276 -0.2109  0.3992  0.2466
18643TIP3    H177420   1.846   2.217   0.220 -2.2430  0.2405 -0.7391
18643TIP3    H277421   1.757   2.172   0.334 -1.1866 -0.7553 -0.2837
18644TIP3   OH277422   1.759   0.822   4.317 -0.1334 -0.3285 -0.0571
18644TIP3    H177423   1.829   0.790   4.260 -1.0693  0.6606 -1.8672
18644TIP3    H277424   1.795   0.815   4.405  2.3009  0.2302 -0.9064
18645TIP3   OH277425   0.368   2.405  16.917 -0.0232  0.2366  0.2152
18645TIP3    H177426   0.408   2.357  16.990  2.1617  1.7034  0.0934
18645TIP3    H277427   0.349   2.338  16.852  2.6035 -0.6112  0.1830
18646TIP3   OH277428   6.812   4.337   4.792 -0.4426 -0.0010 -0.5888
18646TIP3    H177429   6.876   4.383   4.846 -1.4294 -0.4592  1.0426
18646TIP3    H277430   6.819   4.379   4.706  0.7045  1.2175  0.0568
18647TIP3   OH277431   4.230   2.848  13.204 -0.2171 -0.0007  0.4516
18647TIP3    H177432   4.144   2.805  13.208 -0.1844 -0.4885 -2.1516
18647TIP3    H277433   4.293   2.776  13.207  0.0289  0.2302  0.8067
18648TIP3   OH277434   1.348   4.270   0.642  0.2122 -0.4064  0.0355
18648TIP3    H177435   1.327   4.257   0.734  0.5977  0.9083  0.3267
18648TIP3    H277436   1.295   4.346   0.616  1.1172  0.0664 -0.4656
18649TIP3   OH277437   6.587   6.032   3.589 -0.3890  0.0575 -0.2370
18649TIP3    H177438   6.588   6.082   3.507 -1.5641  0.1109 -0.2352
18649TIP3    H277439   6.646   6.079   3.647  1.4711 -0.6835 -1.4397
18650TIP3   OH277440   3.143   3.461   3.235  0.3258 -0.3603  0.5721
18650TIP3    H177441   3.076   3.529   3.240  1.3956  0.7643  0.1279
18650TIP3    H277442   3.223   3.508   3.209  1.5266 -1.5033  2.0313
18651TIP3   OH277443   5.338   6.135   6.283 -0.7387  0.5466  0.4053
18651TIP3    H177444   5.387   6.207   6.244  1.1904  0.6796  2.8587
18651TIP3    H277445   5.271   6.178   6.337 -1.2528  0.4227 -0.1204
18652TIP3   OH277446   0.740   2.457  11.449 -0.4897 -0.5168  0.5377
18652TIP3    H177447   0.688   2.533  11.474 -0.4735 -0.1511 -0.5042
18652TIP3    H277448   0.687   2.411  11.384  0.5496 -0.0171 -0.7186
18653TIP3   OH277449   1.023   4.920  11.566 -0.4963 -0.1432  0.5577
18653TIP3    H177450   1.082   4.934  11.492  0.5564  0.8186  1.5268
18653TIP3    H277451   0.940   4.895  11.527  0.5281 -1.4963 -0.8655
18654TIP3   OH277452   5.341   6.817  12.945 -0.4743 -0.1360 -0.1710
18654TIP3    H177453   5.420   6.775  12.978 -1.2284 -3.7890 -2.5009
18654TIP3    H277454   5.295   6.846  13.024  1.7913 -0.4954  1.3753
18655TIP3   OH277455   5.143   3.745   1.751 -0.0390  0.6240  0.5990
18655TIP3    H177456   5.076   3.769   1.686 -1.2868 -0.5670  1.3919
18655TIP3    H277457   5.096   3.689   1.814  2.0690 -1.5840  0.3333
18656TIP3   OH277458   3.539   0.370  15.544 -0.0814 -0.8293  0.0693
18656TIP3    H177459   3.478   0.338  15.478 -0.5765  1.3887 -0.6338
18656TIP3    H277460   3.484   0.412  15.610  0.3846 -3.1026  2.0614
18657TIP3   OH277461   2.341   1.197   1.002  0.2920  0.0958 -0.1450
18657TIP3    H177462   2.383   1.241   0.928 -0.8042 -0.1570 -0.9473
18657TIP3    H277463   2.255   1.172   0.969  0.7462 -2.3811  0.3577
18658TIP3   OH277464   0.767   3.300  14.829 -0.0528  0.2416 -0.0857
18658TIP3    H177465   0.854   3.307  14.792  0.0191  0.5033  0.1309
18658TIP3    H277466   0.715   3.256  14.761  0.0298  0.8756 -0.5684
18659TIP3   OH277467   1.570   5.696  14.600 -0.1323 -0.1537  0.0252
18659TIP3    H177468   1.639   5.732  14.544  0.3941 -1.4458 -0.2030
18659TIP3    H277469   1.579   5.742  14.683  0.3574  0.4003 -0.3286
18660TIP3   OH277470   3.274   2.070   0.287  0.2110 -0.0280  0.0090
18660TIP3    H177471   3.263   2.086   0.193 -0.3305  1.9024  0.3707
18660TIP3    H277472   3.338   1.999   0.291  0.4273  0.0150 -1.8199
18661TIP3   OH277473   0.505   1.681  13.984  0.6481  0.2248 -0.4367
18661TIP3    H177474   0.520   1.587  13.989 -0.4214  0.0502 -0.1523
18661TIP3    H277475   0.581   1.720  14.027  0.3458 -0.5739  0.8956
18662TIP3   OH277476   4.645   5.512  11.487 -0.1858 -0.2629 -0.2452
18662TIP3    H177477   4.569   5.552  11.446  0.4097  0.4960 -0.6552
18662TIP3    H277478   4.720   5.551  11.441  0.4305 -1.8802 -0.6825
18663TIP3   OH277479   1.320   0.931   3.618  0.6899 -0.2185  0.0001
18663TIP3    H177480   1.397   0.888   3.580  1.3440  0.7522  0.1826
18663TIP3    H277481   1.310   1.012   3.567 -0.6354 -0.6520 -0.4718
18664TIP3   OH277482   0.487   6.662   0.907 -0.5494  0.0413 -0.2975
18664TIP3    H177483   0.580   6.636   0.907 -1.0680 -2.3040  2.1688
18664TIP3    H277484   0.451   6.621   0.829  0.1296 -0.6164 -0.2770
18665TIP3   OH277485   2.531   5.802   2.541 -0.5359  0.2393 -0.1348
18665TIP3    H177486   2.563   5.792   2.451  1.1269  0.4920  0.3957
18665TIP3    H277487   2.501   5.714   2.566  1.5403 -0.4865 -0.0343
18666TIP3   OH277488   1.789   6.109  11.400 -0.5715 -0.5570 -0.1833
18666TIP3    H177489   1.824   6.115  11.311 -0.3229 -1.6160 -0.1687
18666TIP3    H277490   1.866   6.092  11.455 -0.7858 -0.3641  0.1817
18667TIP3   OH277491   5.764   1.088   2.403 -0.0427  0.1165  0.0383
18667TIP3    H177492   5.690   1.148   2.410 -0.5507 -0.6349  1.3283
18667TIP3    H277493   5.760   1.057   2.312  0.1817  1.9258 -0.6346
18668TIP3   OH277494   6.249   1.954  15.013  0.0875 -0.5700  0.1527
18668TIP3    H177495   6.229   1.998  14.930  0.0781  0.9255  0.9186
18668TIP3    H277496   6.343   1.968  15.025 -0.1785  0.5989  1.1268
18669TIP3   OH277497   2.056   4.497  16.211 -0.4344  0.2208 -0.4172
18669TIP3    H177498   2.024   4.480  16.300 -1.4731  1.0763 -0.6120
18669TIP3    H277499   2.118   4.569  16.221  1.8065 -1.6402  0.0061
18670TIP3   OH277500   3.713   4.880  15.036 -0.1561 -0.3974  0.1006
18670TIP3    H177501   3.658   4.850  15.109  0.3921 -1.2128  0.1914
18670TIP3    H277502   3.681   4.968  15.017 -1.7443 -0.9796 -0.0923
18671TIP3   OH277503   5.165   5.796  10.563 -0.4964  0.1943  0.0075
18671TIP3    H177504   5.224   5.864  10.597 -0.6421 -0.1186  0.9025
18671TIP3    H277505   5.120   5.763  10.640 -1.0625 -0.3245 -0.5391
18672TIP3   OH277506   5.660   0.146   1.121  0.3817  0.2387 -0.1217
18672TIP3    H177507   5.664   0.184   1.033 -0.2398 -0.0999 -0.2979
18672TIP3    H277508   5.584   0.188   1.161  0.1122 -0.3022 -0.0704
18673TIP3   OH277509   3.247   2.126   3.943 -0.2304  0.4694  0.1271
18673TIP3    H177510   3.279   2.050   3.992 -0.7276  0.2052  0.0555
18673TIP3    H277511   3.228   2.192   4.010 -0.2970  0.3391  0.2380
18674TIP3   OH277512   3.717   1.205   2.318  0.5033 -0.3365 -0.1253
18674TIP3    H177513   3.686   1.201   2.227 -0.0190 -0.6462  0.0570
18674TIP3    H277514   3.664   1.139   2.363  1.6884 -1.1322  0.1412
18675TIP3   OH277515   2.788   3.073  13.512 -0.2848 -0.5322  0.0469
18675TIP3    H177516   2.748   3.060  13.598  1.0487 -0.6917  0.6694
18675TIP3    H277517   2.734   3.140  13.471 -0.6301 -0.0489  1.2298
18676TIP3   OH277518   1.160   0.638   0.895  0.3541  0.1583  0.2419
18676TIP3    H177519   1.127   0.551   0.916 -0.6555  1.0109  2.5420
18676TIP3    H277520   1.096   0.674   0.833  0.1376 -0.2970  0.2008
18677TIP3   OH277521   5.201   5.097  14.825 -0.5440 -0.0499  0.3733
18677TIP3    H177522   5.151   5.030  14.872 -1.1342 -1.0479 -1.5462
18677TIP3    H277523   5.228   5.159  14.892 -1.5442 -1.2547  1.9591
18678TIP3   OH277524   0.853   2.937   2.237  0.0822  0.2232  0.6077
18678TIP3    H177525   0.798   2.890   2.175  0.5133  1.2281 -0.5904
18678TIP3    H277526   0.872   2.873   2.306 -1.0110 -0.7006  0.0873
18679TIP3   OH277527   0.815   6.640  12.117  0.1867  0.3119  0.3508
18679TIP3    H177528   0.855   6.712  12.068 -1.1221  1.2862  0.6701
18679TIP3    H277529   0.782   6.580  12.050 -3.2697  2.5306 -0.1719
18680TIP3   OH277530   1.036   3.615   2.719  0.1469 -0.0238 -0.1095
18680TIP3    H177531   0.962   3.556   2.704 -0.2194  0.3600  0.1698
18680TIP3    H277532   0.998   3.690   2.764  0.8363 -0.1475  0.6891
18681TIP3   OH277533   4.179   1.099   0.551 -0.1675 -0.2397  0.0272
18681TIP3    H177534   4.245   1.034   0.574  0.5463  0.2849 -0.4861
18681TIP3    H277535   4.115   1.051   0.499  0.3930 -0.5207 -0.4088
18682TIP3   OH277536   6.573   0.602  12.233  0.0749 -0.0327 -0.5358
18682TIP3    H177537   6.521   0.522  12.233  0.2315 -0.1423 -1.1579
18682TIP3    H277538   6.655   0.579  12.275 -1.6249  1.0239  3.8638
18683TIP3   OH277539   1.753   5.234  14.986  0.2495 -0.4986 -0.4772
18683TIP3    H177540   1.792   5.314  14.951  2.0111 -1.1007  0.0243
18683TIP3    H277541   1.825   5.171  14.988 -0.5899 -1.4683  1.0989
18684TIP3   OH277542   0.823   5.549   3.410  0.5029 -0.2940  0.3658
18684TIP3    H177543   0.733   5.520   3.420 -0.0191  1.6497  2.0536
18684TIP3    H277544   0.869   5.473   3.374 -1.9054 -1.1040 -1.2060
18685TIP3   OH277545   6.405   6.661  10.551 -0.5898  0.1053 -0.8377
18685TIP3    H177546   6.316   6.687  10.574 -0.2560 -0.9565  2.0678
18685TIP3    H277547   6.457   6.740  10.564 -0.5896 -0.1918  1.2878
18686TIP3   OH277548   0.013   0.655   4.627 -0.5782  0.3052  0.2169
18686TIP3    H177549  -0.072   0.613   4.614  0.1346 -1.9677  2.1603
18686TIP3    H277550   0.075   0.600   4.579  0.1434  0.2096  1.2218
18687TIP3   OH277551   2.521   4.547  16.717  0.4202  0.5175  1.1318
18687TIP3    H177552   2.459   4.596  16.664  0.6282 -0.7928 -0.4295
18687TIP3    H277553   2.467   4.486  16.768  0.3776 -0.9273 -0.5519
18688TIP3   OH277554   6.242   6.399  16.041  0.3066  0.4406 -0.0442
18688TIP3    H177555   6.168   6.343  16.063  1.0419 -1.2533 -1.5948
18688TIP3    H277556   6.307   6.383  16.110  0.1077  0.1599  0.0789
18689TIP3   OH277557   6.006   3.372   2.968 -0.5788 -0.4750 -0.5485
18689TIP3    H177558   6.037   3.354   2.880  0.3388 -0.7579 -0.1756
18689TIP3    H277559   5.996   3.468   2.970 -0.9900 -0.4989 -1.0712
18690TIP3   OH277560   0.042   1.311  17.023 -0.6088  0.4503  0.4106
18690TIP3    H177561   0.094   1.273  17.094 -0.8007 -0.5972  0.0017
18690TIP3    H277562  -0.027   1.247  17.007 -0.8134  0.8730 -0.4467
18691TIP3   OH277563   3.672   1.954  16.593 -0.0461 -0.5051  0.6222
18691TIP3    H177564   3.675   2.046  16.621  0.0104 -0.5020  0.6066
18691TIP3    H277565   3.668   1.904  16.674 -1.9694 -0.4285  0.6374
18692TIP3   OH277566   5.826   2.348  14.914 -0.8832  0.1387  0.0456
18692TIP3    H177567   5.785   2.413  14.970  1.5732  0.9012  1.0739
18692TIP3    H277568   5.863   2.399  14.841 -0.3607 -0.3015 -0.0031
18693TIP3   OH277569   1.531   3.953  13.819  0.2178  0.0800 -0.0592
18693TIP3    H177570   1.612   3.907  13.843  0.8153  0.9277 -0.3792
18693TIP3    H277571   1.519   3.934  13.726 -1.1345 -1.7653  0.4313
18694TIP3   OH277572   3.216   0.946  14.566  0.5236  0.3672 -0.2045
18694TIP3    H177573   3.229   0.893  14.644  0.6960  0.1755 -0.3599
18694TIP3    H277574   3.276   1.021  14.578 -0.8539  1.3687  0.7450
18695TIP3   OH277575   2.133   0.911  15.692  0.2351  0.7321  0.0704
18695TIP3    H177576   2.070   0.840  15.701  0.3585  0.6494  0.2677
18695TIP3    H277577   2.218   0.868  15.687  0.2961  0.8569  0.0336
18696TIP3   OH277578   5.256   5.849  14.066  0.0978 -0.1068 -0.1070
18696TIP3    H177579   5.228   5.776  14.011  1.5373 -0.1162 -0.8855
18696TIP3    H277580   5.293   5.808  14.144  1.5640 -0.2769 -0.8591
18697TIP3   OH277581   6.191   4.540   5.213  0.7632 -0.0718  0.4170
18697TIP3    H177582   6.253   4.596   5.260 -0.9033  1.3189  1.0798
18697TIP3    H277583   6.129   4.602   5.173 -1.4155 -1.4146  1.5476
18698TIP3   OH277584   1.172   5.285  15.102 -0.7225  0.5773 -0.0737
18698TIP3    H177585   1.176   5.301  15.007 -0.3645 -2.6507 -0.7291
18698TIP3    H277586   1.082   5.254  15.116 -0.0814 -1.3901  0.0772
18699TIP3   OH277587   2.348   2.681  16.209 -0.2435 -0.2553  0.1748
18699TIP3    H177588   2.325   2.604  16.261  1.7267 -0.2412  1.1689
18699TIP3    H277589   2.414   2.649  16.148  0.6801  0.6307  0.6741
18700TIP3   OH277590   1.528   6.722  13.947  0.2450 -0.2121  0.0904
18700TIP3    H177591   1.450   6.746  13.897 -0.5016 -0.4806  1.0896
18700TIP3    H277592   1.553   6.636  13.911  0.5221  0.1989 -0.7233
18701TIP3   OH277593   1.536   2.914  15.077 -0.0920 -0.8050  0.1129
18701TIP3    H177594   1.453   2.867  15.070 -0.1929 -0.4293 -1.4954
18701TIP3    H277595   1.601   2.854  15.040 -0.4251  0.7142 -3.2909
18702TIP3   OH277596   2.446   4.707   2.720 -0.1184  0.2282  0.0102
18702TIP3    H177597   2.513   4.663   2.774 -0.4839  0.6617  0.8371
18702TIP3    H277598   2.403   4.636   2.673  0.3515 -0.1427  0.1288
18703TIP3   OH277599   5.616   0.150   1.473  0.0565  0.5178 -0.4631
18703TIP3    H177600   5.659   0.113   1.550 -2.1338 -1.2960  0.0127
18703TIP3    H277601   5.588   0.074   1.422 -0.4348  1.6465 -1.9384
18704TIP3   OH277602   4.679   2.634  14.886 -0.0784 -0.1915  0.3173
18704TIP3    H177603   4.686   2.708  14.946  2.5723 -0.0596 -0.0171
18704TIP3    H277604   4.683   2.556  14.942  1.7045 -0.0609  0.4456
18705TIP3   OH277605   3.104   2.513   3.256  0.9033 -0.7513  0.1392
18705TIP3    H177606   3.169   2.448   3.283  1.8249  0.6877  1.6275
18705TIP3    H277607   3.047   2.522   3.333 -0.4868 -1.2582 -0.7928
18706TIP3   OH277608   1.675   4.370  16.635 -0.1806 -0.3856  0.2125
18706TIP3    H177609   1.622   4.347  16.559 -0.7240 -0.1841  0.5252
18706TIP3    H277610   1.725   4.447  16.608 -0.4853 -0.2228  0.1135
18707TIP3   OH277611   2.870   4.526  16.134  0.3821  0.1440  0.0342
18707TIP3    H177612   2.779   4.535  16.161  0.8355  1.7059  1.2078
18707TIP3    H277613   2.895   4.614  16.105  1.7728 -0.0284  0.6251
18708TIP3   OH277614   0.957   2.630   3.065 -0.0949  0.1301 -0.1802
18708TIP3    H177615   0.976   2.615   2.972  1.1805 -1.2188  0.2591
18708TIP3    H277616   0.915   2.716   3.067  1.3567  0.9556 -1.8487
18709TIP3   OH277617   4.536   0.364   5.598 -0.3935  0.3612  0.2713
18709TIP3    H177618   4.443   0.345   5.583 -0.4973  1.1082 -0.0766
18709TIP3    H277619   4.547   0.355   5.693 -0.5130 -1.0193  0.1746
18710TIP3   OH277620   0.015   0.580  15.048  0.1383 -0.1167 -0.2078
18710TIP3    H177621   0.007   0.676  15.043  2.6852  0.3059  1.6170
18710TIP3    H277622  -0.015   0.549  14.963  0.0102  2.3829 -1.1674
18711TIP3   OH277623   0.527   2.653  14.286 -0.3756 -0.4139  0.1362
18711TIP3    H177624   0.508   2.566  14.251 -1.4514  0.1819 -0.8483
18711TIP3    H277625   0.610   2.678  14.245 -1.1628 -0.1013 -1.3065
18712TIP3   OH277626   4.146   6.736   0.073  0.0038  0.0287 -0.0013
18712TIP3    H177627   4.176   6.648   0.097  0.2849  0.0481 -0.2743
18712TIP3    H277628   4.215   6.771   0.017 -0.1351  0.4024  0.0548
18713TIP3   OH277629   4.810   3.552  14.385  0.3356 -0.1628 -0.1918
18713TIP3    H177630   4.807   3.482  14.319 -3.1191 -0.3626  0.0171
18713TIP3    H277631   4.812   3.506  14.468  1.7030  0.0745 -0.0726
18714TIP3   OH277632   6.661   4.494  15.986 -0.0013  0.6254  0.1569
18714TIP3    H177633   6.685   4.525  15.899 -1.3446 -1.1615 -0.9160
18714TIP3    H277634   6.566   4.503  15.990 -0.1192 -0.6500  0.8662
18715TIP3   OH277635   6.452   5.643  10.865 -0.3199  0.0705  0.0175
18715TIP3    H177636   6.384   5.707  10.883  0.4963  0.7933  0.6220
18715TIP3    H277637   6.455   5.638  10.769  0.8521  2.3734 -0.1412
18716TIP3   OH277638   2.585   0.629   6.039  0.1690  0.2238  0.3853
18716TIP3    H177639   2.593   0.638   6.134  1.1459  0.8975  0.2584
18716TIP3    H277640   2.675   0.640   6.006  0.3040 -2.5148 -0.4453
18717TIP3   OH277641   2.597   4.949  14.496  0.0403 -0.0885  0.4973
18717TIP3    H177642   2.514   4.964  14.541  0.3811  0.9173  0.8155
18717TIP3    H277643   2.640   5.034  14.496 -0.6030  0.3933 -3.0633
18718TIP3   OH277644   1.143   6.740  14.040 -0.4682  0.2930 -0.0871
18718TIP3    H177645   1.181   6.740  14.128 -2.0937  1.6740  0.6744
18718TIP3    H277646   1.207   6.786  13.986  0.5347 -0.5389  0.3448
18719TIP3   OH277647   2.715   1.914  15.430 -0.2794  0.3541  0.2325
18719TIP3    H177648   2.671   1.832  15.452 -0.0302  0.1718  0.0641
18719TIP3    H277649   2.790   1.918  15.490  1.3939 -0.9859 -1.6161
18720TIP3   OH277650   2.932   4.052  16.818  0.1478  0.1818 -0.2805
18720TIP3    H177651   2.915   4.009  16.735  0.7934  1.3958 -1.0759
18720TIP3    H277652   2.923   4.146  16.799 -0.5365  0.4493  1.2155
18721TIP3   OH277653   1.529   3.751   2.805 -0.3071  0.2712 -0.1419
18721TIP3    H177654   1.500   3.735   2.715  2.9559 -1.2931 -1.0728
18721TIP3    H277655   1.579   3.832   2.801  1.1450 -0.5894 -0.1428
18722TIP3   OH277656   3.354   5.728   2.057 -0.4878 -0.4184 -0.2276
18722TIP3    H177657   3.263   5.756   2.066 -0.6294 -1.4217  2.3395
18722TIP3    H277658   3.403   5.789   2.111  0.2945 -0.2913 -1.0664
18723TIP3   OH277659   0.115   2.638  10.172 -0.5592 -0.1075 -0.3026
18723TIP3    H177660   0.127   2.575  10.243  0.7527 -1.3019 -1.5262
18723TIP3    H277661   0.203   2.672  10.155 -0.9873  0.7610 -0.8323
18724TIP3   OH277662   1.805   0.730  12.590  0.4092 -0.3905 -0.6458
18724TIP3    H177663   1.788   0.638  12.612  0.5465 -0.2742 -0.0467
18724TIP3    H277664   1.888   0.750  12.633  0.2176  0.1065 -0.5018
18725TIP3   OH277665   0.578   6.024   5.988  0.0191  0.0686 -0.2851
18725TIP3    H177666   0.598   6.027   5.894  0.3890 -2.3207 -0.3570
18725TIP3    H277667   0.659   6.052   6.030 -0.5847  2.5745 -0.6074
18726TIP3   OH277668   0.049   4.160   5.983  0.3516  0.2831 -0.1066
18726TIP3    H177669   0.029   4.075   6.023 -1.0888  1.5151  2.0272
18726TIP3    H277670   0.038   4.223   6.055  0.3556  2.3990 -1.8568
18727TIP3   OH277671   1.212   0.088   0.412 -0.0609  0.2218  0.6270
18727TIP3    H177672   1.294   0.095   0.363 -0.4270  0.1496 -0.0042
18727TIP3    H277673   1.191   0.178   0.437 -0.3265  0.3760 -0.1174
18728TIP3   OH277674   4.912   5.575   6.072  0.2313  0.0583  0.6383
18728TIP3    H177675   4.895   5.495   6.121  1.3219 -0.0790  0.8099
18728TIP3    H277676   4.942   5.638   6.137  1.3657 -0.0249  0.2207
18729TIP3   OH277677   6.316   1.981  16.076  0.2753 -0.2306 -0.0679
18729TIP3    H177678   6.277   1.940  16.154 -0.1176  1.3987  0.6409
18729TIP3    H277679   6.374   1.914  16.040 -1.9190 -2.1859 -0.2209
18730TIP3   OH277680   2.776   2.280   0.153  0.0258 -0.9007 -0.4289
18730TIP3    H177681   2.697   2.305   0.200  0.4771 -0.5569  0.1779
18730TIP3    H277682   2.748   2.267   0.063 -0.2187  2.1702 -0.9041
18731TIP3   OH277683   0.804   5.851   0.443  0.1502  0.5886  0.0605
18731TIP3    H177684   0.802   5.757   0.458 -0.8384  0.7442  1.0537
18731TIP3    H277685   0.712   5.878   0.443  0.4173  1.5715 -0.1099
18732TIP3   OH277686   1.847   5.062  16.797 -0.2121 -0.7517  0.4670
18732TIP3    H177687   1.802   5.066  16.881 -0.6374  1.1910  0.1843
18732TIP3    H277688   1.932   5.021  16.817  0.1964  0.7882  2.0900
18733TIP3   OH277689   3.543   1.497   1.976 -0.0974 -0.5467  0.7415
18733TIP3    H177690   3.519   1.579   1.934  0.7535 -0.6395  0.0355
18733TIP3    H277691   3.460   1.451   1.990 -0.4328 -0.3472 -0.5054
18734TIP3   OH277692   3.410   5.091   1.586 -0.0459  0.1465  0.2786
18734TIP3    H177693   3.332   5.053   1.546 -0.9819  1.0243  1.2064
18734TIP3    H277694   3.445   5.022   1.642  0.1441 -0.4189 -0.5270
18735TIP3   OH277695   6.524   5.645  12.594 -0.7108  0.3744 -0.1855
18735TIP3    H177696   6.445   5.592  12.603 -0.4285 -0.1674 -0.7934
18735TIP3    H277697   6.559   5.651  12.683 -1.7299  1.1127  0.1854
18736TIP3   OH277698   0.518   3.973  11.108 -0.4918 -0.2637  0.2820
18736TIP3    H177699   0.594   4.028  11.128  0.7360 -1.5344 -0.6914
18736TIP3    H277700   0.490   3.939  11.193  1.1849 -1.1848  0.5211
18737TIP3   OH277701   5.817   0.992  15.272 -0.4833 -0.5565 -0.1471
18737TIP3    H177702   5.792   0.970  15.182 -0.8953  1.8078 -0.7049
18737TIP3    H277703   5.891   0.935  15.291  0.6405 -0.0642 -2.6025
18738TIP3   OH277704   1.790   5.095  13.958  0.0726 -0.0054  0.1630
18738TIP3    H177705   1.724   5.031  13.982 -1.2778  1.5133  0.6907
18738TIP3    H277706   1.741   5.175  13.941  1.4904  0.4598 -2.3689
18739TIP3   OH277707   1.818   2.351  14.593 -0.0232  0.0919  0.0978
18739TIP3    H177708   1.885   2.347  14.525  0.2110  0.6024  0.2874
18739TIP3    H277709   1.857   2.407  14.661  0.0361 -0.9727  0.9717
18740TIP3   OH277710   3.042   0.867  14.107  0.2366 -0.1342 -0.7026
18740TIP3    H177711   2.975   0.883  14.173  1.2039 -0.1147  0.3083
18740TIP3    H277712   3.125   0.877  14.154  0.9512 -0.4496 -1.8499
18741TIP3   OH277713   1.127   3.988   0.226  0.5159  0.4988  0.0922
18741TIP3    H177714   1.113   3.950   0.139  1.7789 -2.5413  1.1020
18741TIP3    H277715   1.212   4.031   0.220  1.9606 -2.0984  0.4477
18742TIP3   OH277716   0.417   3.303  14.832  0.5509  0.5945 -0.3969
18742TIP3    H177717   0.343   3.317  14.891  1.2166 -0.0929  0.6406
18742TIP3    H277718   0.388   3.236  14.771  0.7039 -0.5558  0.7574
18743TIP3   OH277719   4.749   1.377  12.453  0.2596  0.3002  0.2433
18743TIP3    H177720   4.825   1.371  12.511 -0.6579  4.2393  2.1924
18743TIP3    H277721   4.679   1.330  12.498  0.8605 -1.3429 -0.4507
18744TIP3   OH277722   2.774   1.062   3.911 -0.1172  0.3405 -0.1193
18744TIP3    H177723   2.736   1.018   3.987 -2.4159 -0.6863 -1.7184
18744TIP3    H277724   2.741   1.152   3.916 -1.5094 -0.1162 -0.6273
18745TIP3   OH277725   3.881   6.612  14.432  0.0579 -0.1977  0.9779
18745TIP3    H177726   3.931   6.574  14.360  2.1487 -1.7072  3.0984
18745TIP3    H277727   3.930   6.690  14.457 -1.8332  1.5995 -0.4771
18746TIP3   OH277728   6.570   2.469  14.180  0.3620 -0.2537 -0.1257
18746TIP3    H177729   6.536   2.494  14.266  2.0510  1.6901  0.0557
18746TIP3    H277730   6.493   2.438  14.133 -0.8055 -0.3694  1.7204
18747TIP3   OH277731   2.051   3.766   1.987 -0.1943  0.0887  0.2775
18747TIP3    H177732   2.125   3.758   2.047 -0.3298  0.8347  0.5628
18747TIP3    H277733   2.027   3.859   1.992 -0.1582  0.1749 -1.0004
18748TIP3   OH277734   1.284   5.928   5.116 -0.4869 -0.4037 -0.3526
18748TIP3    H177735   1.269   5.990   5.188 -0.4752  0.1813 -0.8477
18748TIP3    H277736   1.377   5.937   5.095 -0.9483  1.1347 -1.9677
18749TIP3   OH277737   5.757   5.809  11.450  0.5109 -0.4838  0.3171
18749TIP3    H177738   5.832   5.776  11.500 -0.6878  0.3949  2.8671
18749TIP3    H277739   5.793   5.881  11.397  1.5446 -0.3015  1.2376
18750TIP3   OH277740   5.992   0.822  16.027  0.0840 -0.3601 -0.3679
18750TIP3    H177741   6.064   0.860  16.076  0.0227 -1.9783  1.0689
18750TIP3    H277742   6.034   0.761  15.966 -0.0262 -1.3040  0.4692
18751TIP3   OH277743   2.439   3.921   3.362  0.5183  0.1948 -0.3727
18751TIP3    H177744   2.364   3.889   3.413  0.5700 -0.4279 -0.6775
18751TIP3    H277745   2.446   4.014   3.385  1.6994 -0.4429  2.2191
18752TIP3   OH277746   6.034   5.376  10.552 -0.1577 -0.5668  0.0859
18752TIP3    H177747   6.053   5.290  10.514  0.4286 -0.8731  1.0536
18752TIP3    H277748   5.962   5.361  10.612 -0.4254 -0.2666 -0.1554
18753TIP3   OH277749   1.887   3.952  12.567 -0.6337  0.1850 -0.1688
18753TIP3    H177750   1.865   3.859  12.562  2.5869 -0.6196 -2.2662
18753TIP3    H277751   1.838   3.992  12.495 -1.6807  0.0784  0.4612
18754TIP3   OH277752   1.147   2.976  11.684  0.4821  0.2388 -0.0557
18754TIP3    H177753   1.078   3.037  11.709  0.4437 -1.1833  4.0042
18754TIP3    H277754   1.223   3.031  11.665 -1.1653  1.7269 -2.9543
18755TIP3   OH277755   0.894   3.429   2.103  0.5189  0.1684 -0.1142
18755TIP3    H177756   0.799   3.436   2.092  0.5489  0.7129 -0.0419
18755TIP3    H277757   0.906   3.346   2.148  0.2010 -0.7296 -1.6178
18756TIP3   OH277758   6.788   1.865  15.124 -0.1185  0.0147  0.3030
18756TIP3    H177759   6.847   1.861  15.048 -0.0285  0.9534  0.3145
18756TIP3    H277760   6.793   1.778  15.163  0.8136 -0.0923 -0.0363
18757TIP3   OH277761   1.336   0.215   4.449 -0.3762 -0.5147 -0.2431
18757TIP3    H177762   1.358   0.283   4.386 -0.1652 -1.3246 -1.0670
18757TIP3    H277763   1.327   0.136   4.396  1.3022 -1.5321  0.9016
18758TIP3   OH277764   0.228   4.315  15.948 -0.3420  0.5093  0.4800
18758TIP3    H177765   0.277   4.285  16.025  0.1975  3.0524  1.2027
18758TIP3    H277766   0.140   4.333  15.980 -0.2010  1.2845  0.4454
18759TIP3   OH277767   6.085   5.001  11.677  0.4465  0.1755 -0.0691
18759TIP3    H177768   6.074   4.970  11.587  0.4267 -0.3609  0.1122
18759TIP3    H277769   6.013   4.959  11.725  1.2309 -0.5951  0.4527
18760TIP3   OH277770   5.859   0.639   1.868  0.3357  0.1184 -0.3274
18760TIP3    H177771   5.851   0.584   1.790  0.0782  0.6810 -0.7030
18760TIP3    H277772   5.776   0.625   1.915  0.6357 -0.4942  0.0356
18761TIP3   OH277773   1.345   1.707  13.213 -0.1654 -0.8770  0.3771
18761TIP3    H177774   1.311   1.720  13.302  0.3975  1.0512  0.3517
18761TIP3    H277775   1.437   1.684  13.226  0.6900  2.1729  0.2971
18762TIP3   OH277776   0.577   1.291   2.903  0.0005  0.2299  0.1477
18762TIP3    H177777   0.506   1.347   2.871 -0.2719 -0.2240 -0.0481
18762TIP3    H277778   0.546   1.257   2.986 -0.0460 -0.0345  0.0225
18763TIP3   OH277779   2.194   2.232  13.572  0.2130  0.4913  0.0078
18763TIP3    H177780   2.222   2.315  13.611  0.2576 -0.1593  1.4228
18763TIP3    H277781   2.146   2.187  13.642 -0.3193 -0.4260 -0.9179
18764TIP3   OH277782   2.198   1.337  12.887  0.0674 -0.3114  0.3647
18764TIP3    H177783   2.230   1.376  12.968  0.1029  0.0991  0.1556
18764TIP3    H277784   2.172   1.248  12.912  0.1722 -0.2221  0.8024
18765TIP3   OH277785   0.733   2.453  14.553 -0.2031 -0.1389 -0.1916
18765TIP3    H177786   0.652   2.417  14.588  0.6390 -1.9114  0.0142
18765TIP3    H277787   0.751   2.402  14.475  0.8843  0.0151 -0.0609
18766TIP3   OH277788   4.424   5.345   2.612  0.3232  0.4594  0.3563
18766TIP3    H177789   4.508   5.357   2.656 -0.2377  1.7883  1.1306
18766TIP3    H277790   4.359   5.370   2.678 -0.5442  2.6699 -1.1960
18767TIP3   OH277791   6.476   4.483  13.807  0.1681 -0.0206 -0.0474
18767TIP3    H177792   6.533   4.559  13.793 -1.2036  1.1967  0.7515
18767TIP3    H277793   6.391   4.510  13.773 -0.2936 -1.2696  0.0785
18768TIP3   OH277794   6.632   1.230   5.616  0.7742 -0.5699  0.1527
18768TIP3    H177795   6.685   1.309   5.604 -0.8212  1.1159  2.9731
18768TIP3    H277796   6.651   1.176   5.539  2.5605  2.1887 -1.5234
18769TIP3   OH277797   4.480   4.855   3.250  0.3899  0.1683  0.4831
18769TIP3    H177798   4.556   4.798   3.238 -0.2360 -0.6329  0.2345
18769TIP3    H277799   4.513   4.929   3.301  1.2725 -0.3010  0.6087
18770TIP3   OH277800   3.070   1.786   5.376 -0.0451 -0.1722 -0.2978
18770TIP3    H177801   3.091   1.778   5.283  0.2808 -1.5462 -0.1181
18770TIP3    H277802   3.052   1.697   5.405 -0.6226  0.2973  0.8552
18771TIP3   OH277803   6.528   0.396   0.840  0.2407  0.3209 -0.6512
18771TIP3    H177804   6.592   0.444   0.788  0.0907 -0.7493 -1.8534
18771TIP3    H277805   6.443   0.432   0.812  0.1512 -0.3599 -1.2640
18772TIP3   OH277806   4.439   2.292  12.522  0.3773  0.2956 -0.0734
18772TIP3    H177807   4.381   2.223  12.555  0.1355  1.0929  1.2159
18772TIP3    H277808   4.477   2.254  12.443 -0.5675 -0.9102  0.0111
18773TIP3   OH277809   2.721   5.366  13.767 -0.1717 -0.5779  0.4346
18773TIP3    H177810   2.652   5.359  13.834  0.4090 -2.1562  0.9165
18773TIP3    H277811   2.799   5.332  13.809  1.1172  1.7940  0.0996
18774TIP3   OH277812   0.274   0.258   3.426 -0.1546 -0.3124  0.1002
18774TIP3    H177813   0.301   0.166   3.433  0.1548 -0.1448  1.3306
18774TIP3    H277814   0.247   0.268   3.334 -0.0528 -1.5869 -0.0891
18775TIP3   OH277815   5.410   2.919  14.773 -0.2865 -0.1033 -0.2055
18775TIP3    H177816   5.361   2.993  14.808  0.1107  0.5116 -0.9042
18775TIP3    H277817   5.374   2.842  14.817 -1.9592  0.3028 -0.7837
18776TIP3   OH277818   3.166   3.885   0.076 -0.5568  0.0132 -0.5589
18776TIP3    H177819   3.107   3.845   0.012 -2.7668  0.7399  0.8835
18776TIP3    H277820   3.137   3.976   0.081 -2.7751 -0.6696  3.7031
18777TIP3   OH277821   3.719   4.891   2.220 -0.0399  0.3836  0.5843
18777TIP3    H177822   3.720   4.798   2.242 -0.8651 -0.2954 -1.9399
18777TIP3    H277823   3.793   4.903   2.160 -0.3758  1.1902  0.3188
18778TIP3   OH277824   1.022   6.401  16.855  0.6267 -0.3413 -0.1061
18778TIP3    H177825   0.971   6.384  16.935 -0.8834  0.6757 -0.8131
18778TIP3    H277826   1.064   6.486  16.871  2.4661 -1.3106  0.5996
18779TIP3   OH277827   6.623   1.026  13.684 -0.6159  0.3515 -0.2988
18779TIP3    H177828   6.576   0.950  13.650 -1.0393  0.7342 -0.5689
18779TIP3    H277829   6.669   1.062  13.608 -0.5827  0.4904 -0.2141
18780TIP3   OH277830   0.922   1.475   4.780  0.2369 -0.4569 -0.1633
18780TIP3    H177831   0.988   1.513   4.838 -0.1866 -0.6201  0.4248
18780TIP3    H277832   0.867   1.422   4.837  1.5642 -3.0364 -1.0896
18781TIP3   OH277833   2.033   0.411   0.626  0.2215  0.3782  0.7028
18781TIP3    H177834   1.962   0.379   0.681 -1.5975 -0.4947 -1.9822
18781TIP3    H277835   1.991   0.472   0.565  2.0047  0.7490 -0.2378
18782TIP3   OH277836   2.906   0.404  13.576  0.2281  0.6033  0.1623
18782TIP3    H177837   2.938   0.465  13.642  1.5494  1.5936 -1.3197
18782TIP3    H277838   2.948   0.432  13.494  0.4744 -1.9699 -0.6953
18783TIP3   OH277839   4.830   4.411  10.625 -0.0182 -0.1010 -0.2114
18783TIP3    H177840   4.813   4.492  10.673 -0.6726 -0.3120 -0.0749
18783TIP3    H277841   4.889   4.436  10.554  1.8123  0.0484  1.2782
18784TIP3   OH277842   2.759   5.200  16.205 -0.1990 -0.1622  0.0389
18784TIP3    H177843   2.818   5.236  16.139  0.0889 -0.5697  0.0714
18784TIP3    H277844   2.804   5.216  16.288  0.1089 -0.9100  0.0286
18785TIP3   OH277845   5.533   1.014  16.610 -0.7052  0.2447 -0.3296
18785TIP3    H177846   5.479   1.089  16.585 -1.5395  0.5896  2.1891
18785TIP3    H277847   5.494   0.983  16.692  0.9605 -1.5860 -0.1581
18786TIP3   OH277848   4.253   0.977  15.246 -0.1631  0.0313  0.6301
18786TIP3    H177849   4.335   1.006  15.206 -0.6209  0.9636  0.3481
18786TIP3    H277850   4.281   0.937  15.329  0.4811  1.7086  1.2792
18787TIP3   OH277851   3.424   1.147   5.607 -0.4822  0.2568  1.0223
18787TIP3    H177852   3.517   1.147   5.626 -0.1893 -0.6595 -0.2562
18787TIP3    H277853   3.402   1.055   5.593 -1.0919  0.6394 -0.8184
18788TIP3   OH277854   1.882   3.118   0.945  0.2466  0.0823  0.3582
18788TIP3    H177855   1.843   3.076   1.021  1.0132 -0.0161  0.7102
18788TIP3    H277856   1.914   3.045   0.892  1.7500  0.2013  1.0620
18789TIP3   OH277857   2.352   5.085  11.170 -0.0630 -0.2721 -0.5901
18789TIP3    H177858   2.271   5.129  11.195 -1.5244 -0.5908 -4.2631
18789TIP3    H277859   2.346   4.999  11.211 -0.2695  0.5831  1.2946
18790TIP3   OH277860   2.237   3.219   4.803  0.1101 -0.2841  0.0438
18790TIP3    H177861   2.289   3.145   4.774 -0.1874 -0.3578 -0.3108
18790TIP3    H277862   2.283   3.296   4.771 -0.9105 -0.3996 -1.8353
18791TIP3   OH277863   5.055   2.637   5.410  0.3825 -0.3176  0.5657
18791TIP3    H177864   5.023   2.547   5.408 -1.0352  0.1669 -1.2152
18791TIP3    H277865   5.142   2.632   5.370 -0.8655 -0.5634 -2.3533
18792TIP3   OH277866   2.801   6.480   0.505  0.3344 -0.2203  1.0614
18792TIP3    H177867   2.812   6.423   0.430 -0.1279  0.4457  0.4775
18792TIP3    H277868   2.820   6.425   0.581  1.3832 -0.7361  0.4297
18793TIP3   OH277869   0.404   5.115  14.313 -0.1845 -0.8262 -0.0275
18793TIP3    H177870   0.355   5.033  14.316 -1.9767  0.1955  0.0892
18793TIP3    H277871   0.428   5.132  14.404 -0.9440 -0.5918  0.1366
18794TIP3   OH277872   0.140   6.095  13.271 -0.3031 -0.3062  0.6880
18794TIP3    H177873   0.146   6.004  13.301  1.1842 -0.3265  0.3799
18794TIP3    H277874   0.201   6.143  13.328  1.4277 -0.0822 -1.2573
18795TIP3   OH277875   0.169   4.150   5.194 -0.1161  0.5587  0.5186
18795TIP3    H177876   0.091   4.113   5.235 -0.9349 -1.0006 -2.1731
18795TIP3    H277877   0.229   4.077   5.185 -0.4354  0.5021 -1.9279
18796TIP3   OH277878   4.651   6.132   3.646  0.6828  0.2578  0.2746
18796TIP3    H177879   4.582   6.074   3.678  1.6307 -1.6539 -0.9717
18796TIP3    H277880   4.604   6.212   3.622 -0.7335 -0.0991  1.6492
18797TIP3   OH277881   2.469   2.213  14.135 -0.5910  0.1724  0.1493
18797TIP3    H177882   2.437   2.160  14.207 -0.0880 -1.1235 -0.5591
18797TIP3    H277883   2.564   2.202  14.136 -0.6713 -1.0866 -1.6011
18798TIP3   OH277884   0.079   5.882   5.438  0.2747  0.7909 -0.0347
18798TIP3    H177885   0.153   5.913   5.386  0.2552  0.2532 -0.3855
18798TIP3    H277886   0.104   5.902   5.529  0.8108  0.6999 -0.1572
18799TIP3   OH277887   2.670   6.583  11.127 -0.1892 -0.2022 -0.1871
18799TIP3    H177888   2.651   6.490  11.133 -1.2460 -0.0320 -0.7343
18799TIP3    H277889   2.584   6.625  11.124  0.2371  0.6520 -1.9486
18800TIP3   OH277890   0.308   0.917  11.918  0.1794  0.2642 -0.5272
18800TIP3    H177891   0.319   0.990  11.979 -1.7236 -0.6173  1.0129
18800TIP3    H277892   0.241   0.947  11.857 -0.7230 -0.1768  0.2043
18801TIP3   OH277893   6.530   2.496  16.244 -0.2334  0.7493  0.3493
18801TIP3    H177894   6.606   2.509  16.187  0.2609  0.1577  0.8457
18801TIP3    H277895   6.459   2.473  16.184  0.5300 -0.9100  0.0158
18802TIP3   OH277896   3.757   2.196  11.740  0.4229 -0.0507 -0.4795
18802TIP3    H177897   3.788   2.126  11.798  1.4775 -0.0760 -1.0532
18802TIP3    H277898   3.694   2.152  11.682  1.0311 -0.5116 -0.7956
18803TIP3   OH277899   3.843   5.076   1.997  0.1960  0.0049  0.1354
18803TIP3    H177900   3.923   5.127   1.983  0.2809  0.3107  1.5194
18803TIP3    H277901   3.778   5.141   2.021  0.6241 -0.5361  3.2427
18804TIP3   OH277902   3.514   5.666   2.832  0.4478  0.2345 -0.3625
18804TIP3    H177903   3.564   5.588   2.855  1.0928  1.0919  1.3701
18804TIP3    H277904   3.441   5.668   2.893  0.1908  0.7566 -0.6725
18805TIP3   OH277905   3.279   3.604   2.637  0.2113  0.7931  0.6134
18805TIP3    H177906   3.207   3.634   2.583  0.2240 -1.3795 -0.7380
18805TIP3    H277907   3.320   3.684   2.670 -1.2153  2.1253 -0.6945
18806TIP3   OH277908   0.398   4.264   3.860  0.2064  0.0475 -0.5261
18806TIP3    H177909   0.356   4.180   3.842 -2.2282  1.2440 -0.7997
18806TIP3    H277910   0.436   4.253   3.947 -1.0740 -0.9790 -0.0644
18807TIP3   OH277911   5.076   5.491   4.539 -0.0906 -0.3783 -0.5469
18807TIP3    H177912   4.980   5.495   4.530 -0.1022  0.2311 -0.2047
18807TIP3    H277913   5.090   5.485   4.634  0.2510  1.4181 -0.4392
18808TIP3   OH277914   3.996   2.403  13.081 -0.0234  0.2083  0.0401
18808TIP3    H177915   3.907   2.433  13.100 -0.3360 -1.1749  0.8689
18808TIP3    H277916   4.013   2.435  12.993 -2.6705 -2.3241 -1.5782
18809TIP3   OH277917   2.023   0.625   0.927  0.3391 -0.5159 -0.3884
18809TIP3    H177918   1.964   0.569   0.978  0.3578  0.4837  0.7944
18809TIP3    H277919   1.965   0.668   0.863  0.2830 -1.6448 -1.1224
18810TIP3   OH277920   2.962   3.329   2.935 -0.4500  0.1808 -0.4575
18810TIP3    H177921   3.055   3.353   2.927 -0.6643  1.0638 -0.3744
18810TIP3    H277922   2.958   3.239   2.902  0.7664 -0.5917  1.3757
18811TIP3   OH277923   3.515   1.068  11.964 -0.3867  0.0424 -0.4501
18811TIP3    H177924   3.588   1.008  11.948 -1.1636 -0.9387 -0.4446
18811TIP3    H277925   3.438   1.018  11.938 -1.2373  0.3092  1.4296
18812TIP3   OH277926   0.039   6.484  15.049 -0.4815 -0.1843  0.4676
18812TIP3    H177927   0.045   6.400  15.095 -0.5608  1.1409  3.1502
18812TIP3    H277928  -0.049   6.485  15.013 -0.2362 -1.5255 -0.2278
18813TIP3   OH277929   6.553   1.602  11.375 -0.3288  0.1554  0.1008
18813TIP3    H177930   6.477   1.657  11.357 -1.2185 -1.0614 -0.0076
18813TIP3    H277931   6.545   1.529  11.314  1.3324  0.3524 -0.4012
18814TIP3   OH277932   1.906   4.670  14.302 -0.2199  0.6668 -0.2751
18814TIP3    H177933   1.945   4.648  14.217 -1.3815  1.2696 -0.9966
18814TIP3    H277934   1.837   4.605  14.314 -0.5405  1.0268 -0.1532
18815TIP3   OH277935   4.166   6.132  11.722 -0.2935 -0.3348  0.5307
18815TIP3    H177936   4.219   6.106  11.798  0.9692  1.9807  0.5572
18815TIP3    H277937   4.133   6.219  11.746 -2.1709 -0.7245 -0.4990
18816TIP3   OH277938   0.596   4.175   2.935 -0.3843  0.5884 -0.3661
18816TIP3    H177939   0.613   4.263   2.902  0.6269 -0.1381 -1.8977
18816TIP3    H277940   0.602   4.118   2.858 -2.5851 -0.6658  0.3077
18817TIP3   OH277941   2.056   1.008   2.765 -0.0828 -0.2360  0.6413
18817TIP3    H177942   2.117   1.017   2.838  1.6668  0.9365 -0.8511
18817TIP3    H277943   1.999   1.085   2.772  1.5450  1.1541 -0.4165
18818TIP3   OH277944   1.418   0.966  15.018  0.1103  0.4893  0.4983
18818TIP3    H177945   1.403   0.875  14.994  2.2863  0.7413 -2.3046
18818TIP3    H277946   1.344   1.014  14.979 -0.0886  0.1315  0.4312
18819TIP3   OH277947   0.588   4.425  16.403 -0.1511 -0.3978  0.6413
18819TIP3    H177948   0.503   4.468  16.416  0.0958 -0.0956  1.2868
18819TIP3    H277949   0.572   4.333  16.424 -0.3598 -0.3708  0.5993
18820TIP3   OH277950   2.566   5.175  14.646 -0.1546 -0.3528 -0.8270
18820TIP3    H177951   2.498   5.192  14.711  0.8540 -0.7124  0.3464
18820TIP3    H277952   2.590   5.262  14.614  0.3899 -0.0483  0.3740
18821TIP3   OH277953   1.829   5.537   4.380 -0.9221  0.4760  0.1255
18821TIP3    H177954   1.733   5.533   4.378 -1.0429  2.3283 -2.2207
18821TIP3    H277955   1.857   5.459   4.331 -1.1035 -0.8233  1.9736
18822TIP3   OH277956   1.473   2.014  10.735 -0.2766 -0.0490  0.7525
18822TIP3    H177957   1.432   2.094  10.701  0.6209  0.2328  0.2943
18822TIP3    H277958   1.437   1.943  10.683 -0.2347  0.1887  0.3998
18823TIP3   OH277959   3.435   3.478   1.861  0.0726  0.1983  0.5313
18823TIP3    H177960   3.507   3.429   1.822  0.8145  0.8305  1.0781
18823TIP3    H277961   3.368   3.412   1.880 -0.3126 -0.1390 -1.7265
18824TIP3   OH277962   1.188   3.580  13.912 -0.0163 -0.0202  0.0068
18824TIP3    H177963   1.117   3.590  13.976 -0.6861 -0.2798 -0.6728
18824TIP3    H277964   1.244   3.656  13.926 -0.1119 -0.1057  0.9441
18825TIP3   OH277965   1.257   3.860   2.745  0.0503 -0.0358 -0.6281
18825TIP3    H177966   1.259   3.791   2.811 -0.0874 -0.6417 -1.2429
18825TIP3    H277967   1.171   3.900   2.754 -0.3180 -0.7242 -1.0422
18826TIP3   OH277968   3.257   5.521  11.917 -0.0436 -0.1734 -0.6369
18826TIP3    H177969   3.219   5.562  11.839  0.4011 -0.6149 -1.1043
18826TIP3    H277970   3.200   5.547  11.989  1.3140  2.9362 -0.5416
18827TIP3   OH277971   6.047   3.439   1.853 -0.3784 -0.6056 -0.0068
18827TIP3    H177972   6.119   3.380   1.876  0.6645  0.7231  0.2951
18827TIP3    H277973   5.970   3.401   1.894  0.9344  0.2301  3.6038
18828TIP3   OH277974   5.916   5.364   0.623  0.6869 -0.0501 -0.0553
18828TIP3    H177975   6.003   5.344   0.658 -0.0846 -1.6240  1.1138
18828TIP3    H277976   5.904   5.300   0.552  1.1904  1.4048 -1.5157
18829TIP3   OH277977   4.529   4.789   5.941 -0.1821 -0.1231 -0.1657
18829TIP3    H177978   4.597   4.819   5.881  2.4184  0.4852  2.7578
18829TIP3    H277979   4.577   4.768   6.022 -3.1588 -2.6119  1.1673
18830TIP3   OH277980   4.046   3.142  12.669  0.6477 -0.0522 -0.2067
18830TIP3    H177981   4.041   3.220  12.612  0.1467  0.2683  0.2654
18830TIP3    H277982   3.985   3.080  12.629  0.8721 -0.1129 -0.4538
18831TIP3   OH277983   4.718   5.301   2.065 -0.2524  0.0565  0.4044
18831TIP3    H177984   4.719   5.302   2.161 -0.9880 -1.0144  0.4461
18831TIP3    H277985   4.644   5.244   2.042  1.0531 -1.2571 -0.7713
18832TIP3   OH277986   0.737   5.455  15.759  0.6434 -0.0176 -0.0003
18832TIP3    H177987   0.647   5.441  15.789  0.4546  0.7340 -0.1861
18832TIP3    H277988   0.733   5.440  15.665  0.8635 -0.6663  0.0927
18833TIP3   OH277989   2.473   6.328   3.864  0.2274 -0.6526 -0.1522
18833TIP3    H177990   2.537   6.259   3.877  0.3746 -0.5644 -0.4111
18833TIP3    H277991   2.506   6.379   3.790  1.5314  1.2902  1.6242
18834TIP3   OH277992   5.754   3.275   2.234  0.1977 -0.8389  0.0139
18834TIP3    H177993   5.815   3.347   2.247 -0.8865 -0.0878  1.1819
18834TIP3    H277994   5.676   3.301   2.283 -0.2589 -2.7671  0.3804
18835TIP3   OH277995   3.206   2.218  13.368  0.0096 -0.5545  0.1075
18835TIP3    H177996   3.235   2.158  13.437  0.2329 -0.2659  0.2689
18835TIP3    H277997   3.184   2.162  13.294  3.1690 -0.6860 -0.8560
18836TIP3   OH277998   0.077   1.682   2.566 -0.2524 -0.3812  0.3002
18836TIP3    H177999   0.032   1.607   2.526 -1.5633  0.0301  0.9435
18836TIP3    H278000   0.038   1.758   2.524  0.6353 -0.0334  0.0953
18837TIP3   OH278001   1.837   2.936   2.504  0.0606 -0.1136 -0.1874
18837TIP3    H178002   1.781   2.885   2.446  0.4918  0.6489 -1.2975
18837TIP3    H278003   1.920   2.889   2.506  0.4313  0.4834 -1.1457
18838TIP3   OH278004   4.390   5.783   1.915  0.0262 -0.2727 -0.8703
18838TIP3    H178005   4.399   5.731   1.995  2.1545  2.0776  0.5820
18838TIP3    H278006   4.478   5.781   1.876  0.6086  3.0512 -0.0655
18839TIP3   OH278007   4.044   5.609  10.637 -0.2249 -0.2838  0.2908
18839TIP3    H178008   4.105   5.681  10.621 -0.2861 -0.5217 -1.0869
18839TIP3    H278009   4.006   5.629  10.723 -1.7439  2.4055 -0.8978
18840TIP3   OH278010   3.525   4.476  13.860  0.1078  0.1098 -0.3488
18840TIP3    H178011   3.538   4.563  13.898  0.5018  0.3779 -1.0795
18840TIP3    H278012   3.443   4.445  13.899  1.1540 -0.1960  1.7374
18841TIP3   OH278013   1.164   6.371  14.903 -0.1052 -0.2893 -0.0733
18841TIP3    H178014   1.110   6.389  14.980 -1.1046  0.2531 -0.8861
18841TIP3    H278015   1.158   6.276  14.891  0.5406 -0.4635  0.8494
18842TIP3   OH278016   5.928   6.706   0.038 -0.0773 -0.2236 -0.1431
18842TIP3    H178017   6.007   6.685   0.088  0.7802 -0.4625 -1.5231
18842TIP3    H278018   5.942   6.664  -0.047 -1.3215  0.4510 -0.7138
18843TIP3   OH278019   4.100   3.301   4.876 -0.0138 -0.5016 -0.0387
18843TIP3    H178020   4.145   3.254   4.946  1.0455  1.7112  0.8682
18843TIP3    H278021   4.161   3.298   4.802  1.0792  1.2533  0.7294
18844TIP3   OH278022   6.441   5.820  15.119 -0.1516  0.1082  0.4462
18844TIP3    H178023   6.461   5.733  15.084 -1.5383 -0.4559  0.9737
18844TIP3    H278024   6.482   5.821  15.205 -0.5929 -0.2559  0.6692
18845TIP3   OH278025   1.035   5.713   3.467  0.2659 -0.2144  0.3649
18845TIP3    H178026   1.068   5.631   3.430  0.4718  0.6637 -1.4729
18845TIP3    H278027   0.940   5.701   3.469  0.2700 -0.3689 -0.2236
18846TIP3   OH278028   0.187   6.458   3.491  0.2826  0.2747 -0.3597
18846TIP3    H178029   0.099   6.454   3.529 -0.1533 -0.3537 -1.3732
18846TIP3    H278030   0.244   6.481   3.564 -0.5703 -0.5035  0.5877
18847TIP3   OH278031   3.539   3.682   0.110 -0.3162 -0.2996 -0.1459
18847TIP3    H178032   3.578   3.769   0.120 -2.4781  0.4728  3.1541
18847TIP3    H278033   3.612   3.625   0.087  1.6321  1.9531  0.0856
18848TIP3   OH278034   3.025   3.572   1.353 -0.3134  0.4630  0.0731
18848TIP3    H178035   3.057   3.483   1.339  0.6860  0.6942  0.7648
18848TIP3    H278036   3.086   3.610   1.417 -0.6272  1.6893 -0.3134
18849TIP3   OH278037   2.819   0.346   3.145  0.4244 -0.6011 -0.0724
18849TIP3    H178038   2.826   0.374   3.237 -0.7803 -2.9891  0.8293
18849TIP3    H278039   2.897   0.292   3.131  0.2400 -0.8341 -0.2038
18850TIP3   OH278040   5.508   2.954   1.138 -0.1939  0.8643  0.1351
18850TIP3    H178041   5.470   2.997   1.062  0.7358  2.7533  0.6747
18850TIP3    H278042   5.536   2.868   1.106 -1.5407  0.8746 -1.1490
18851TIP3   OH278043   3.123   4.120  11.416 -1.0090 -0.0572  0.3339
18851TIP3    H178044   3.129   4.186  11.484 -3.4689 -0.4469  1.0499
18851TIP3    H278045   3.107   4.170  11.335  0.2622  0.3302  0.3115
18852TIP3   OH278046   2.597   3.500  14.393  0.9061 -0.2158  0.3998
18852TIP3    H178047   2.669   3.449  14.430  2.8904  0.6974 -1.9243
18852TIP3    H278048   2.584   3.464  14.306 -2.3413 -1.0959  1.1153
18853TIP3   OH278049   6.801   4.226   4.431 -0.2789 -0.3223  0.0856
18853TIP3    H178050   6.896   4.224   4.424 -0.1600 -0.1579  1.3909
18853TIP3    H278051   6.770   4.217   4.341  0.9909  1.9110 -0.6755
18854TIP3   OH278052   1.933   3.893   2.244  0.3364  0.8607  0.1709
18854TIP3    H178053   1.903   3.960   2.182  1.3739 -1.3287 -2.9127
18854TIP3    H278054   1.863   3.829   2.246  1.0293  0.0844 -0.0786
18855TIP3   OH278055   2.468   6.443   2.154  0.4208  0.0665  0.0198
18855TIP3    H178056   2.502   6.376   2.094  0.0886 -0.3216  0.2670
18855TIP3    H278057   2.385   6.408   2.185  1.0262 -0.1804  1.4522
18856TIP3   OH278058   0.993   4.118   0.808 -0.1464  0.1752 -0.0873
18856TIP3    H178059   1.006   4.090   0.899  0.7937 -1.1678 -0.5993
18856TIP3    H278060   1.045   4.056   0.757  0.4907  1.7730 -1.4534
18857TIP3   OH278061   4.678   0.068   4.806  0.3754  0.1378 -0.3834
18857TIP3    H178062   4.688   0.141   4.868  1.4750 -1.3915  1.3324
18857TIP3    H278063   4.620   0.007   4.851  0.0407 -0.3855 -1.4964
18858TIP3   OH278064   5.833   5.164   2.294  0.2853  0.2382  0.2944
18858TIP3    H178065   5.818   5.252   2.258  0.0941  0.0790 -0.0206
18858TIP3    H278066   5.919   5.139   2.262  0.2848  0.2586  0.2781
18859TIP3   OH278067   1.349   1.077  16.247  0.1620  0.2079  0.2189
18859TIP3    H178068   1.309   1.157  16.212  0.2131  0.4962  0.8098
18859TIP3    H278069   1.296   1.006  16.211  1.0859  0.3867 -1.6480
18860TIP3   OH278070   1.461   0.140   2.288 -0.3652  0.1260  0.0664
18860TIP3    H178071   1.405   0.197   2.235 -2.6134 -0.8824  1.2244
18860TIP3    H278072   1.437   0.051   2.263  2.3887 -0.4310 -0.9921
18861TIP3   OH278073   3.758   0.362  15.355 -0.1970 -0.0233  0.4005
18861TIP3    H178074   3.803   0.447  15.346 -0.6463  0.1151 -0.8189
18861TIP3    H278075   3.677   0.383  15.402 -0.5623  0.3464 -0.3608
18862TIP3   OH278076   0.708   4.585  15.166  0.3478  0.2088 -0.5206
18862TIP3    H178077   0.798   4.570  15.137  0.1065 -1.0870 -0.6544
18862TIP3    H278078   0.662   4.504  15.143 -0.3145 -0.0888  1.6661
18863TIP3   OH278079   0.169   0.109   0.585  0.1165  0.1517  0.1111
18863TIP3    H178080   0.183   0.204   0.586 -0.9293  0.3287 -0.9231
18863TIP3    H278081   0.074   0.099   0.587  0.2062 -0.9343  2.5491
18864TIP3   OH278082   4.627   0.389   4.538 -0.2787 -0.2385 -0.3025
18864TIP3    H178083   4.687   0.384   4.612 -0.8229 -0.7718  0.1077
18864TIP3    H278084   4.646   0.311   4.486 -0.3709 -0.2232 -0.3594
18865TIP3   OH278085   3.530   0.601  12.530 -0.6623 -0.3164  0.1463
18865TIP3    H178086   3.490   0.679  12.492 -1.4602  0.3172  2.1402
18865TIP3    H278087   3.579   0.634  12.606 -1.1342 -1.7635  1.1079
18866TIP3   OH278088   6.756   2.590  16.699 -0.4017 -0.2773 -0.1520
18866TIP3    H178089   6.787   2.675  16.732  2.0268 -0.6382 -1.2707
18866TIP3    H278090   6.757   2.534  16.777 -0.9100  0.4061  0.3682
18867TIP3   OH278091   0.517   3.905  13.948  0.7338  0.2168 -0.0194
18867TIP3    H178092   0.547   3.927  13.859  1.1747 -2.5662 -0.6395
18867TIP3    H278093   0.597   3.898  13.999  0.4809  1.7564  0.6512
18868TIP3   OH278094   3.202   1.383  15.482  0.1944 -0.3252  0.2184
18868TIP3    H178095   3.241   1.346  15.560  1.6465 -0.9857 -0.7764
18868TIP3    H278096   3.267   1.368  15.413 -0.4044  1.5330 -0.8203
18869TIP3   OH278097   3.859   6.238  15.300  0.0741 -0.2452 -0.4311
18869TIP3    H178098   3.799   6.166  15.286 -0.8310  0.4854 -0.3751
18869TIP3    H278099   3.839   6.301  15.231 -0.0412  0.5219  0.2756
18870TIP3   OH278100   2.482   5.565  16.424 -0.1229 -0.8551  0.0103
18870TIP3    H178101   2.408   5.606  16.380  0.4914  2.6944  1.9196
18870TIP3    H278102   2.468   5.471  16.412 -2.7258 -0.2431 -3.0588
18871TIP3   OH278103   0.825   3.558  15.000  0.7989 -0.0559  0.2175
18871TIP3    H178104   0.735   3.540  14.976  0.8283  0.9813 -0.6985
18871TIP3    H278105   0.876   3.488  14.959  0.5654  0.1931 -0.4914
18872TIP3   OH278106   4.052   1.578  12.472  1.2203  0.2178 -0.1773
18872TIP3    H178107   3.960   1.605  12.479  1.5741  1.5406 -0.2772
18872TIP3    H278108   4.060   1.504  12.532  0.6735  1.7900  1.9963
18873TIP3   OH278109   0.975   3.977  11.382 -0.4788 -0.0193  0.2130
18873TIP3    H178110   1.024   3.990  11.463  0.6297 -2.1173 -0.0510
18873TIP3    H278111   1.022   4.028  11.317  0.0599 -0.2657  0.4088
18874TIP3   OH278112   4.561   5.505   1.944  0.3685 -0.0747  0.4724
18874TIP3    H178113   4.600   5.425   1.980 -0.4644 -0.5823  0.2870
18874TIP3    H278114   4.590   5.575   2.002  0.4487 -0.6344  1.1190
18875TIP3   OH278115   3.852   6.584   0.013 -0.7942  0.4774 -0.0621
18875TIP3    H178116   3.785   6.521  -0.013 -1.3202  0.3946  1.4214
18875TIP3    H278117   3.907   6.593  -0.065 -0.6998 -1.8021 -0.3284
18876TIP3   OH278118   6.090   2.154   0.464  0.1658 -0.0861 -0.0887
18876TIP3    H178119   6.039   2.183   0.387  0.2254  0.6262  0.1320
18876TIP3    H278120   6.176   2.130   0.428  0.0580 -0.1570 -0.3013
18877TIP3   OH278121   1.618   3.639  15.356  0.2493 -0.8186  0.1546
18877TIP3    H178122   1.598   3.549  15.330  1.0818 -0.6088 -1.3609
18877TIP3    H278123   1.533   3.684  15.353  0.1470 -1.0466 -1.3560
18878TIP3   OH278124   0.386   3.355   1.000 -0.6494  0.3832  0.2384
18878TIP3    H178125   0.301   3.356   0.957 -0.3057  0.6729 -0.4341
18878TIP3    H278126   0.412   3.447   1.004  0.3373  0.1747 -0.9724
18879TIP3   OH278127   0.516   0.851  11.436  0.2565 -0.0572 -0.4472
18879TIP3    H178128   0.470   0.829  11.517  1.8953 -0.2472  0.4610
18879TIP3    H278129   0.597   0.893  11.465  1.8078 -1.8718 -1.8984
18880TIP3   OH278130   1.101   2.834   5.682 -0.1572  0.1344  0.2897
18880TIP3    H178131   1.159   2.862   5.752 -0.4611  0.1914  0.5215
18880TIP3    H278132   1.029   2.789   5.727 -1.4002  1.9359  0.1869
18881TIP3   OH278133   0.389   4.042  13.318  0.0240  0.3619 -0.1478
18881TIP3    H178134   0.304   4.001  13.308  0.3477 -0.3123 -0.1762
18881TIP3    H278135   0.428   4.038  13.230  0.2984  0.1761 -0.0218
18882TIP3   OH278136   0.204   2.702   0.552 -0.2014  0.0093  0.5368
18882TIP3    H178137   0.139   2.722   0.484 -0.0773  0.0529  0.4303
18882TIP3    H278138   0.238   2.616   0.528  0.6994  0.5428 -0.1294
18883TIP3   OH278139   4.926   0.859   2.171  0.2505 -0.3701  0.0340
18883TIP3    H178140   4.925   0.906   2.255  0.5892 -0.0051 -0.1606
18883TIP3    H278141   4.958   0.924   2.108  2.0022 -1.2213 -0.0121
18884TIP3   OH278142   5.827   1.804  11.340  0.3060  0.0322  0.0626
18884TIP3    H178143   5.859   1.870  11.402 -2.2456  1.0263  0.4211
18884TIP3    H278144   5.875   1.823  11.259  1.1561  0.9341  0.7438
18885TIP3   OH278145   5.731   1.910   0.268 -0.1169 -0.0605 -0.2545
18885TIP3    H178146   5.717   1.929   0.360  0.7023 -0.0335 -0.1214
18885TIP3    H278147   5.799   1.973   0.241  0.8198 -1.1271 -0.4549
18886TIP3   OH278148   4.835   5.063   0.944 -0.0741  0.2372  0.0422
18886TIP3    H178149   4.806   5.050   1.034 -1.5085  0.1540 -0.4046
18886TIP3    H278150   4.795   5.147   0.918 -3.2002 -1.6128 -1.7838
18887TIP3   OH278151   3.657   5.894   2.864 -0.4625 -0.3087  0.1619
18887TIP3    H178152   3.594   5.822   2.873  0.6570 -1.4672 -0.9096
18887TIP3    H278153   3.715   5.866   2.793 -0.7662  2.2308 -1.2093
18888TIP3   OH278154   2.423   6.445   1.242 -0.4665 -0.2469  0.5248
18888TIP3    H178155   2.331   6.429   1.222 -0.1692 -1.6697  0.1885
18888TIP3    H278156   2.450   6.510   1.178 -0.9819 -0.5901 -0.0530
18889TIP3   OH278157   1.426   4.441  17.029  0.2216  0.3077 -0.0725
18889TIP3    H178158   1.378   4.496  17.091 -1.7040 -0.5416 -0.7491
18889TIP3    H278159   1.359   4.405  16.972  1.5664 -1.7693 -0.4321
18890TIP3   OH278160   4.415   3.291  14.793  0.2080 -0.0035 -0.1881
18890TIP3    H178161   4.428   3.208  14.747  0.9483  1.7674 -3.4418
18890TIP3    H278162   4.322   3.311  14.781  0.3029  0.2436 -0.5101
18891TIP3   OH278163   4.358   2.015  13.041  0.3102 -0.4672  0.4684
18891TIP3    H178164   4.449   2.007  13.011 -0.5580 -1.5541 -2.1663
18891TIP3    H278165   4.329   2.100  13.006 -0.0385 -0.6806  0.2365
18892TIP3   OH278166   3.483   1.459   1.377 -0.3109 -0.1662  0.1764
18892TIP3    H178167   3.509   1.488   1.465  0.1729 -0.3860  0.1045
18892TIP3    H278168   3.459   1.540   1.332 -1.2151 -0.1116  0.7203
18893TIP3   OH278169   6.327   0.546   5.210 -0.0773  0.1815  0.2634
18893TIP3    H178170   6.397   0.564   5.147 -0.2000 -1.6467 -0.4446
18893TIP3    H278171   6.357   0.468   5.257 -1.2366 -0.1064  0.5469
18894TIP3   OH278172   5.097   5.637  13.981 -0.4249 -0.2337  0.4728
18894TIP3    H178173   5.135   5.561  14.025 -0.9388  0.0207  1.3579
18894TIP3    H278174   5.036   5.674  14.044  0.8783  1.7902  0.6436
18895TIP3   OH278175   2.822   3.094  12.548 -0.1095  0.3005  0.7187
18895TIP3    H178176   2.907   3.103  12.505  0.9279 -0.8994  2.3787
18895TIP3    H278177   2.758   3.119  12.481  1.5580  1.9327 -0.3513
18896TIP3   OH278178   0.926   5.214  15.426 -0.5683  0.1071 -0.0153
18896TIP3    H178179   0.878   5.132  15.427 -1.2984  0.4859 -1.4466
18896TIP3    H278180   0.944   5.230  15.334  2.0135  0.1741  0.4296
18897TIP3   OH278181   1.944   0.955   4.026 -0.5033 -0.4308  0.1891
18897TIP3    H178182   1.848   0.957   4.028 -0.5325 -1.4839  0.3394
18897TIP3    H278183   1.968   0.887   4.088  0.4550  1.2510  1.7889
18898TIP3   OH278184   5.482   2.170  16.092 -0.1524  0.2076 -0.2779
18898TIP3    H178185   5.557   2.126  16.052  0.2363 -0.5907  1.2498
18898TIP3    H278186   5.406   2.123  16.059  0.2016 -0.9118  0.4847
18899TIP3   OH278187   1.596   0.852   4.686 -0.3125 -0.0614  0.2547
18899TIP3    H178188   1.552   0.838   4.771 -0.5575 -1.3785 -0.0725
18899TIP3    H278189   1.578   0.943   4.665 -0.9461  0.0565  1.2415
18900TIP3   OH278190   2.594   4.741  14.320 -0.0562  0.7572 -0.0898
18900TIP3    H178191   2.583   4.786  14.404  0.8330  1.5751 -0.3865
18900TIP3    H278192   2.667   4.787  14.278 -0.2862  0.1604 -1.1776
18901TIP3   OH278193   1.541   4.125  10.823  0.2879  0.1003  0.5399
18901TIP3    H178194   1.561   4.077  10.743 -0.1571  1.4448 -0.4095
18901TIP3    H278195   1.621   4.175  10.841  0.8363 -1.1003  1.6558
18902TIP3   OH278196   5.188   0.469   5.346  0.5887  0.5124  0.4974
18902TIP3    H178197   5.253   0.537   5.365  0.6260  0.0888  1.9918
18902TIP3    H278198   5.133   0.466   5.424 -1.6802  1.3238 -0.9727
18903TIP3   OH278199   0.505   0.891   0.864  0.9516  0.1535  0.2488
18903TIP3    H178200   0.585   0.860   0.907  0.7012 -0.1951  0.4735
18903TIP3    H278201   0.447   0.814   0.863  0.1246  0.7386  1.2511
18904TIP3   OH278202   6.392   2.600  13.273 -0.1030  0.2467 -0.5254
18904TIP3    H178203   6.370   2.673  13.330 -0.2786 -1.0246  1.0856
18904TIP3    H278204   6.472   2.628  13.228  0.3045  1.1127  0.6889
18905TIP3   OH278205   6.295   3.092   2.514  0.2208  0.1373 -0.0319
18905TIP3    H178206   6.298   3.000   2.541  1.0342  0.3800  0.7796
18905TIP3    H278207   6.321   3.140   2.593 -0.7859  1.1023 -0.2744
18906TIP3   OH278208   3.199   3.733  14.380  0.2807 -0.2725  0.3966
18906TIP3    H178209   3.267   3.768  14.437  0.9151 -0.5476 -0.1807
18906TIP3    H278210   3.118   3.770  14.414  0.7674  0.4468  0.7944
18907TIP3   OH278211   0.031   3.611   0.717  0.1390  0.3788 -0.3024
18907TIP3    H178212   0.035   3.618   0.621 -0.5739  0.7160 -0.3121
18907TIP3    H278213  -0.062   3.597   0.736  0.3418 -0.1565  0.3133
18908TIP3   OH278214   1.313   1.681   0.149  0.4126  0.3056 -0.4721
18908TIP3    H178215   1.242   1.681   0.214  0.9146 -0.8981  0.1103
18908TIP3    H278216   1.326   1.773   0.128 -0.8323  0.6040 -0.0488
18909TIP3   OH278217   2.311   5.736  11.419 -0.4990  0.2005  0.0457
18909TIP3    H178218   2.355   5.655  11.446 -1.7133 -0.2483  0.7709
18909TIP3    H278219   2.331   5.745  11.326  2.8893  1.1800  0.7017
18910TIP3   OH278220   3.922   1.510   2.619  0.4266 -0.1664 -0.0474
18910TIP3    H178221   3.847   1.566   2.639 -0.8023 -1.1627 -1.6141
18910TIP3    H278222   3.938   1.523   2.526  0.4363 -2.0235 -0.3357
18911TIP3   OH278223   1.479   2.871  13.006  0.2775  0.3804  0.3078
18911TIP3    H178224   1.483   2.965  13.023  0.0050  0.5252 -0.3966
18911TIP3    H278225   1.550   2.854  12.943 -1.6519  0.7051 -2.1025
18912TIP3   OH278226   6.587   3.426  15.551  0.3818  0.2873  0.8294
18912TIP3    H178227   6.560   3.409  15.461  0.7531 -3.0475  1.2263
18912TIP3    H278228   6.680   3.406  15.552  0.5573  1.0767  1.8180
18913TIP3   OH278229   3.073   3.876  12.062  0.0265  0.4207  0.8383
18913TIP3    H178230   3.066   3.923  12.145 -3.0570 -0.1308  1.0179
18913TIP3    H278231   3.038   3.936  11.997  0.1599 -0.0296  0.3432
18914TIP3   OH278232   4.987   4.353   0.827 -0.1957 -0.1096 -0.2080
18914TIP3    H178233   4.970   4.270   0.872  1.2942  0.0760  0.7866
18914TIP3    H278234   4.909   4.369   0.775 -1.1925 -1.3193  0.8514
18915TIP3   OH278235   2.965   4.711  14.281  0.3768  0.3564  0.7575
18915TIP3    H178236   3.047   4.759  14.276  0.9901 -0.6743  0.7893
18915TIP3    H278237   2.906   4.757  14.221  1.3884  0.2886 -0.3068
18916TIP3   OH278238   1.202   4.065  17.052  0.7218  0.0394  0.3402
18916TIP3    H178239   1.255   4.107  17.119  0.8577  1.4841 -0.6295
18916TIP3    H278240   1.265   4.038  16.985  0.4077  0.2276 -0.0314
18917TIP3   OH278241   3.199   0.518   2.961 -0.0356  0.0596 -0.1980
18917TIP3    H178242   3.153   0.601   2.973  0.8325  0.4919  0.2681
18917TIP3    H278243   3.290   0.543   2.946  0.0737 -0.7825 -1.0036
18918TIP3   OH278244   3.428   4.403   6.468  0.0804 -0.2025  0.0724
18918TIP3    H178245   3.513   4.447   6.471 -0.4241  1.5154 -4.2446
18918TIP3    H278246   3.366   4.471   6.494 -0.2322 -0.4025 -0.1529
18919TIP3   OH278247   2.798   0.031  16.047 -0.1041  0.2114  0.2829
18919TIP3    H178248   2.727   0.003  16.105  0.0735 -0.5083  0.1618
18919TIP3    H278249   2.878   0.004  16.092  0.1099  1.0862  0.4571
18920TIP3   OH278250   5.354   3.789   1.545  0.2075  0.2591  0.3075
18920TIP3    H178251   5.447   3.798   1.568 -0.0600  1.1923  1.0791
18920TIP3    H278252   5.307   3.819   1.622 -0.7457  0.5161 -0.3519
18921TIP3   OH278253   4.025   5.462   6.300 -0.5698 -0.3596  0.5885
18921TIP3    H178254   4.094   5.498   6.356 -0.2436 -0.8447  0.5031
18921TIP3    H278255   3.943   5.488   6.343 -0.3821  1.4217 -0.0515
18922TIP3   OH278256   1.619   1.567   5.679 -0.2048  0.0057  0.5530
18922TIP3    H178257   1.577   1.572   5.593  1.1060 -1.6221 -0.2398
18922TIP3    H278258   1.654   1.655   5.694 -0.3049  0.2686 -0.6802
18923TIP3   OH278259   6.202   5.333  11.518  0.0886  0.2247  0.6077
18923TIP3    H178260   6.179   5.284  11.439  0.9949  0.6269  0.0799
18923TIP3    H278261   6.118   5.365  11.551 -0.1600  1.9374 -1.4410
18924TIP3   OH278262   4.869   6.094  14.929  0.2803  0.5638 -0.1653
18924TIP3    H178263   4.893   6.002  14.917 -0.3952  0.6388 -2.4512
18924TIP3    H278264   4.779   6.091  14.960  0.4001  0.4563  0.1791
18925TIP3   OH278265   0.984   0.484  11.993  0.5563 -0.4427  0.1376
18925TIP3    H178266   0.899   0.501  11.952  0.8189  1.5087  0.3323
18925TIP3    H278267   1.041   0.461  11.920  0.0587 -1.0203 -0.0805
18926TIP3   OH278268   0.948   0.106  14.095  0.0893  0.0186  0.1480
18926TIP3    H178269   0.964   0.011  14.095 -2.2244 -0.4732  1.9187
18926TIP3    H278270   0.944   0.129  14.188  0.5639  1.8854 -0.2553
18927TIP3   OH278271   5.461   4.934   4.769 -0.0299  0.5113 -0.6744
18927TIP3    H178272   5.456   4.840   4.750 -0.1877  0.0329  1.4535
18927TIP3    H278273   5.370   4.959   4.786 -0.0180  1.1374 -1.4525
18928TIP3   OH278274   5.674   1.809  14.791  0.2115 -0.1315 -0.5185
18928TIP3    H178275   5.666   1.748  14.865 -0.6176 -0.2755 -0.7164
18928TIP3    H278276   5.765   1.837  14.793  0.5774 -1.2626 -0.3194
18929TIP3   OH278277   2.354   4.436  15.662 -0.4232 -0.0391 -0.0899
18929TIP3    H178278   2.377   4.357  15.711 -0.2426  0.0748  0.0077
18929TIP3    H278279   2.271   4.464  15.700 -0.1911  0.1543  0.2781
18930TIP3   OH278280   5.066   1.126  10.529  0.1365  0.2094 -0.0055
18930TIP3    H178281   5.127   1.063  10.490 -0.4470 -0.5695  0.3227
18930TIP3    H278282   5.123   1.194  10.566  0.7292  0.4035 -1.2377
18931TIP3   OH278283   6.087   0.408   5.100 -0.0630  0.1560  0.3514
18931TIP3    H178284   6.137   0.326   5.098 -1.1354 -0.5203  0.8512
18931TIP3    H278285   6.140   0.467   5.154  0.4435 -0.3818  0.4539
18932TIP3   OH278286   1.637   1.319   3.931  0.2339  0.2515  0.6144
18932TIP3    H178287   1.696   1.321   4.006 -1.1101  0.6470  1.6944
18932TIP3    H278288   1.676   1.380   3.868  1.5242 -0.2913  0.8520
18933TIP3   OH278289   1.325   3.871   3.862 -0.7945  0.3338 -0.4238
18933TIP3    H178290   1.392   3.890   3.927 -2.7002  1.0879  1.4605
18933TIP3    H278291   1.323   3.948   3.806 -0.5836  0.6471 -0.0063
18934TIP3   OH278292   5.540   1.663   1.867  0.0744 -0.2475 -0.0054
18934TIP3    H178293   5.565   1.592   1.807 -1.1192 -1.6774  1.1384
18934TIP3    H278294   5.615   1.672   1.925  0.0495 -0.9048  0.1380
18935TIP3   OH278295   6.235   3.997  14.977 -0.2829  0.1053 -0.2844
18935TIP3    H178296   6.264   4.017  14.888 -2.0317  0.0199 -0.9116
18935TIP3    H278297   6.155   3.947  14.965 -0.1683 -0.5306  1.3515
18936TIP3   OH278298   6.100   5.437   3.443 -0.1930 -0.7279 -0.0049
18936TIP3    H178299   6.043   5.456   3.518 -1.4249  0.0117 -1.0861
18936TIP3    H278300   6.127   5.523   3.411  1.8426 -1.0528  0.6569
18937TIP3   OH278301   0.344   6.429   3.943  0.0422 -0.3287 -0.0530
18937TIP3    H178302   0.343   6.373   4.020 -1.8965 -1.2764 -0.7092
18937TIP3    H278303   0.358   6.517   3.978  0.5812 -0.9081  1.2402
18938TIP3   OH278304   3.875   4.254   1.330  0.0577 -0.0907 -0.2403
18938TIP3    H178305   3.792   4.297   1.350  0.4886 -0.1840  2.1019
18938TIP3    H278306   3.853   4.162   1.319 -0.2108 -0.0691  0.0908
18939TIP3   OH278307   0.323   5.447   1.801  0.2895  0.5260  0.0504
18939TIP3    H178308   0.352   5.365   1.843 -0.0022  0.9667  1.1550
18939TIP3    H278309   0.395   5.508   1.817  0.0947  0.7508  0.0578
18940TIP3   OH278310   0.943   5.740  11.716  0.3048  0.1337  0.1611
18940TIP3    H178311   0.879   5.674  11.743 -0.9258  2.3082  3.0083
18940TIP3    H278312   1.025   5.711  11.755  0.0878 -0.3856  0.2392
18941TIP3   OH278313   3.502   6.085  16.354 -0.0334 -0.8539  0.3935
18941TIP3    H178314   3.580   6.036  16.380 -1.0890 -1.7037  2.2701
18941TIP3    H278315   3.431   6.042  16.402 -1.3397  1.2018  0.4184
18942TIP3   OH278316   1.494   1.122   3.124 -0.3081  0.3068 -0.5670
18942TIP3    H178317   1.568   1.142   3.180  0.3096 -2.4400 -0.2470
18942TIP3    H278318   1.524   1.145   3.036  0.6381  0.0018 -0.3381
18943TIP3   OH278319   2.760   1.457  12.998 -0.1106  0.0928 -0.2842
18943TIP3    H178320   2.715   1.382  12.960 -0.9778 -0.0042  0.8758
18943TIP3    H278321   2.733   1.457  13.089  2.5190 -0.1459  0.5702
18944TIP3   OH278322   3.296   1.225   0.097  0.1359  0.0301  0.3622
18944TIP3    H178323   3.338   1.311   0.089  0.8868 -0.2995  0.5936
18944TIP3    H278324   3.273   1.218   0.189 -1.9254  0.8664 -0.0508
18945TIP3   OH278325   0.167   4.267  15.071 -0.0041  0.0870  0.8572
18945TIP3    H178326   0.090   4.231  15.114 -0.6348  1.4135  0.8743
18945TIP3    H278327   0.180   4.353  15.111  1.2972  0.0311  0.6279
18946TIP3   OH278328   6.706   2.510  16.053 -0.5219  0.0744 -0.3218
18946TIP3    H178329   6.768   2.437  16.057  0.2190  0.7388  1.7650
18946TIP3    H278330   6.694   2.526  15.960  1.1644 -1.1636 -0.8055
18947TIP3   OH278331   2.748   2.174  14.810  0.2622 -0.2081  0.1203
18947TIP3    H178332   2.757   2.230  14.888  1.2511 -0.3776  0.1420
18947TIP3    H278333   2.795   2.221  14.742 -0.6734 -0.0207 -0.4169
18948TIP3   OH278334   2.169   0.429  16.450 -0.3297 -0.0662  0.0109
18948TIP3    H178335   2.099   0.436  16.386 -1.4739  0.9900  1.3244
18948TIP3    H278336   2.135   0.369  16.516  0.7321 -0.9417 -0.2167
18949TIP3   OH278337   3.061   1.355  13.325 -0.2084 -0.4066  0.4920
18949TIP3    H178338   3.002   1.328  13.395 -2.4596  0.2377 -1.0636
18949TIP3    H278339   3.031   1.443  13.300  0.5599 -0.5866 -1.2237
18950TIP3   OH278340   3.826   1.024   4.173  0.1663  0.4050 -0.1894
18950TIP3    H178341   3.853   1.100   4.121  0.8739  0.2673 -0.0432
18950TIP3    H278342   3.836   0.949   4.114 -0.9295  0.4680 -0.4615
18951TIP3   OH278343   1.680   5.434   0.177  0.4306 -0.5287  0.1466
18951TIP3    H178344   1.612   5.500   0.191  1.1896  0.2278  0.4042
18951TIP3    H278345   1.636   5.362   0.133 -0.6740 -0.3199  0.8746
18952TIP3   OH278346   2.525   1.079   2.000 -0.3662  0.0044 -0.6324
18952TIP3    H178347   2.597   1.055   1.941  0.5241 -1.2230  0.8750
18952TIP3    H278348   2.536   1.022   2.076 -2.1544  0.7378  0.2366
18953TIP3   OH278349   5.167   2.363   3.894 -0.4079  0.2134  0.2678
18953TIP3    H178350   5.101   2.304   3.856 -2.2995  2.8132 -0.8240
18953TIP3    H278351   5.147   2.362   3.988  0.0580 -1.3542  0.3801
18954TIP3   OH278352   4.026   4.171  15.761  0.5068 -0.0842 -0.0907
18954TIP3    H178353   3.953   4.174  15.823  1.8737 -0.0739  1.6165
18954TIP3    H278354   4.050   4.078  15.756  0.4321 -0.0769 -0.5496
18955TIP3   OH278355   4.267   0.891  12.248  0.2651 -0.2662  0.0071
18955TIP3    H178356   4.320   0.869  12.171  1.8656  1.9003  0.4059
18955TIP3    H278357   4.178   0.895  12.214  0.9814  1.2119 -1.9569
18956TIP3   OH278358   2.051   3.086  15.971  0.5320 -0.2085 -0.2051
18956TIP3    H178359   2.057   3.179  15.949 -1.1533 -0.2157 -0.7863
18956TIP3    H278360   2.142   3.057  15.972  1.3936  2.0519  2.9013
18957TIP3   OH278361   0.814   5.054   6.002  0.1738  0.2734 -0.5208
18957TIP3    H178362   0.798   4.963   6.029 -1.9600  0.2347 -1.7160
18957TIP3    H278363   0.840   5.098   6.083 -1.6732 -0.7733  0.7111
18958TIP3   OH278364   4.627   0.922  12.615 -0.4735 -0.2323 -0.0185
18958TIP3    H178365   4.659   0.980  12.547 -0.7939 -0.2908 -0.2185
18958TIP3    H278366   4.706   0.896  12.663 -0.3103  0.2090 -0.0500
18959TIP3   OH278367   4.540   0.291  11.606 -0.0450 -0.4811 -0.1268
18959TIP3    H178368   4.452   0.262  11.632 -0.1054 -0.4562 -0.3026
18959TIP3    H278369   4.567   0.350  11.677 -0.0409 -0.7337  0.0829
18960TIP3   OH278370   0.950   5.136   4.810  0.1957  0.0275 -0.5931
18960TIP3    H178371   0.993   5.163   4.891 -0.4214 -0.1686 -0.1957
18960TIP3    H278372   0.948   5.041   4.815 -2.0534  0.0510  0.3582
18961TIP3   OH278373   6.191   3.912   0.995  0.6733  0.1047  0.5323
18961TIP3    H178374   6.157   4.001   0.985  0.3303 -0.1328 -0.5092
18961TIP3    H278375   6.113   3.857   1.002  0.7502 -0.4777 -2.1671
18962TIP3   OH278376   0.158   1.004  12.229 -0.0514 -0.0091  0.0763
18962TIP3    H178377   0.095   0.932  12.224  1.1398 -1.0695  0.1682
18962TIP3    H278378   0.187   1.004  12.321 -2.0144  2.3408  0.8261
18963TIP3   OH278379   5.469   6.104   0.557  0.1736 -0.0399  0.1984
18963TIP3    H178380   5.477   6.009   0.560  0.6564 -0.2343 -3.3362
18963TIP3    H278381   5.377   6.120   0.535  0.5870  0.1465 -1.5137
18964TIP3   OH278382   2.171   3.405  12.302 -0.8929 -0.9231  1.1514
18964TIP3    H178383   2.225   3.341  12.350  1.5508 -0.9282 -1.3367
18964TIP3    H278384   2.185   3.382  12.210 -0.5549  2.6643  0.1788
18965TIP3   OH278385   3.303   4.347  12.038 -0.3637 -0.4530  1.0712
18965TIP3    H178386   3.282   4.255  12.018 -0.1906 -0.8921  2.7895
18965TIP3    H278387   3.399   4.349  12.038 -0.3421  0.1897 -0.8325
18966TIP3   OH278388   6.737   1.434   4.241  0.4155 -0.0597 -0.2241
18966TIP3    H178389   6.708   1.440   4.332 -0.0108  1.0847 -0.4093
18966TIP3    H278390   6.708   1.348   4.212 -0.1963 -0.1013  0.4839
18967TIP3   OH278391   2.527   6.554  10.414 -0.2509  0.3005  0.7585
18967TIP3    H178392   2.612   6.523  10.445  0.4710  0.2423 -1.1831
18967TIP3    H278393   2.519   6.641  10.452  0.6845  0.3183  0.9487
18968TIP3   OH278394   6.439   3.510  16.765  0.2157 -0.1918 -0.5692
18968TIP3    H178395   6.512   3.536  16.709  0.5370  0.7050  0.2334
18968TIP3    H278396   6.457   3.553  16.849  0.2912 -2.3025  0.5570
18969TIP3   OH278397   3.213   3.702  16.333 -0.2433  0.4423  0.5700
18969TIP3    H178398   3.203   3.672  16.243 -1.5694 -0.7790  1.1022
18969TIP3    H278399   3.216   3.622  16.385  2.1576  1.0505  1.5039
18970TIP3   OH278400   3.655   4.361   5.145 -0.5365 -0.7663  0.2049
18970TIP3    H178401   3.618   4.398   5.065 -0.3533  2.3127  1.4088
18970TIP3    H278402   3.588   4.376   5.211  1.0826  1.0494  1.5387
18971TIP3   OH278403   2.758   4.074  11.261  0.4363  0.2929  0.3842
18971TIP3    H178404   2.812   4.057  11.184 -0.4150 -0.1332 -0.1274
18971TIP3    H278405   2.669   4.056  11.233  0.2353 -1.3775  1.8628
18972TIP3   OH278406   6.734   4.182   0.564  0.4744 -0.0194 -0.4327
18972TIP3    H178407   6.800   4.131   0.518  0.9601  1.0248 -0.9251
18972TIP3    H278408   6.763   4.273   0.555 -2.4111  0.8168 -3.0955
18973TIP3   OH278409   1.544   2.419  12.152 -0.5927  0.5942 -0.4936
18973TIP3    H178410   1.573   2.500  12.192  1.3136 -0.5674  0.5951
18973TIP3    H278411   1.553   2.434  12.058  1.3620  1.0894 -0.2592
18974TIP3   OH278412   3.335   3.408  12.457  0.1233 -0.4976 -0.2547
18974TIP3    H178413   3.414   3.377  12.413  1.4254  0.4359  1.2902
18974TIP3    H278414   3.330   3.501  12.436 -0.4435 -0.4947 -0.1431
18975TIP3   OH278415   3.703   5.634   3.120  0.1520 -0.2772  0.3621
18975TIP3    H178416   3.763   5.708   3.131 -0.9039  0.9503 -1.5477
18975TIP3    H278417   3.760   5.561   3.094  1.1069  0.1197  1.2751
18976TIP3   OH278418   4.655   3.602   6.029  0.1312 -0.1977 -0.3570
18976TIP3    H178419   4.669   3.556   6.111  0.2771  0.7459  0.1544
18976TIP3    H278420   4.666   3.695   6.050 -1.3180  0.1873 -1.1141
18977TIP3   OH278421   1.548   3.481  11.435 -0.3760  0.2985 -0.0092
18977TIP3    H178422   1.613   3.485  11.364 -0.0172 -0.1806  0.2794
18977TIP3    H278423   1.587   3.420  11.499 -0.6919  0.7233  0.5979
18978TIP3   OH278424   2.124   5.917   2.731  0.5540 -0.5068  0.1177
18978TIP3    H178425   2.035   5.930   2.699  0.3806 -2.6922 -0.4543
18978TIP3    H278426   2.143   5.995   2.782 -0.9404  0.9164 -1.3875
18979TIP3   OH278427   0.029   4.878   2.506 -0.5862  0.2174 -0.2702
18979TIP3    H178428   0.065   4.790   2.514 -0.8731  0.2030  0.9248
18979TIP3    H278429   0.047   4.903   2.415  0.8861 -0.4603 -0.1879
18980TIP3   OH278430   0.127   4.407  15.448  0.4211 -0.6873  0.5385
18980TIP3    H178431   0.170   4.357  15.517  0.1942  0.1098  1.2702
18980TIP3    H278432   0.061   4.346  15.413  0.6838 -1.1698  0.8704
18981TIP3   OH278433   0.534   5.043  13.107  0.1016 -0.0572 -0.6291
18981TIP3    H178434   0.476   5.116  13.129  0.0865  0.7513 -3.1296
18981TIP3    H278435   0.607   5.052  13.168 -0.9609  0.6589  0.6133
18982TIP3   OH278436   1.098   4.816   4.528  0.1102  0.8222 -0.6841
18982TIP3    H178437   1.122   4.784   4.441  0.5707  0.5754 -0.4699
18982TIP3    H278438   1.158   4.888   4.545  1.2060 -0.2365  0.1394
18983TIP3   OH278439   3.944   3.555  11.970 -0.0435  0.7537 -0.3695
18983TIP3    H178440   3.880   3.525  11.906  0.8881 -1.8095 -0.2147
18983TIP3    H278441   3.997   3.620  11.923  0.6467 -1.0832 -2.2730
18984TIP3   OH278442   0.918   4.509   0.794 -0.4160  0.1030  0.7489
18984TIP3    H178443   0.991   4.571   0.802  0.9396 -1.5751  2.5240
18984TIP3    H278444   0.841   4.564   0.782  0.7904  2.0950  1.5272
18985TIP3   OH278445   1.942   6.578   1.991  0.4293 -0.3037 -0.5820
18985TIP3    H178446   1.893   6.506   2.031 -1.6118  1.0441 -0.5193
18985TIP3    H278447   1.957   6.549   1.901 -1.9643 -0.1273 -1.0924
18986TIP3   OH278448   6.766   4.126   1.906 -0.8404 -0.2817 -0.5628
18986TIP3    H178449   6.801   4.215   1.914  0.0806 -0.7700  2.0420
18986TIP3    H278450   6.674   4.138   1.883 -0.8610  1.3973  0.2066
18987TIP3   OH278451   6.713   1.770  14.126 -0.1285 -0.6264 -0.2614
18987TIP3    H178452   6.645   1.810  14.073  0.5844  0.5547 -0.3135
18987TIP3    H278453   6.793   1.781  14.075  0.2703 -1.0892  0.2509
18988TIP3   OH278454   3.170   1.419   5.935  0.2463 -0.1435 -0.5467
18988TIP3    H178455   3.228   1.494   5.940  0.6226 -0.4765  0.4243
18988TIP3    H278456   3.117   1.424   6.015 -0.4249 -0.3577 -0.9649
18989TIP3   OH278457   5.704   4.488   1.523  0.2656  0.7955 -0.6424
18989TIP3    H178458   5.711   4.550   1.595  0.6488  1.0716 -0.9134
18989TIP3    H278459   5.795   4.462   1.506  0.0065 -1.2370  0.6719
18990TIP3   OH278460   5.028   6.698  12.343 -0.0352 -0.2776 -0.3558
18990TIP3    H178461   4.934   6.692  12.328 -0.0489  0.1313 -0.4255
18990TIP3    H278462   5.046   6.631  12.409 -0.4718  0.0690  0.1242
18991TIP3   OH278463   4.853   5.002   2.038 -0.2397  0.2541  0.1811
18991TIP3    H178464   4.778   4.942   2.039 -0.7196  0.8220 -0.7592
18991TIP3    H278465   4.823   5.077   1.987  0.9646  0.4969 -0.1963
18992TIP3   OH278466   3.514   1.701   3.365  0.6375  0.7498  0.8674
18992TIP3    H178467   3.583   1.656   3.414  0.9698  0.3961  0.0883
18992TIP3    H278468   3.490   1.640   3.295  0.6619  1.5145  0.1664
18993TIP3   OH278469   1.717   5.698  13.096  0.6743 -0.0816  0.5812
18993TIP3    H178470   1.721   5.602  13.090 -0.6381 -0.3589  2.9814
18993TIP3    H278471   1.627   5.717  13.121  1.2376  1.6681  1.4620
18994TIP3   OH278472   5.318   4.448   2.653 -0.4448 -0.1361  0.1008
18994TIP3    H178473   5.259   4.480   2.721  0.3019 -0.5824  0.9811
18994TIP3    H278474   5.375   4.522   2.633 -1.0497  0.1817 -0.4869
18995TIP3   OH278475   5.221   5.650   0.167 -0.5300  0.3308 -0.0534
18995TIP3    H178476   5.265   5.733   0.184  0.7356 -0.5363  1.0086
18995TIP3    H278477   5.238   5.633   0.074  1.4948 -0.0367  0.3546
18996TIP3   OH278478   5.484   4.415   2.934  0.5290  0.0024 -0.4526
18996TIP3    H178479   5.510   4.505   2.914  3.3315  0.0982  2.8033
18996TIP3    H278480   5.396   4.423   2.972  0.5394  1.2531 -0.6514
18997TIP3   OH278481   4.341   1.014  10.671 -0.0709 -0.1063 -0.0345
18997TIP3    H178482   4.344   0.991  10.764 -1.2887 -0.1406  0.0119
18997TIP3    H278483   4.316   0.933  10.627 -0.8896  0.2474 -0.2373
18998TIP3   OH278484   2.999   0.695  15.130  0.2236 -0.2521 -0.2800
18998TIP3    H178485   2.952   0.758  15.076  0.5643  0.0094 -0.2698
18998TIP3    H278486   2.930   0.651  15.180  0.0270  0.4620  0.0914
18999TIP3   OH278487   3.246   1.292  12.392 -0.8590  0.2286  0.1805
18999TIP3    H178488   3.153   1.302  12.370 -0.2217 -0.4166 -3.2970
18999TIP3    H278489   3.278   1.382  12.401 -1.1987  0.6251 -1.9800
19000TIP3   OH278490   4.678   0.834   6.341 -0.2836  0.5920  0.2237
19000TIP3    H178491   4.774   0.834   6.339 -0.2731 -0.8323 -0.1810
19000TIP3    H278492   4.656   0.915   6.388  1.1407 -0.1004  2.2450
19001TIP3   OH278493   0.797   2.236   0.877 -0.0147  0.1108  0.1033
19001TIP3    H178494   0.831   2.324   0.860 -2.1642  1.1229  0.7461
19001TIP3    H278495   0.721   2.249   0.933 -0.6384 -2.1380 -0.0994
19002TIP3   OH278496   1.633   3.798   3.142 -0.2679 -0.4294  0.3257
19002TIP3    H178497   1.640   3.838   3.056  0.9829 -2.8806 -0.8349
19002TIP3    H278498   1.701   3.840   3.194 -0.0683  0.0811 -0.3389
19003TIP3   OH278499   1.497   6.534  14.263  0.1184 -0.5293 -0.0248
19003TIP3    H178500   1.519   6.507  14.353 -0.7325 -1.3903 -0.0544
19003TIP3    H278501   1.526   6.460  14.209 -0.0803 -0.3514 -0.3772
19004TIP3   OH278502   4.362   6.848  11.845  0.2086 -0.0596 -0.2491
19004TIP3    H178503   4.336   6.904  11.772  0.8523  1.4657  0.6257
19004TIP3    H278504   4.411   6.907  11.903 -0.3452 -1.1890  1.4425
19005TIP3   OH278505   5.501   3.276   4.543  0.1270 -0.5829 -0.0675
19005TIP3    H178506   5.433   3.316   4.597  0.0453 -0.3073 -0.3733
19005TIP3    H278507   5.455   3.249   4.463  0.3982 -0.2860 -0.3286
19006TIP3   OH278508   5.114   5.327  11.378  0.0396  0.2588  0.1770
19006TIP3    H178509   5.046   5.260  11.382  0.5440 -0.3380 -0.8180
19006TIP3    H278510   5.069   5.409  11.400 -0.9474 -0.1600 -0.2559
19007TIP3   OH278511   3.631   2.950   4.962 -0.8071  0.2227  0.1689
19007TIP3    H178512   3.705   2.996   5.001 -0.4719 -1.8868  2.2283
19007TIP3    H278513   3.561   2.959   5.026 -1.5681  0.1174 -0.6328
19008TIP3   OH278514   5.516   0.162  14.658  0.2234  0.4765 -0.7234
19008TIP3    H178515   5.504   0.148  14.752  0.6215  2.0541 -0.4141
19008TIP3    H278516   5.525   0.073  14.621 -0.4559 -0.1852  0.6347
19009TIP3   OH278517   2.024   5.844  11.950  0.1011 -0.0123  0.1022
19009TIP3    H178518   2.067   5.916  11.995 -1.3161 -0.4055  2.2597
19009TIP3    H278519   2.075   5.766  11.972  0.0002 -0.0602  0.1697
19010TIP3   OH278520   3.148   3.760   5.855 -0.1394  0.0151  0.0354
19010TIP3    H178521   3.078   3.809   5.811  0.1038  0.1297 -0.2234
19010TIP3    H278522   3.151   3.798   5.943 -0.0774  0.3438 -0.1067
19011TIP3   OH278523   4.022   1.562  11.816 -0.5217  0.2869  0.5032
19011TIP3    H178524   4.029   1.467  11.809 -0.5347  0.2682  0.7176
19011TIP3    H278525   4.106   1.595  11.787 -0.3112  0.1783  0.9703
19012TIP3   OH278526   4.350   5.478  16.095 -0.2079 -0.7520  0.4203
19012TIP3    H178527   4.404   5.407  16.130  0.2728 -0.6150 -0.0420
19012TIP3    H278528   4.412   5.540  16.058 -0.7268 -1.7172 -2.2714
19013TIP3   OH278529   5.662   6.116   1.063 -0.2258  0.2509  0.1131
19013TIP3    H178530   5.596   6.056   1.030  0.8361 -0.0803 -1.5350
19013TIP3    H278531   5.640   6.201   1.025 -0.4851  0.4547  0.6981
19014TIP3   OH278532   3.740   5.284  14.374 -0.1900 -0.3336  0.3358
19014TIP3    H178533   3.665   5.325  14.418  0.1426  1.1280 -0.3796
19014TIP3    H278534   3.742   5.325  14.287  0.3222 -1.7351 -0.3434
19015TIP3   OH278535   5.163   3.894   0.027 -0.2559  0.2018  0.3425
19015TIP3    H178536   5.213   3.932  -0.045 -0.4813 -1.8403 -0.9379
19015TIP3    H278537   5.074   3.888  -0.006  0.1324 -3.4538 -0.4666
19016TIP3   OH278538   5.892   4.811  16.595 -0.2775  0.2481  0.3499
19016TIP3    H178539   5.816   4.762  16.626 -1.6771  1.7303 -0.6118
19016TIP3    H278540   5.869   4.903  16.610  0.7509  0.7894 -1.2163
19017TIP3   OH278541   3.420   1.122  14.595 -0.4867  0.1623  0.4587
19017TIP3    H178542   3.456   1.123  14.507 -0.5269 -0.0378  0.4390
19017TIP3    H278543   3.463   1.195  14.640  0.0258 -0.1424  0.4692
19018TIP3   OH278544   6.384   5.076  11.318 -0.3044  0.5699  0.4103
19018TIP3    H178545   6.434   5.069  11.400  1.5203  3.3339 -0.3063
19018TIP3    H278546   6.397   5.167  11.291 -2.6632  0.3158 -1.8589
19019TIP3   OH278547   6.374   4.994   4.818  0.3176 -0.7539  0.1788
19019TIP3    H178548   6.440   5.030   4.878  1.2444  1.7068 -2.1061
19019TIP3    H278549   6.422   4.976   4.737 -1.5046 -0.3041 -1.0781
19020TIP3   OH278550   3.517   2.944  14.926  0.3514  0.1923  0.4015
19020TIP3    H178551   3.441   2.946  14.868  0.2777  0.9543  0.5143
19020TIP3    H278552   3.557   3.030  14.917 -0.2623  0.7335  2.2364
19021TIP3   OH278553   1.982   4.478   6.295  0.4912  0.1659 -0.2756
19021TIP3    H178554   2.045   4.465   6.366 -0.0424 -1.2371 -0.0376
19021TIP3    H278555   1.922   4.545   6.328 -0.2379 -1.0429  0.9700
19022TIP3   OH278556   5.227   4.231   3.126  0.0104 -0.1111 -0.4764
19022TIP3    H178557   5.208   4.151   3.077 -1.4588  0.0037 -0.1522
19022TIP3    H278558   5.192   4.301   3.071  0.7167  0.2489 -0.4651
19023TIP3   OH278559   5.307   2.228  13.960  0.4301 -0.2578  0.0035
19023TIP3    H178560   5.345   2.142  13.977  0.2714 -0.1403  0.9751
19023TIP3    H278561   5.379   2.279  13.924  0.1961 -1.1774 -1.9550
19024TIP3   OH278562   0.775   0.683  16.441  0.4071 -0.2321  0.2544
19024TIP3    H178563   0.685   0.714  16.449  0.6953  0.4830  0.8830
19024TIP3    H278564   0.774   0.625  16.365 -1.0546 -2.0154  1.5373
19025TIP3   OH278565   6.161   2.472  11.375 -0.7679 -0.1410  0.1421
19025TIP3    H178566   6.141   2.553  11.421  0.3285  0.6862 -0.7980
19025TIP3    H278567   6.242   2.441  11.416 -0.4577 -0.0452 -0.3899
19026TIP3   OH278568   2.064   5.487  16.242 -0.2321  0.2432  0.2831
19026TIP3    H178569   2.040   5.441  16.161  0.3400 -0.2863  0.4024
19026TIP3    H278570   1.981   5.500  16.288 -0.3347 -1.4885  0.6629
19027TIP3   OH278571   6.349   2.436   0.882  0.1529  0.0876  0.5494
19027TIP3    H178572   6.417   2.409   0.943 -0.8106  2.2658  2.7717
19027TIP3    H278573   6.392   2.436   0.796  1.6929 -2.5973  1.2070
19028TIP3   OH278574   0.705   5.076  16.183 -0.2204  0.5021 -0.4338
19028TIP3    H178575   0.790   5.088  16.224 -0.9433  0.9731  0.9935
19028TIP3    H278576   0.663   5.162  16.190 -1.8318 -0.3494  1.3568
19029TIP3   OH278577   3.308   5.545  15.691 -0.6644  0.6626  0.3436
19029TIP3    H178578   3.233   5.509  15.643 -0.6458  1.4883 -0.3321
19029TIP3    H278579   3.270   5.582  15.771 -0.9328  0.7132  0.1954
19030TIP3   OH278580   3.626   2.405   0.825 -0.5135 -0.3653 -0.1446
19030TIP3    H178581   3.573   2.343   0.775  0.4845 -0.6605 -0.8657
19030TIP3    H278582   3.612   2.490   0.783 -1.7114 -0.1109  0.7108
19031TIP3   OH278583   4.153   1.635   1.469  0.2122 -0.8351 -0.0710
19031TIP3    H178584   4.215   1.706   1.450 -0.1286 -0.6220 -0.4070
19031TIP3    H278585   4.068   1.670   1.441 -0.2261 -0.7353  1.3264
19032TIP3   OH278586   2.157   3.357   2.140  0.1022  0.3392 -0.1088
19032TIP3    H178587   2.099   3.387   2.070 -0.6914  1.4123  0.9641
19032TIP3    H278588   2.229   3.313   2.094 -0.5185  0.7852 -1.5792
19033TIP3   OH278589   5.251   6.395   0.649  0.2563  0.0373 -0.6528
19033TIP3    H178590   5.214   6.346   0.722  1.3554  1.1404  0.7068
19033TIP3    H278591   5.288   6.474   0.690  2.2399 -0.0313 -2.1780
19034TIP3   OH278592   1.086   0.722  11.306 -0.0343  0.5120  0.2948
19034TIP3    H178593   1.087   0.728  11.402  1.4641  0.9146  0.2836
19034TIP3    H278594   1.115   0.633  11.287 -1.0528  0.1835  0.2007
19035TIP3   OH278595   0.881   0.775   3.864  0.6538 -0.0601 -0.3657
19035TIP3    H178596   0.972   0.804   3.872  0.7450  0.2609 -2.1592
19035TIP3    H278597   0.830   0.852   3.889  0.8180 -0.4751  1.4261
19036TIP3   OH278598   6.785   4.038  14.397 -0.6685 -0.2981  0.0960
19036TIP3    H178599   6.767   4.125  14.432  1.5894  0.2937 -0.0239
19036TIP3    H278600   6.814   3.987  14.473  0.2301 -0.2280 -0.1784
19037TIP3   OH278601   0.643   0.282   6.145  0.1772 -0.0313  0.7098
19037TIP3    H178602   0.561   0.232   6.140 -0.1625  0.5519  0.2685
19037TIP3    H278603   0.704   0.224   6.190  0.1493 -1.2954 -0.7924
19038TIP3   OH278604   4.565   6.284   4.075 -0.1742  0.8784 -0.0962
19038TIP3    H178605   4.562   6.348   4.146  1.0625 -0.7258  1.4924
19038TIP3    H278606   4.505   6.319   4.008 -0.5576  2.9761  1.2581
19039TIP3   OH278607   4.353   2.717  15.587 -0.2911  0.0766  0.2609
19039TIP3    H178608   4.334   2.625  15.573 -0.7681  0.4340 -1.8187
19039TIP3    H278609   4.374   2.724  15.680  0.9885 -2.3158  0.2150
19040TIP3   OH278610   6.633   6.489  11.743 -0.6061  0.0102 -0.2800
19040TIP3    H178611   6.695   6.490  11.670 -1.2640  1.6503 -0.8604
19040TIP3    H278612   6.643   6.575  11.784 -1.1624 -0.4083  0.7774
19041TIP3   OH278613   4.596   1.903  16.383  0.2872  0.3270  0.1674
19041TIP3    H178614   4.641   1.981  16.414  0.3340 -0.6167  2.6765
19041TIP3    H278615   4.665   1.838  16.372  0.2178  0.5102 -1.6924
19042TIP3   OH278616   2.938   4.983   5.558 -0.0949 -0.4325 -0.1831
19042TIP3    H178617   2.984   4.912   5.603 -0.1509  0.8452  2.0046
19042TIP3    H278618   2.845   4.964   5.571 -0.1548 -0.8134 -1.0584
19043TIP3   OH278619   2.498   3.409   2.702 -0.6916 -0.1720 -0.5708
19043TIP3    H178620   2.590   3.433   2.692 -0.8758  0.2535 -1.3019
19043TIP3    H278621   2.478   3.432   2.793  0.1518 -1.0939 -0.1295
19044TIP3   OH278622   5.612   5.355   3.583 -0.6030  0.5479  0.1739
19044TIP3    H178623   5.634   5.383   3.494 -1.3492  2.4832  0.5618
19044TIP3    H278624   5.616   5.259   3.579  1.0577  0.6277 -1.4899
19045TIP3   OH278625   1.070   5.349   3.500 -0.8130 -0.2742  0.2591
19045TIP3    H178626   1.087   5.381   3.411 -2.0242  0.1775  0.1713
19045TIP3    H278627   1.111   5.263   3.502 -0.0446  0.0609 -0.4660
19046TIP3   OH278628   0.648   0.340   1.361  0.3035  0.8543  0.6762
19046TIP3    H178629   0.702   0.263   1.344 -0.8136  0.1393  0.2424
19046TIP3    H278630   0.561   0.305   1.380 -0.7776  2.0738 -1.6327
19047TIP3   OH278631   3.807   4.674  15.651 -0.5514  0.4928  0.0339
19047TIP3    H178632   3.727   4.725  15.633 -0.3433  0.7580 -0.1419
19047TIP3    H278633   3.779   4.583  15.644 -0.5200  0.5805 -1.4835
19048TIP3   OH278634   3.354   1.071   6.681  0.1044  0.5594 -0.0759
19048TIP3    H178635   3.379   1.156   6.645  0.0201  1.6852  2.3257
19048TIP3    H278636   3.258   1.070   6.675  0.2096 -0.6338 -2.6458
19049TIP3   OH278637   4.047   0.793   3.053 -0.2353  0.1100 -0.3446
19049TIP3    H178638   4.095   0.871   3.024 -0.9195  2.0976  3.1975
19049TIP3    H278639   3.955   0.816   3.041 -0.4389 -0.3931  0.2178
19050TIP3   OH278640   5.379   3.744  14.813 -0.1761  0.0121 -0.0372
19050TIP3    H178641   5.368   3.655  14.781 -1.9337  0.2769 -0.2423
19050TIP3    H278642   5.352   3.741  14.905  1.1456  0.0513  0.3695
19051TIP3   OH278643   0.505   1.893   3.629 -0.0388 -0.1630  0.1821
19051TIP3    H178644   0.527   1.956   3.698 -0.8602 -0.5933  0.8467
19051TIP3    H278645   0.550   1.927   3.551 -1.3714  1.8996  0.2331
19052TIP3   OH278646   0.691   2.987  13.843 -0.1728  0.1243  0.1000
19052TIP3    H178647   0.678   3.081  13.830 -0.4623  0.1920  0.8429
19052TIP3    H278648   0.683   2.974  13.937  0.5008 -0.5524  0.0785
19053TIP3   OH278649   0.582   3.990   2.713  0.0571 -0.7128  0.1780
19053TIP3    H178650   0.665   3.943   2.704 -0.6268 -1.7654 -1.0408
19053TIP3    H278651   0.519   3.922   2.736 -0.0709  0.4506  3.8800
19054TIP3   OH278652   4.003   1.718  16.475  0.3869 -0.8377 -0.0187
19054TIP3    H178653   4.083   1.732  16.425  0.4575  0.5631  0.4219
19054TIP3    H278654   3.960   1.644  16.433  1.1624 -0.6355 -1.2052
19055TIP3   OH278655   5.276   0.286   0.278  0.3896 -0.2988 -0.3760
19055TIP3    H178656   5.222   0.208   0.269 -1.0609  0.5329  0.7208
19055TIP3    H278657   5.339   0.264   0.347 -1.0184 -0.0106  1.0580
19056TIP3   OH278658   4.537   6.412  13.419  0.2635 -0.3659 -0.1894
19056TIP3    H178659   4.487   6.450  13.347 -1.4302 -2.1579 -0.0310
19056TIP3    H278660   4.526   6.318  13.410  2.1290 -0.7642  0.9628
19057TIP3   OH278661   2.992   1.992  11.758 -0.6038  0.3793 -0.1165
19057TIP3    H178662   3.068   1.983  11.701 -0.3998  0.4652  0.1407
19057TIP3    H278663   2.977   2.086  11.764  0.4805  0.4971  1.4032
19058TIP3   OH278664   2.421   1.875  14.802  0.1450 -0.4807 -0.0994
19058TIP3    H178665   2.447   1.920  14.723  2.1810 -1.7442 -0.2280
19058TIP3    H278666   2.435   1.938  14.872  0.7309 -0.1522 -0.5062
19059TIP3   OH278667   4.599   0.983  14.917 -0.3330  0.0403 -0.3898
19059TIP3    H178668   4.520   0.970  14.970  0.2444 -0.1727  0.4314
19059TIP3    H278669   4.570   0.964  14.828 -0.9107 -1.2915  0.0535
19060TIP3   OH278670   1.433   1.499  12.469  0.1328 -0.3563  0.4782
19060TIP3    H178671   1.459   1.407  12.468 -0.5777 -0.5638  0.4572
19060TIP3    H278672   1.348   1.499  12.514  0.7313  0.4542  1.6803
19061TIP3   OH278673   0.536   5.472  16.613  0.3268  0.1312  0.4330
19061TIP3    H178674   0.472   5.463  16.684 -1.1559  0.0563 -0.8644
19061TIP3    H278675   0.609   5.416  16.640 -1.0662 -1.5024  0.9771
19062TIP3   OH278676   3.588   0.133   0.650  0.2166  0.2610 -0.2370
19062TIP3    H178677   3.654   0.161   0.586  0.6028 -0.7242 -0.2868
19062TIP3    H278678   3.577   0.209   0.707  0.4375  0.8867 -1.0028
19063TIP3   OH278679   1.320   3.036   6.313 -0.3614  1.2429  0.1389
19063TIP3    H178680   1.413   3.022   6.332 -0.7010  1.3706  2.1149
19063TIP3    H278681   1.297   3.113   6.364 -1.5106  1.3474 -0.5134
19064TIP3   OH278682   6.435   6.835  14.068  0.3831 -0.5881  0.3802
19064TIP3    H178683   6.514   6.822  14.016 -0.7118 -3.1291 -0.8528
19064TIP3    H278684   6.447   6.778  14.144  1.2212  1.8001  2.1646
19065TIP3   OH278685   1.781   6.066  17.100 -0.4694 -0.8839  0.8579
19065TIP3    H178686   1.740   6.013  17.031 -0.4244 -0.5024  0.5344
19065TIP3    H278687   1.768   6.157  17.072 -1.0652 -0.6944  1.6986
19066TIP3   OH278688   4.869   1.614  13.109  1.1598  0.2076 -0.5887
19066TIP3    H178689   4.957   1.634  13.140  0.7799 -1.0479  1.4891
19066TIP3    H278690   4.874   1.623  13.014  2.5227  3.8253 -0.3069
19067TIP3   OH278691   4.982   1.112  15.687  0.1885  0.1183  0.4722
19067TIP3    H178692   4.971   1.070  15.772 -0.0319  0.6620  0.7119
19067TIP3    H278693   4.894   1.136  15.660  0.0702 -1.4021 -0.6119
19068TIP3   OH278694   5.352   3.891   0.253 -0.3911 -0.3952 -0.0387
19068TIP3    H178695   5.292   3.895   0.178  0.2433  1.2833 -0.5063
19068TIP3    H278696   5.345   3.977   0.294  1.3588 -0.3001  0.1389
19069TIP3   OH278697   1.482   2.408   1.950  0.2570  0.0550 -0.6769
19069TIP3    H178698   1.575   2.419   1.933  0.2948  0.5046 -0.2053
19069TIP3    H278699   1.451   2.495   1.977  0.1714 -0.5202  1.2799
19070TIP3   OH278700   0.436   5.261   6.056 -0.5353 -0.9733 -0.1172
19070TIP3    H178701   0.411   5.171   6.078 -1.3450 -0.3132  1.8615
19070TIP3    H278702   0.365   5.315   6.091  0.4640  0.5280 -0.3191
19071TIP3   OH278703   1.684   4.400   0.202 -0.2600 -0.5676  0.0524
19071TIP3    H178704   1.678   4.311   0.235 -0.3087 -1.0603 -1.2124
19071TIP3    H278705   1.778   4.415   0.190  0.0024  0.5883  2.8466
19072TIP3   OH278706   4.981   5.790  17.101  0.1739  0.5527 -0.0995
19072TIP3    H178707   5.008   5.702  17.077  1.1883  1.2607 -1.7519
19072TIP3    H278708   4.904   5.807  17.047  1.1538  1.3534 -1.3120
19073TIP3   OH278709   5.392   0.451  12.489 -0.4690  0.3052 -0.0219
19073TIP3    H178710   5.323   0.467  12.553 -1.4209 -1.0094 -0.6620
19073TIP3    H278711   5.426   0.364  12.512  1.3102  1.1026  0.5489
19074TIP3   OH278712   5.810   1.050  17.139 -0.4011  0.2515 -0.7439
19074TIP3    H178713   5.892   1.098  17.151  0.5397 -1.5380  0.4968
19074TIP3    H278714   5.760   1.067  17.219 -0.1330 -0.6381 -0.3723
19075TIP3   OH278715   2.605   5.118  16.566  0.0206 -0.7809 -0.2975
19075TIP3    H178716   2.611   5.208  16.599  1.4997  0.1726 -2.9377
19075TIP3    H278717   2.512   5.108  16.544 -0.5071 -0.5765  1.5789
19076TIP3   OH278718   4.751   3.259  13.811  0.0537 -0.2626  0.2326
19076TIP3    H178719   4.772   3.352  13.814  2.2742 -0.6850 -0.3265
19076TIP3    H278720   4.662   3.253  13.846  0.6035  1.8356  2.2721
19077TIP3   OH278721   4.684   1.649   1.629 -0.2245  0.1044 -0.3983
19077TIP3    H178722   4.719   1.614   1.547  0.1968 -0.8695  0.1755
19077TIP3    H278723   4.673   1.572   1.685 -0.8342  0.7140  0.3389
19078TIP3   OH278724   0.574   6.272  16.501  0.5022 -1.3594  0.3330
19078TIP3    H178725   0.614   6.345  16.548 -0.3247 -0.7057  0.0486
19078TIP3    H278726   0.616   6.194  16.537  1.1557 -0.7662  0.8810
19079TIP3   OH278727   6.470   4.317   3.857  0.3872  0.0967  0.2287
19079TIP3    H178728   6.477   4.368   3.938  0.0598  1.3149 -0.4987
19079TIP3    H278729   6.537   4.249   3.866 -0.4920 -0.5909  2.0808
19080TIP3   OH278730   0.585   6.029  16.150  0.5318  0.3243  0.0425
19080TIP3    H178731   0.607   6.059  16.061 -0.4576  0.9072 -0.0147
19080TIP3    H278732   0.527   6.096  16.184 -0.4387 -0.7217  0.5222
19081TIP3   OH278733   5.197   0.110   3.112  0.1013  0.1394 -0.4167
19081TIP3    H178734   5.184   0.131   3.019 -3.9657 -2.7779 -0.8044
19081TIP3    H278735   5.242   0.025   3.110  2.7510  1.4357  0.5137
19082TIP3   OH278736   5.704   4.276  13.973 -0.2843  0.1650 -0.0208
19082TIP3    H178737   5.637   4.337  13.942 -1.1212  0.0699  1.4952
19082TIP3    H278738   5.691   4.197  13.921 -0.6433  0.5226 -0.4800
19083TIP3   OH278739   6.632   0.286   1.067 -0.0630 -0.3765 -0.2535
19083TIP3    H178740   6.651   0.196   1.043 -0.4191 -0.6950  0.6236
19083TIP3    H278741   6.603   0.327   0.986  1.3219 -0.7003 -0.9499
19084TIP3   OH278742   4.843   1.375  15.292  0.0178  0.3104  0.4132
19084TIP3    H178743   4.879   1.350  15.377 -0.3825 -0.1819  0.4401
19084TIP3    H278744   4.916   1.366  15.231  0.5264  1.4254  0.8248
19085TIP3   OH278745   5.417   4.202   0.988 -0.2238 -0.1703  0.2134
19085TIP3    H178746   5.450   4.151   0.915 -2.0122  0.2574 -0.9593
19085TIP3    H278747   5.377   4.138   1.046  1.3507 -0.5294  0.9472
19086TIP3   OH278748   3.597   5.118  13.117 -0.2328 -0.0140 -0.3793
19086TIP3    H178749   3.560   5.199  13.081  1.0990  1.0067  0.4332
19086TIP3    H278750   3.656   5.148  13.186 -1.2426 -1.7949  1.3559
19087TIP3   OH278751   4.929   2.773  14.932  0.4796  0.1814  0.0295
19087TIP3    H178752   4.898   2.841  14.993 -0.9562  1.7970 -2.3223
19087TIP3    H278753   4.888   2.796  14.849  1.7536 -2.3578 -1.4002
19088TIP3   OH278754   3.782   3.011  13.733  0.0281 -0.1347 -0.0283
19088TIP3    H178755   3.758   3.052  13.650 -2.1503 -1.0362  0.0991
19088TIP3    H278756   3.828   2.931  13.709 -0.1713 -0.1491 -0.3576
19089TIP3   OH278757   2.047   3.947   3.657 -0.0835  0.4610  0.2246
19089TIP3    H178758   2.017   3.956   3.566 -0.6125 -1.5395  0.1423
19089TIP3    H278759   2.018   4.027   3.700  0.2447  1.4947 -1.3740
19090TIP3   OH278760   6.592   2.904  13.648 -0.4118 -0.3638 -0.4499
19090TIP3    H178761   6.654   2.855  13.701 -0.0675 -0.5580 -1.0227
19090TIP3    H278762   6.630   2.905  13.560 -0.4271  0.8901 -0.4643
19091TIP3   OH278763   6.520   1.387   3.696 -0.0105  0.1776  0.5837
19091TIP3    H178764   6.473   1.331   3.635 -0.0220 -1.2034  1.7948
19091TIP3    H278765   6.536   1.468   3.648  1.5891 -1.4788 -1.8833
19092TIP3   OH278766   5.320   3.881  13.820 -0.5416 -0.2438 -0.2387
19092TIP3    H178767   5.252   3.815  13.836 -0.0224 -0.4762  1.1701
19092TIP3    H278768   5.281   3.941  13.756 -1.8471 -0.7005  0.0973
19093TIP3   OH278769   4.051   4.661  16.608  0.2518  0.1873 -0.4599
19093TIP3    H178770   3.997   4.667  16.530 -0.0019 -1.7472 -0.4688
19093TIP3    H278771   3.995   4.621  16.674  0.2872  2.2219  0.9326
19094TIP3   OH278772   1.910   1.159   2.507  0.2168 -0.9244  0.2333
19094TIP3    H178773   1.992   1.120   2.476  1.7574 -0.6904  3.6479
19094TIP3    H278774   1.929   1.252   2.514 -1.1607 -0.5017 -1.0760
19095TIP3   OH278775   3.646   6.416  12.017  0.1383 -0.1240  0.3745
19095TIP3    H178776   3.556   6.383  12.027  0.2867 -0.5677  0.2495
19095TIP3    H278777   3.675   6.382  11.933 -0.0509  1.1614 -0.2304
19096TIP3   OH278778   6.281   4.431   5.698 -0.1211 -0.2083  0.4409
19096TIP3    H178779   6.232   4.487   5.758 -0.1314 -0.6168  0.8180
19096TIP3    H278780   6.338   4.379   5.754 -0.1482 -0.6104  0.1048
19097TIP3   OH278781   2.821   4.671   0.002  0.4220  0.1710 -0.4839
19097TIP3    H178782   2.769   4.685   0.081 -0.6950 -0.7127 -1.0454
19097TIP3    H278783   2.757   4.666  -0.069  1.3446  0.0251 -1.3307
19098TIP3   OH278784   1.574   6.421   1.336  0.2300 -0.0333  0.6417
19098TIP3    H178785   1.516   6.358   1.379 -0.7935  2.1234  2.6916
19098TIP3    H278786   1.535   6.434   1.250  0.8813 -2.6382 -0.1342
19099TIP3   OH278787   4.783   3.841  12.947  0.0148 -0.1042 -0.0992
19099TIP3    H178788   4.740   3.900  13.010  1.2519  0.7284 -0.0119
19099TIP3    H278789   4.793   3.893  12.868  1.2303 -0.1425  0.0162
19100TIP3   OH278790   5.199   0.349   2.527 -0.2638 -0.1814 -0.2238
19100TIP3    H178791   5.174   0.373   2.616  1.5524  1.1378 -0.0107
19100TIP3    H278792   5.116   0.335   2.482 -1.3906  2.7053  0.7301
19101TIP3   OH278793   2.249   1.775  16.845  0.3547 -0.3140  0.0855
19101TIP3    H178794   2.215   1.708  16.904 -1.2039  0.3318 -0.0393
19101TIP3    H278795   2.327   1.735  16.806  0.1365 -1.5867  0.9015
19102TIP3   OH278796   0.145   5.227  15.333  0.1156 -0.2006  0.3421
19102TIP3    H178797   0.126   5.314  15.369  0.4642 -0.3540  0.9216
19102TIP3    H278798   0.059   5.188  15.320 -0.0341 -0.4917  1.9313
19103TIP3   OH278799   1.222   1.318  16.182 -0.1106  0.1939  0.0456
19103TIP3    H178800   1.199   1.318  16.089  2.1181  0.4193 -0.5676
19103TIP3    H278801   1.251   1.408  16.199  0.9156 -0.2144  0.5400
19104TIP3   OH278802   0.826   0.475  15.108 -0.1892 -0.4477 -0.4135
19104TIP3    H178803   0.738   0.514  15.114 -0.5245 -1.2588  0.2980
19104TIP3    H278804   0.884   0.549  15.088 -0.9210  0.2564 -0.0199
19105TIP3   OH278805   2.635   3.613   4.083  0.0759 -0.0317 -0.1081
19105TIP3    H178806   2.541   3.601   4.090  0.2772 -0.9438  1.6176
19105TIP3    H278807   2.646   3.701   4.048 -1.4052  0.5841  0.8957
19106TIP3   OH278808   2.512   3.994  12.844 -0.1080  0.0626  0.0984
19106TIP3    H178809   2.590   3.986  12.899  0.6634  1.2050 -0.7915
19106TIP3    H278810   2.546   3.998  12.755 -1.0852  1.7945 -0.2397
19107TIP3   OH278811   3.036   1.352   4.625 -0.0511 -0.3512 -0.0310
19107TIP3    H178812   3.047   1.410   4.550 -2.3211  0.0736 -0.1117
19107TIP3    H278813   3.116   1.300   4.627  0.8891  0.9333 -1.5766
19108TIP3   OH278814   2.862   0.891  11.590  0.3256  1.3745 -0.2378
19108TIP3    H178815   2.797   0.848  11.645 -0.4725  1.8873 -0.7547
19108TIP3    H278816   2.921   0.821  11.563  0.2674  0.9869  0.6238
19109TIP3   OH278817   4.948   2.388   1.235  0.2953 -0.2454  0.1824
19109TIP3    H178818   4.962   2.465   1.180 -1.1361  0.0419  0.1752
19109TIP3    H278819   4.862   2.402   1.274  0.1799 -1.6631  0.4888
19110TIP3   OH278820   4.918   0.652  10.844 -0.6351  0.4448 -0.8450
19110TIP3    H178821   4.834   0.641  10.888 -0.0612  0.3073  0.2763
19110TIP3    H278822   4.956   0.730  10.884  0.5300 -0.5026 -0.0062
19111TIP3   OH278823   0.013   6.743   6.198 -0.6550  0.0442  0.0893
19111TIP3    H178824  -0.062   6.691   6.168 -0.4858  0.0409 -0.3259
19111TIP3    H278825   0.087   6.683   6.194 -0.4993  0.2534 -0.1796
19112TIP3   OH278826   5.391   0.313   3.832  0.1854 -0.5930 -0.0999
19112TIP3    H178827   5.377   0.364   3.912  2.7710  1.0662 -0.5662
19112TIP3    H278828   5.398   0.379   3.763  0.7172 -1.7916 -1.2406
19113TIP3   OH278829   2.039   3.599  10.600 -0.1640 -0.0418 -0.1144
19113TIP3    H178830   1.978   3.527  10.585  0.2285 -0.3203 -0.4115
19113TIP3    H278831   2.125   3.557  10.610  0.2580  0.4422 -1.4668
19114TIP3   OH278832   0.693   1.365   6.077 -0.3298 -0.5921  0.7433
19114TIP3    H178833   0.654   1.278   6.067 -2.1198  0.2447 -0.1259
19114TIP3    H278834   0.620   1.421   6.104  0.2744  1.0272 -0.7549
19115TIP3   OH278835   5.203   5.634  12.799 -0.1309  0.5830 -0.1793
19115TIP3    H178836   5.233   5.543  12.806  2.0355  1.1092 -1.7172
19115TIP3    H278837   5.220   5.658  12.708 -0.3627  2.6278  0.2723
19116TIP3   OH278838   2.353   0.212  14.995 -0.2526  0.1103  0.2742
19116TIP3    H178839   2.436   0.172  15.022 -0.2622 -0.4809 -0.5482
19116TIP3    H278840   2.308   0.143  14.945 -2.0744 -0.2720  2.2432
19117TIP3   OH278841   1.455   5.522  11.580  0.0662  0.1015  0.3166
19117TIP3    H178842   1.549   5.532  11.592  0.4679  0.6316 -2.5456
19117TIP3    H278843   1.445   5.502  11.487 -2.6371 -0.4297  0.6395
19118TIP3   OH278844   0.630   5.383  17.187  0.4057 -0.0219  0.3534
19118TIP3    H178845   0.648   5.439  17.262  2.5276 -0.7973  0.4880
19118TIP3    H278846   0.621   5.444  17.113 -0.1156  0.6439  0.9552
19119TIP3   OH278847   5.153   2.046   5.149  0.0874 -0.2319  0.0469
19119TIP3    H178848   5.169   2.037   5.055 -0.5659 -1.3105  0.0143
19119TIP3    H278849   5.229   2.007   5.191  0.6765  0.8185 -0.0093
19120TIP3   OH278850   4.694   1.877   2.407 -0.3502 -0.0169 -0.6965
19120TIP3    H178851   4.673   1.823   2.484  0.8057 -0.3094 -0.5660
19120TIP3    H278852   4.770   1.929   2.435 -0.2755  0.2914 -1.4594
19121TIP3   OH278853   6.557   3.969   1.101  0.1895  0.1338  0.1671
19121TIP3    H178854   6.633   3.963   1.043 -0.9242 -1.6608 -1.2174
19121TIP3    H278855   6.488   4.005   1.046 -0.5056 -0.1971  0.8027
19122TIP3   OH278856   0.625   5.680   1.938  0.0352 -0.5912 -0.0458
19122TIP3    H178857   0.693   5.650   1.877 -0.8652  0.1675 -1.4761
19122TIP3    H278858   0.552   5.706   1.882  0.2234  2.9605  1.1591
19123TIP3   OH278859   5.487   2.828  16.751 -0.1710  0.1027  0.1903
19123TIP3    H178860   5.524   2.824  16.662 -0.5738  1.1010 -0.0331
19123TIP3    H278861   5.526   2.907  16.789 -0.6326  0.1236  0.6191
19124TIP3   OH278862   4.145   4.298   1.067 -0.3876  0.0427  0.2942
19124TIP3    H178863   4.063   4.271   1.108  0.9369 -1.4174  2.1390
19124TIP3    H278864   4.136   4.271   0.976 -0.9704 -2.5526  1.0545
19125TIP3   OH278865   0.349   5.725   3.712 -0.2655 -0.1588  0.2918
19125TIP3    H178866   0.265   5.770   3.703 -0.6701 -0.9695 -0.1587
19125TIP3    H278867   0.405   5.786   3.760 -0.2569  1.5360 -1.7521
19126TIP3   OH278868   5.741   3.018  12.898  0.2223 -0.2782  0.1898
19126TIP3    H178869   5.797   2.957  12.946  0.2384  0.1027  0.6648
19126TIP3    H278870   5.661   3.022  12.949  0.8210  1.3254  1.0683
19127TIP3   OH278871   1.645   4.778  16.817 -0.2834 -0.6537 -0.2847
19127TIP3    H178872   1.585   4.789  16.891 -0.2954  0.5752 -0.4589
19127TIP3    H278873   1.592   4.798  16.740  0.0485 -0.6982 -0.5237
19128TIP3   OH278874   1.917   2.650   0.163 -0.1616 -0.6670  0.5255
19128TIP3    H178875   2.001   2.688   0.189 -0.2348 -0.2454  0.1655
19128TIP3    H278876   1.872   2.721   0.116 -0.4412 -1.0983  0.1321
19129TIP3   OH278877   3.309   3.358  13.748 -0.1224  0.1172  0.0069
19129TIP3    H178878   3.345   3.347  13.836  0.8379  0.0459 -0.3935
19129TIP3    H278879   3.271   3.272  13.727  0.6314 -0.1985 -0.0851
19130TIP3   OH278880   1.276   6.045   0.175  0.2232 -0.0379 -0.5510
19130TIP3    H178881   1.352   5.996   0.143  0.3575 -2.0551  2.4160
19130TIP3    H278882   1.310   6.096   0.248 -1.0064  0.2190 -0.1447
19131TIP3   OH278883   2.283   5.947   2.529 -0.4070 -0.4647  0.5981
19131TIP3    H178884   2.376   5.936   2.549  0.1322  3.8708  1.3011
19131TIP3    H278885   2.237   5.898   2.597  1.2324 -3.1518 -0.0775
19132TIP3   OH278886   5.610   5.304  14.979  0.3821  0.3496  0.1393
19132TIP3    H178887   5.580   5.228  14.929  1.3474  0.3875 -0.5284
19132TIP3    H278888   5.560   5.300  15.061 -0.8331 -0.0274 -0.5874
19133TIP3   OH278889   3.299   3.766   1.918  0.3168 -0.0631  0.5567
19133TIP3    H178890   3.208   3.780   1.893  0.3504  0.6189  0.7973
19133TIP3    H278891   3.308   3.671   1.923  0.0021 -0.1943 -0.8730
19134TIP3   OH278892   5.144   4.748  16.944  0.1256 -0.7063 -0.5111
19134TIP3    H178893   5.076   4.803  16.983  1.2099 -1.4616  2.7845
19134TIP3    H278894   5.122   4.659  16.974  1.5924 -1.2020 -0.8578
19135TIP3   OH278895   6.720   2.004  13.248 -0.3939  0.3105 -0.2369
19135TIP3    H178896   6.637   1.957  13.255 -0.0275 -0.1011  2.0925
19135TIP3    H278897   6.698   2.095  13.263 -0.2941  0.0168  2.0940
19136TIP3   OH278898   2.048   4.051   1.989 -0.1572 -0.1565  0.8005
19136TIP3    H178899   2.132   4.060   1.944  0.9163 -2.6108  2.1256
19136TIP3    H278900   1.982   4.061   1.920  1.3346 -1.2578 -0.8496
19137TIP3   OH278901   3.629   4.608  15.452  0.0664 -0.7017 -0.1600
19137TIP3    H178902   3.616   4.703  15.458 -2.5393 -1.0672  2.1007
19137TIP3    H278903   3.571   4.580  15.382  1.5807 -0.5725 -1.5072
19138TIP3   OH278904   5.633   1.069  14.463  0.8794  0.2496 -0.1870
19138TIP3    H178905   5.607   1.118  14.541 -2.3656 -1.1209 -0.2902
19138TIP3    H278906   5.563   1.085  14.400 -0.3633 -4.2895 -0.2794
19139TIP3   OH278907   1.731   4.160   4.237 -0.0814  0.1033 -0.4748
19139TIP3    H178908   1.720   4.102   4.162  1.0769 -0.4133 -0.2779
19139TIP3    H278909   1.680   4.119   4.307 -1.7804  0.9795 -1.1425
19140TIP3   OH278910   2.696   3.500   4.869 -0.6285 -0.3016 -0.2643
19140TIP3    H178911   2.723   3.451   4.947  0.7892 -2.1515 -1.8374
19140TIP3    H278912   2.750   3.579   4.871  0.1710 -0.8405  0.0812
19141TIP3   OH278913   3.033   6.185   1.341  0.2933  0.8560 -0.2570
19141TIP3    H178914   3.052   6.129   1.266  1.6287 -0.2875  0.8689
19141TIP3    H278915   3.044   6.128   1.417  1.2688  2.5102  0.9141
19142TIP3   OH278916   3.601   5.246  16.697  0.4384  0.1622 -0.1122
19142TIP3    H178917   3.603   5.211  16.608  0.9637 -1.8453  0.6269
19142TIP3    H278918   3.658   5.187  16.747  0.3981  1.4125  1.5000
19143TIP3   OH278919   1.169   4.157   3.036 -0.9080 -0.0750  0.0354
19143TIP3    H178920   1.118   4.083   3.070  1.0919 -1.1424  0.8817
19143TIP3    H278921   1.251   4.118   3.005 -0.3517  1.6342 -0.8014
19144TIP3   OH278922   1.824   3.656  12.087 -0.2982  0.0167  0.4805
19144TIP3    H178923   1.825   3.677  11.993 -0.5516  1.2268  0.7335
19144TIP3    H278924   1.891   3.712  12.125 -0.1440 -0.5293  1.0233
19145TIP3   OH278925   2.267   5.607   2.327 -0.1767  0.6045 -0.6938
19145TIP3    H178926   2.327   5.571   2.263 -0.7491 -1.1812 -0.2835
19145TIP3    H278927   2.185   5.619   2.279  0.3027  2.6016 -1.1341
19146TIP3   OH278928   5.821   0.125   0.579 -0.4765  0.1041 -0.3387
19146TIP3    H178929   5.747   0.139   0.638  0.4527  1.1800  0.6180
19146TIP3    H278930   5.872   0.055   0.620 -0.2403  0.3136 -0.2726
19147TIP3   OH278931   0.135   5.767   6.305 -0.0994 -0.2554  0.1942
19147TIP3    H178932   0.119   5.688   6.357  0.6730  0.8284  2.1967
19147TIP3    H278933   0.074   5.832   6.341 -0.3812  0.2184 -1.0815
19148TIP3   OH278934   0.835   2.095  10.834  0.4087 -0.8490  0.1732
19148TIP3    H178935   0.751   2.133  10.859  1.2100  0.9655  0.2244
19148TIP3    H278936   0.836   2.010  10.877 -1.2465 -0.7650  0.4509
19149TIP3   OH278937   4.047   6.218   5.237  0.2724  0.8268 -0.0893
19149TIP3    H178938   3.957   6.185   5.239 -0.2668  2.2854  1.0239
19149TIP3    H278939   4.061   6.255   5.324  2.7986 -1.4648  0.6177
19150TIP3   OH278940   3.721   4.386  14.139  0.1109  0.0954  0.0683
19150TIP3    H178941   3.804   4.348  14.111  0.4627 -0.0968  1.3248
19150TIP3    H278942   3.655   4.342  14.084  0.6056 -1.5505  0.7145
19151TIP3   OH278943   6.660   5.555  12.369  0.0879  0.0113 -0.0825
19151TIP3    H178944   6.612   5.619  12.421 -1.6073 -0.9837 -0.3691
19151TIP3    H278945   6.606   5.476  12.370  1.2433 -0.8518 -1.2347
19152TIP3   OH278946   5.136   5.990   0.288  0.2782  0.5534 -0.0752
19152TIP3    H178947   5.123   6.051   0.215  0.8861 -0.2752 -0.9038
19152TIP3    H278948   5.220   5.948   0.270  0.7124  0.7289  1.4158
19153TIP3   OH278949   2.969   5.094   6.149  0.2225 -0.3306  0.1571
19153TIP3    H178950   2.962   5.012   6.199 -1.1997 -0.2787  0.0919
19153TIP3    H278951   2.966   5.162   6.216 -0.9622 -0.2848  0.0883
19154TIP3   OH278952   1.861   2.080  13.668  0.2110  0.2540  0.5892
19154TIP3    H178953   1.869   2.048  13.757  0.3041 -0.4527  0.3314
19154TIP3    H278954   1.794   2.024  13.628  1.4660 -0.6457 -0.3196
19155TIP3   OH278955   3.994   4.336   3.424 -0.1581 -0.0654 -0.6382
19155TIP3    H178956   4.003   4.311   3.332  0.5139  0.6648 -0.7890
19155TIP3    H278957   3.946   4.419   3.421 -0.2546 -0.1090 -0.3205
19156TIP3   OH278958   1.950   3.660  14.987  0.4758  0.0684  0.3670
19156TIP3    H178959   1.855   3.670  14.976  0.3921 -0.8126  0.1508
19156TIP3    H278960   1.961   3.567  15.009  1.3860 -0.1198 -0.8143
19157TIP3   OH278961   6.477   2.790  11.737 -0.8280  0.1176  0.1322
19157TIP3    H178962   6.548   2.853  11.735 -0.3926 -0.3806 -0.6890
19157TIP3    H278963   6.517   2.710  11.772 -0.9217 -0.2231 -0.5252
19158TIP3   OH278964   5.541   5.068   4.514 -0.0707  0.3907 -0.0454
19158TIP3    H178965   5.560   5.159   4.536  1.8155 -0.4762  2.3591
19158TIP3    H278966   5.498   5.032   4.592  0.5766 -1.1223 -0.3461
19159TIP3   OH278967   4.057   6.106  12.114  0.1538 -0.1615  0.3109
19159TIP3    H178968   3.971   6.105  12.071  0.0187  0.5615  0.5534
19159TIP3    H278969   4.101   6.029  12.080 -0.8089 -0.8702  0.6371
19160TIP3   OH278970   2.419   4.497   2.336  0.6551  0.2653  0.2528
19160TIP3    H178971   2.368   4.424   2.302  1.0053 -0.5996  1.5102
19160TIP3    H278972   2.385   4.511   2.425  1.0895  1.1499  0.2900
19161TIP3   OH278973   0.004   5.965   2.305 -0.1801  0.2522 -0.5185
19161TIP3    H178974  -0.081   5.923   2.295 -0.7272  1.4753 -1.2148
19161TIP3    H278975  -0.016   6.052   2.341  0.8614  0.2048  0.2377
19162TIP3   OH278976   6.648   5.006  13.192  0.3941  0.3355  0.0825
19162TIP3    H178977   6.694   4.977  13.113 -1.2147 -0.5045 -0.6006
19162TIP3    H278978   6.597   4.930  13.219 -0.5263  1.1962  0.8575
19163TIP3   OH278979   4.334   0.764   1.408  0.3458 -0.2985 -0.1722
19163TIP3    H178980   4.377   0.801   1.330  2.2533  0.3305  1.1045
19163TIP3    H278981   4.406   0.744   1.468 -1.0691 -0.7738  1.4486
19164TIP3   OH278982   5.261   4.862   2.321  0.1307  0.9877  0.2024
19164TIP3    H178983   5.316   4.806   2.375  1.0052  1.9115  0.2976
19164TIP3    H278984   5.172   4.830   2.337  0.7281 -1.8111 -1.4776
19165TIP3   OH278985   1.213   6.246  16.721  0.2815  0.1454  0.4234
19165TIP3    H178986   1.150   6.303  16.765  0.2773  0.5307 -0.0713
19165TIP3    H278987   1.160   6.180  16.676  0.1994  0.6710 -0.2741
19166TIP3   OH278988   3.830   2.134  14.904 -0.1222  0.0096 -0.5492
19166TIP3    H178989   3.811   2.142  14.811  0.4611 -0.5677 -0.7187
19166TIP3    H278990   3.861   2.221  14.930  2.7898 -0.6243 -1.6046
19167TIP3   OH278991   5.922   3.340  13.876 -0.0925 -0.2957 -0.8760
19167TIP3    H178992   5.834   3.361  13.844 -0.7412 -0.7706  0.5014
19167TIP3    H278993   5.925   3.376  13.965  0.7049 -1.2184 -0.5008
19168TIP3   OH278994   1.228   1.531  16.533 -0.8940  0.0668 -0.2507
19168TIP3    H178995   1.281   1.519  16.612 -1.3013  1.7652  0.3244
19168TIP3    H278996   1.140   1.550  16.567 -1.4286 -0.7088 -1.1556
19169TIP3   OH278997   6.699   3.608   5.747  0.2626 -0.0373 -0.4448
19169TIP3    H178998   6.785   3.631   5.782  0.6950 -0.5286 -1.1591
19169TIP3    H278999   6.645   3.592   5.824  0.3594  1.8298  0.0590
19170TIP3   OH279000   6.761   5.822   1.141  0.2190 -0.1877  0.0338
19170TIP3    H179001   6.767   5.752   1.207  0.2099  0.7712  1.0749
19170TIP3    H279002   6.849   5.858   1.135  0.4055 -0.7946 -1.0928
19171TIP3   OH279003   1.011   4.622  14.432 -0.1422 -0.2814  0.6653
19171TIP3    H179004   1.023   4.699  14.376  0.5660 -1.1559 -0.4184
19171TIP3    H279005   0.984   4.658  14.517 -2.0802  1.0585 -0.4358
19172TIP3   OH279006   1.354   5.171   2.987  0.7116 -0.0161  0.1470
19172TIP3    H179007   1.412   5.136   2.920  1.2076  0.3898  0.3576
19172TIP3    H279008   1.313   5.247   2.945  1.1099  0.3077  0.3348
19173TIP3   OH279009   5.744   5.352  11.383 -0.2168  0.2166 -0.5656
19173TIP3    H179010   5.703   5.436  11.405  0.8479  0.5816  0.1039
19173TIP3    H279011   5.797   5.371  11.305  1.9749  0.8367  0.9750
19174TIP3   OH279012   6.394   4.819  13.304 -0.4308 -0.3641 -0.2291
19174TIP3    H179013   6.367   4.783  13.220 -0.7358 -0.3097 -0.1574
19174TIP3    H279014   6.384   4.746  13.366 -2.2325  0.1408  0.1492
19175TIP3   OH279015   4.284   4.802  14.102  0.9800 -0.0368  0.4220
19175TIP3    H179016   4.231   4.843  14.170  1.8462  1.0900  0.4518
19175TIP3    H279017   4.331   4.732  14.147 -0.4711 -1.0956  0.3830
19176TIP3   OH279018   6.417   3.564  14.839  0.6479 -0.3609  0.2796
19176TIP3    H179019   6.415   3.469  14.850 -0.3897 -0.5400 -1.1064
19176TIP3    H279020   6.505   3.584  14.809  0.3121 -1.1582 -1.3116
19177TIP3   OH279021   6.136   5.395   2.229  0.0943 -0.1962 -0.6053
19177TIP3    H179022   6.111   5.303   2.226 -0.3123 -0.0821 -0.8385
19177TIP3    H279023   6.066   5.440   2.180 -0.0334  0.3064  0.0348
19178TIP3   OH279024   5.033   5.671   2.732  0.5731 -0.1908  0.2765
19178TIP3    H179025   4.980   5.602   2.773  1.0064  0.4918  2.0669
19178TIP3    H279026   5.048   5.734   2.801 -0.1030  1.9448 -1.4147
19179TIP3   OH279027   2.359   3.422   4.528 -0.2530  0.6041 -0.1468
19179TIP3    H179028   2.316   3.450   4.609  0.0844  1.5528 -0.2778
19179TIP3    H279029   2.291   3.426   4.462 -0.7451 -0.9817  0.2216
19180TIP3   OH279030   3.104   4.865   5.254 -0.0599  0.2163  0.3131
19180TIP3    H179031   3.029   4.811   5.277  0.7460 -1.5841 -0.9773
19180TIP3    H279032   3.074   4.917   5.179  0.1983 -1.1986 -0.8188
19181TIP3   OH279033   3.056   2.978  14.177 -0.1883  0.0704 -0.1545
19181TIP3    H179034   2.977   2.961  14.126  0.6269  0.2193 -1.5026
19181TIP3    H279035   3.066   3.073  14.176 -0.3200  0.1019  0.5554
19182TIP3   OH279036   2.557   4.784   4.360  0.4090  0.1174 -0.2749
19182TIP3    H179037   2.542   4.878   4.371  1.0341  0.3088 -0.9988
19182TIP3    H279038   2.498   4.758   4.289 -0.3554 -0.2110  0.4630
19183TIP3   OH279039   3.536   1.379  17.128 -0.4917  0.5974 -0.1734
19183TIP3    H179040   3.611   1.359  17.072 -1.2437 -0.8883 -0.6845
19183TIP3    H279041   3.494   1.454  17.086 -0.7112 -0.1364 -1.2926
19184TIP3   OH279042   4.186   5.009   4.322  0.3298 -0.3340  0.5959
19184TIP3    H179043   4.155   5.097   4.303  0.7352 -0.0244  1.3462
19184TIP3    H279044   4.245   5.019   4.397  2.0798 -0.9208 -0.6284
19185TIP3   OH279045   1.069   0.331  13.723 -0.1264  0.3051 -0.1730
19185TIP3    H179046   1.039   0.240  13.730  0.1788  0.0745 -1.5515
19185TIP3    H279047   1.022   0.377  13.792  1.9317 -1.4461  2.6085
19186TIP3   OH279048   6.653   4.810  11.423  0.7051  0.6419 -0.3220
19186TIP3    H179049   6.721   4.866  11.385  1.4779  0.1339  0.2778
19186TIP3    H279050   6.581   4.869  11.442  0.8163  1.1274 -1.3403
19187TIP3   OH279051   5.401   5.720  11.498  0.9445  0.2952  0.1135
19187TIP3    H179052   5.371   5.726  11.589 -2.7573 -0.8069 -0.8756
19187TIP3    H279053   5.368   5.801  11.457  2.2972  0.6286 -0.3702
19188TIP3   OH279054   2.347   1.703   2.675 -0.3999  0.1881 -0.5364
19188TIP3    H179055   2.401   1.631   2.707 -0.8979 -0.3501 -0.8878
19188TIP3    H279056   2.384   1.781   2.716  0.1900 -0.2588 -0.2084
19189TIP3   OH279057   3.045   6.508  11.503  0.4996 -0.1541  0.8150
19189TIP3    H179058   3.139   6.500  11.519  0.8603  1.0488 -0.4622
19189TIP3    H279059   3.022   6.596  11.533  0.6212  1.0394 -2.1844
19190TIP3   OH279060   5.262   0.468   4.422  0.7715 -0.7779  0.0544
19190TIP3    H179061   5.223   0.478   4.509  1.1299 -1.7370  0.3453
19190TIP3    H279062   5.210   0.524   4.365  0.9461  0.3828  1.0111
19191TIP3   OH279063   6.152   0.134   5.103  0.0293 -0.0057 -0.1985
19191TIP3    H179064   6.228   0.122   5.159  1.3211 -2.8999 -2.3103
19191TIP3    H279065   6.092   0.063   5.129 -0.5421  0.2914 -0.6700
19192TIP3   OH279066   0.925   0.256   5.492 -0.6507 -0.2627  0.2256
19192TIP3    H179067   0.851   0.291   5.442 -0.4294  2.3182  1.5285
19192TIP3    H279068   0.991   0.234   5.426 -1.3118  0.6470 -0.7618
19193TIP3   OH279069   1.750   2.856  13.680 -0.0718  0.0266 -0.0569
19193TIP3    H179070   1.805   2.798  13.733  2.2778  2.4834  0.4257
19193TIP3    H279071   1.745   2.937  13.731 -0.5043  1.3498 -2.0887
19194TIP3   OH279072   1.678   5.507  14.288 -0.2281 -0.0800  0.0697
19194TIP3    H179073   1.731   5.494  14.209 -2.5681  0.5648 -1.7311
19194TIP3    H279074   1.698   5.596  14.315  0.0063 -0.0223 -0.2796
19195TIP3   OH279075   1.221   5.960  13.267 -0.3072  0.2908 -0.0610
19195TIP3    H179076   1.276   6.011  13.207 -0.2280  0.6301  0.2892
19195TIP3    H279077   1.179   6.026  13.322 -0.0725 -0.0277  0.5137
19196TIP3   OH279078   3.976   4.705  17.014 -0.3195 -0.5072  0.0188
19196TIP3    H179079   3.996   4.799  17.018 -0.3286 -0.3568 -2.3510
19196TIP3    H279080   4.040   4.670  16.952 -0.9448 -1.9103  0.1365
19197TIP3   OH279081   5.390   1.106  13.267 -0.0435 -0.1639  0.1186
19197TIP3    H179082   5.356   1.017  13.273 -1.3851  0.1727 -1.6579
19197TIP3    H279083   5.313   1.162  13.271 -0.1344  0.5932 -5.2218
19198TIP3   OH279084   3.518   0.387   3.528  0.0553  0.8052 -0.4487
19198TIP3    H179085   3.506   0.442   3.605 -2.3277 -1.1193  0.6786
19198TIP3    H279086   3.608   0.354   3.536 -0.0840  0.7907  1.4100
19199TIP3   OH279087   2.919   5.590   1.561 -0.0766  0.4572 -0.0636
19199TIP3    H179088   2.949   5.527   1.626 -2.6376 -1.4300 -0.5877
19199TIP3    H279089   2.856   5.645   1.607  1.1242  1.8129  0.0336
19200TIP3   OH279090   4.395   6.815   3.294 -0.3286  0.7815 -0.1582
19200TIP3    H179091   4.463   6.870   3.335  1.0044 -0.5974 -0.4460
19200TIP3    H279092   4.442   6.765   3.228 -2.0370  1.2785 -1.8163
19201TIP3   OH279093   5.715   3.077   4.500  0.3344  0.5601 -0.0950
19201TIP3    H179094   5.748   3.090   4.411 -0.0450  0.9432 -0.1861
19201TIP3    H279095   5.640   3.137   4.506 -1.8042 -1.8499 -0.6896
19202TIP3   OH279096   2.194   5.864   3.604  0.0012  0.2970  0.9066
19202TIP3    H179097   2.130   5.805   3.645  0.2699  0.8979  2.2341
19202TIP3    H279098   2.144   5.909   3.536 -1.0824  0.9737  2.1143
19203TIP3   OH279099   4.577   5.207   0.160  0.2831 -0.5384  0.7227
19203TIP3    H179100   4.648   5.193   0.098  0.7033  0.2962  1.0014
19203TIP3    H279101   4.555   5.119   0.192  1.6852 -0.7388  1.1854
19204TIP3   OH279102   2.128   6.062   4.206 -0.7859  0.1209  0.0901
19204TIP3    H179103   2.158   5.973   4.227 -2.1965 -1.4392 -3.6665
19204TIP3    H279104   2.194   6.096   4.146 -0.8393  1.2129  0.6293
19205TIP3   OH279105   2.230   1.570   4.720  0.2066  0.0153 -0.4957
19205TIP3    H179106   2.255   1.615   4.639 -1.7801  1.4725 -0.3963
19205TIP3    H279107   2.241   1.636   4.788  1.2803 -1.0134  0.3687
19206TIP3   OH279108   0.851   0.392   2.663  0.0992 -0.3184  0.7709
19206TIP3    H179109   0.922   0.390   2.727  0.7196 -0.6115  0.0748
19206TIP3    H279110   0.842   0.301   2.634  0.1106 -0.1113  0.1181
19207TIP3   OH279111   0.621   4.230  10.587  0.1606 -0.5756 -0.1957
19207TIP3    H179112   0.653   4.311  10.627  0.9517 -0.4068 -1.1440
19207TIP3    H279113   0.700   4.177  10.574  0.0804 -0.2581 -2.3447
19208TIP3   OH279114   6.556   1.940   3.608  0.2768  0.7060  0.4982
19208TIP3    H179115   6.644   1.935   3.570  0.4034  1.6917  0.6308
19208TIP3    H279116   6.570   1.980   3.694 -0.3746  1.6079  0.2014
19209TIP3   OH279117   5.858   2.158   0.189 -0.0878  0.0156 -0.0065
19209TIP3    H179118   5.771   2.186   0.162 -0.6555 -0.8198  0.8858
19209TIP3    H279119   5.898   2.235   0.229 -0.9133  0.0655  0.7346
19210TIP3   OH279120   4.936   6.213   0.515 -0.2444  0.1459  0.0899
19210TIP3    H179121   4.845   6.184   0.522  0.1495 -0.7179  2.3025
19210TIP3    H279122   4.937   6.299   0.556 -0.0304  0.0128  0.3746
19211TIP3   OH279123   4.514   3.675   5.468 -0.1954 -0.6012  0.5044
19211TIP3    H179124   4.477   3.757   5.436  0.6096 -0.5014 -0.1957
19211TIP3    H279125   4.563   3.700   5.547  0.0343 -0.4097  0.3021
19212TIP3   OH279126   0.582   1.110   6.061 -0.3399  0.3990  0.6398
19212TIP3    H179127   0.533   1.031   6.084  1.6830 -1.2244 -0.3028
19212TIP3    H279128   0.588   1.108   5.965  0.1616  1.4185  0.6326
19213TIP3   OH279129   5.342   5.667   2.814 -0.4898  0.3663 -0.4855
19213TIP3    H179130   5.295   5.674   2.897  1.3504 -1.4141  0.8077
19213TIP3    H279131   5.386   5.751   2.804  1.1795 -0.1435  1.6757
19214TIP3   OH279132   5.527   5.561  14.923 -0.2307  0.2223 -0.3162
19214TIP3    H179133   5.553   5.565  14.831 -0.0661 -1.6714 -0.3886
19214TIP3    H279134   5.554   5.474  14.952 -0.9794  0.4959  1.3214
19215TIP3   OH279135   1.880   5.285   1.066  0.4582  0.1215  0.9059
19215TIP3    H179136   1.910   5.198   1.095 -0.0090 -0.1251  0.6506
19215TIP3    H279137   1.941   5.309   0.996 -0.7890 -1.0382 -0.6540
19216TIP3   OH279138   3.223   3.611  14.694  0.2146  0.1393  0.2082
19216TIP3    H179139   3.270   3.681  14.649 -1.3873  0.3090 -1.2821
19216TIP3    H279140   3.176   3.656  14.764 -0.5674  0.5278 -0.5550
19217TIP3   OH279141   0.573   5.774  12.616  0.3282  0.4710  0.1880
19217TIP3    H179142   0.590   5.835  12.688 -0.7068  1.3614 -0.2755
19217TIP3    H279143   0.541   5.695  12.659  0.1295  0.8420  0.7443
19218TIP3   OH279144   6.646   6.782  13.894  0.3664 -0.0247 -0.1901
19218TIP3    H179145   6.654   6.752  13.804  1.0359 -2.8633  0.7160
19218TIP3    H279146   6.718   6.843  13.906  1.3663 -1.0021 -1.0960
19219TIP3   OH279147   3.264   4.491  10.922 -0.1352  0.1719 -0.3590
19219TIP3    H179148   3.174   4.465  10.941 -0.1092  0.5457  0.3017
19219TIP3    H279149   3.255   4.566  10.862 -0.3658  1.7882  1.5830
19220TIP3   OH279150   5.223   2.190  15.775  0.4242  0.1667  0.2598
19220TIP3    H179151   5.193   2.238  15.698  0.6782  0.0657  0.0923
19220TIP3    H279152   5.310   2.158  15.750  0.1256 -0.6478  0.2519
19221TIP3   OH279153   2.253   0.815   1.750 -0.1258  0.5656 -0.1866
19221TIP3    H179154   2.333   0.864   1.734  0.1428  0.1500 -0.1451
19221TIP3    H279155   2.276   0.754   1.820 -0.3135  0.0612 -0.5545
19222TIP3   OH279156   2.582   0.519   3.350 -0.1169  0.4727 -0.1306
19222TIP3    H179157   2.513   0.490   3.290 -0.5637  0.4517  0.3830
19222TIP3    H279158   2.554   0.486   3.436  0.4792  0.5579  0.1013
19223TIP3   OH279159   0.991   0.068   5.130  0.2069 -0.2506 -0.3543
19223TIP3    H179160   1.037   0.144   5.095 -1.5994  0.6385 -0.9040
19223TIP3    H279161   1.027  -0.007   5.082  0.2603  0.5477 -1.6039
19224TIP3   OH279162   2.819   2.365   5.620 -0.5253  0.0831  0.5751
19224TIP3    H179163   2.742   2.344   5.567 -0.0961  0.2868 -0.1424
19224TIP3    H279164   2.840   2.455   5.595 -0.1062  0.0551  0.8356
19225TIP3   OH279165   5.490   6.770   1.929 -0.2084  0.1113  0.3924
19225TIP3    H179166   5.463   6.819   2.006 -1.6187  0.9720 -0.6061
19225TIP3    H279167   5.417   6.710   1.912 -0.1750  0.3295 -0.5885
19226TIP3   OH279168   5.850   2.511   3.548 -0.0060 -0.0229 -0.6887
19226TIP3    H179169   5.763   2.475   3.531 -0.2041 -1.7030  2.9554
19226TIP3    H279170   5.834   2.594   3.593  0.2836 -0.0262 -0.5741
19227TIP3   OH279171   5.635   4.011   4.916 -0.3940  0.0599 -0.7258
19227TIP3    H179172   5.551   4.055   4.904 -1.7397 -2.3126 -0.5917
19227TIP3    H279173   5.616   3.940   4.978  1.8693 -0.1473 -0.1939
19228TIP3   OH279174   5.975   3.649  12.791  0.3541 -0.5175  0.5213
19228TIP3    H179175   5.894   3.699  12.806  1.4992  2.6165 -2.3268
19228TIP3    H279176   6.022   3.654  12.874 -1.1853  0.0442  1.4060
19229TIP3   OH279177   0.842   6.587   3.562  0.7455 -0.3681 -0.0548
19229TIP3    H179178   0.888   6.654   3.513 -1.6655  1.6704  0.2584
19229TIP3    H279179   0.809   6.526   3.495 -1.1190  1.4817 -0.9448
19230TIP3   OH279180   6.462   3.541   1.628 -0.9183 -1.0780  0.2478
19230TIP3    H179181   6.523   3.550   1.701  2.0442 -3.2008 -1.7422
19230TIP3    H279182   6.440   3.631   1.605  0.9536 -0.2312  1.4921
19231TIP3   OH279183   0.210   5.574   2.915 -0.3045 -0.0545  0.4713
19231TIP3    H179184   0.253   5.571   3.000 -0.4641 -0.1406  0.5487
19231TIP3    H279185   0.281   5.594   2.853 -0.1183 -0.3747  0.5765
19232TIP3   OH279186   0.609   3.617   5.702  0.3366 -0.1470 -0.0865
19232TIP3    H179187   0.626   3.701   5.660 -0.2548 -0.0008 -0.0481
19232TIP3    H279188   0.629   3.632   5.794 -0.3039  0.1177  0.0136
19233TIP3   OH279189   4.775   3.311  14.559  0.5945 -0.4210  0.6763
19233TIP3    H179190   4.858   3.268  14.579  0.4511 -1.1080 -0.1686
19233TIP3    H279191   4.719   3.242  14.524  0.0020  0.2389  0.2843
19234TIP3   OH279192   6.635   4.465  13.044  0.1852  0.2567  0.0466
19234TIP3    H179193   6.570   4.425  13.102  1.2055  0.1058  1.1228
19234TIP3    H279194   6.594   4.547  13.016  0.5768  1.6302  3.0202
19235TIP3   OH279195   1.277   0.760   1.690  0.0027 -0.2021 -0.1232
19235TIP3    H179196   1.193   0.804   1.676 -0.0930 -0.3310  0.0352
19235TIP3    H279197   1.327   0.820   1.744  0.0944 -0.0304 -0.3962
19236TIP3   OH279198   2.872   0.511   2.534 -0.0915 -0.4271 -0.0775
19236TIP3    H179199   2.868   0.598   2.494 -2.4882  1.0783  3.0073
19236TIP3    H279200   2.962   0.503   2.565 -0.0306  1.3653  0.3293
19237TIP3   OH279201   4.372   0.967   5.489  0.0926  0.0082 -0.5484
19237TIP3    H179202   4.287   0.927   5.507 -0.4925  0.6356 -1.7976
19237TIP3    H279203   4.434   0.894   5.489 -0.4550 -0.4683  0.2738
19238TIP3   OH279204   3.144   6.185   3.631 -0.3376  0.1791  0.1246
19238TIP3    H179205   3.178   6.153   3.548  0.0822  0.4847  0.1789
19238TIP3    H279206   3.148   6.110   3.690  2.1445  0.7111  0.7162
19239TIP3   OH279207   1.188   3.373   3.549  0.7318 -0.3936 -0.5493
19239TIP3    H179208   1.123   3.431   3.509  1.0578 -0.4613 -1.1703
19239TIP3    H279209   1.236   3.429   3.609  1.2750  0.0656 -1.4013
19240TIP3   OH279210   5.424   2.945  10.919 -0.0574 -0.4504 -0.3063
19240TIP3    H179211   5.515   2.970  10.936 -0.5194  1.0384  0.1873
19240TIP3    H279212   5.381   2.956  11.004 -1.0090  0.4190 -0.8863
19241TIP3   OH279213   2.321   2.129  11.276 -0.3255 -0.4105  0.2973
19241TIP3    H179214   2.271   2.109  11.196 -0.9684  1.4614  0.1779
19241TIP3    H279215   2.255   2.152  11.341  0.2996  1.6634  0.2742
19242TIP3   OH279216   6.154   4.595   1.740 -0.0096  0.4094  0.3742
19242TIP3    H179217   6.097   4.564   1.670 -0.0992  0.2980  0.4954
19242TIP3    H279218   6.202   4.517   1.769 -0.2907  0.3675  0.7316
19243TIP3   OH279219   2.125   3.887   0.972  0.1496  0.0832 -0.0873
19243TIP3    H179220   2.201   3.828   0.971 -0.6165 -0.9236 -1.1408
19243TIP3    H279221   2.055   3.835   1.012 -0.2906  0.5954 -0.1819
19244TIP3   OH279222   4.709   1.798   0.471  0.1633  0.2625 -0.1528
19244TIP3    H179223   4.621   1.803   0.433 -0.3302 -0.2891  0.8732
19244TIP3    H279224   4.768   1.822   0.399 -0.8802  1.7927 -0.5559
19245TIP3   OH279225   2.180   3.325  15.915 -0.5831  0.0732  0.3613
19245TIP3    H179226   2.167   3.408  15.960 -2.5064 -0.5923  1.1143
19245TIP3    H279227   2.264   3.293  15.949 -0.1605  1.3519  0.5928
19246TIP3   OH279228   3.373   5.902   5.321 -0.2942 -0.0808  0.3636
19246TIP3    H179229   3.305   5.951   5.275 -1.2666 -1.1049  0.6610
19246TIP3    H279230   3.399   5.959   5.393 -1.6287 -0.1139  0.8967
19247TIP3   OH279231   4.435   2.258  16.531  0.4088 -0.6168  0.2366
19247TIP3    H179232   4.519   2.302  16.521  0.1997  0.1426  1.5124
19247TIP3    H279233   4.443   2.211  16.614 -0.7484  0.3164  0.9239
19248TIP3   OH279234   6.341   4.419   2.835  0.0905 -0.3178 -0.0130
19248TIP3    H179235   6.361   4.467   2.755 -2.0631 -0.2178 -0.5270
19248TIP3    H279236   6.286   4.346   2.807  2.2280 -2.4411  0.9266
19249TIP3   OH279237   3.785   2.665   3.178 -0.5741  0.1822 -0.5516
19249TIP3    H179238   3.781   2.569   3.181 -0.8550  0.1895 -0.6040
19249TIP3    H279239   3.828   2.690   3.259 -0.0012 -0.0143 -0.7925
19250TIP3   OH279240   1.889   5.976   4.315  0.1255  0.3450  0.3614
19250TIP3    H179241   1.885   5.917   4.239  1.3105 -0.7844  1.1315
19250TIP3    H279242   1.967   6.028   4.301 -0.9933  1.8994 -0.3812
19251TIP3   OH279243   6.708   4.830   4.176  0.9618 -0.9841  0.3271
19251TIP3    H179244   6.797   4.863   4.169  1.3669 -1.9295  0.7704
19251TIP3    H279245   6.702   4.794   4.264 -0.0869 -0.3178  0.5512
19252TIP3   OH279246   1.935   3.752  15.691  0.3015 -0.1038 -0.6482
19252TIP3    H179247   1.943   3.674  15.636  0.8964 -1.6676  1.4773
19252TIP3    H279248   1.879   3.724  15.763 -0.7167  1.9453 -0.5842
19253TIP3   OH279249   6.638   1.209  16.588 -0.4847 -0.2150 -0.0719
19253TIP3    H179250   6.711   1.251  16.633  0.4081 -0.4059 -1.2882
19253TIP3    H279251   6.560   1.245  16.630  0.2923 -0.0852  1.3299
19254TIP3   OH279252   3.063   2.956  14.924  0.6329  0.6049  0.5303
19254TIP3    H179253   2.970   2.977  14.924  0.4576  0.0611  2.7410
19254TIP3    H279254   3.070   2.876  14.977  2.1505 -0.5586 -1.2976
19255TIP3   OH279255   2.897   2.744   3.291  0.1603  0.4782  0.8448
19255TIP3    H179256   2.894   2.783   3.204  0.8783 -1.4342 -0.1035
19255TIP3    H279257   2.815   2.771   3.333  0.5969  2.8825  0.2837
19256TIP3   OH279258   6.017   2.744   3.777  0.3865  0.1180 -0.1184
19256TIP3    H179259   6.058   2.787   3.853 -1.1267 -0.1066  0.8631
19256TIP3    H279260   6.075   2.670   3.758  0.4024 -0.2712  1.3188
19257TIP3   OH279261   3.632   6.407   0.001 -0.1573  0.2515 -0.0034
19257TIP3    H179262   3.576   6.402  -0.076 -2.3038 -0.4067  1.5090
19257TIP3    H279263   3.634   6.317   0.035  1.8594  0.2491  0.0223
19258TIP3   OH279264   4.206   4.569  13.977  0.2818 -0.7232 -0.5314
19258TIP3    H179265   4.195   4.639  14.041 -3.0889 -2.5800  1.1831
19258TIP3    H279266   4.240   4.613  13.899  1.1298  2.2449  1.3443
19259TIP3   OH279267   6.827   5.451   2.817 -0.3883  0.5390 -0.1780
19259TIP3    H179268   6.784   5.532   2.790 -1.2099  0.5735  1.1675
19259TIP3    H279269   6.910   5.480   2.856 -1.1277  0.8539  1.2344
19260TIP3   OH279270   3.027   5.037   5.024 -0.0721  0.0377 -0.2576
19260TIP3    H179271   3.040   5.045   4.929 -2.1609  0.6466 -0.5417
19260TIP3    H279272   3.020   5.127   5.054 -2.5100 -0.1484 -0.0632
19261TIP3   OH279273   1.230   6.374  12.855 -0.2297 -0.1626 -0.4124
19261TIP3    H179274   1.306   6.337  12.812  0.3079  0.2211  0.1961
19261TIP3    H279275   1.255   6.464  12.876 -1.3343  0.4123 -1.4383
19262TIP3   OH279276   6.433   6.557  13.398  0.1467 -0.0839  0.4074
19262TIP3    H179277   6.350   6.603  13.390  0.2882 -0.0081 -0.8238
19262TIP3    H279278   6.410   6.464  13.394  0.0965 -0.0672  0.3082
19263TIP3   OH279279   6.739   0.821  14.283  0.0021  0.0421  0.0763
19263TIP3    H179280   6.729   0.744  14.226  2.3166 -2.2140  2.4431
19263TIP3    H279281   6.675   0.808  14.352 -0.7888  1.2471 -0.3869
19264TIP3   OH279282   1.073   5.380   4.266  0.2907 -0.0426 -0.0438
19264TIP3    H179283   1.052   5.308   4.326 -0.2053  0.5003  0.4401
19264TIP3    H279284   1.162   5.360   4.236  0.6771 -0.1724  1.1126
19265TIP3   OH279285   2.996   1.559   0.628  0.4749  0.1137  0.3014
19265TIP3    H179286   2.952   1.489   0.677  0.9270 -0.4430 -0.0698
19265TIP3    H279287   2.924   1.611   0.592  0.1175 -0.4999  0.1027
19266TIP3   OH279288   6.637   3.499   0.715 -0.1615  0.1817 -0.0419
19266TIP3    H179289   6.628   3.426   0.654 -1.1825  0.7820 -0.6409
19266TIP3    H279290   6.552   3.504   0.760  0.4435  0.0029  1.1447
19267TIP3   OH279291   3.749   3.713   2.447 -0.6067  0.1593  0.6277
19267TIP3    H179292   3.664   3.672   2.433  0.8900 -2.0506 -4.0221
19267TIP3    H279293   3.804   3.643   2.481  0.0562  0.7944  0.9051
19268TIP3   OH279294   0.763   0.581   1.190 -0.5961 -0.3108  0.3496
19268TIP3    H179295   0.814   0.604   1.267  0.7714 -1.6431 -0.0939
19268TIP3    H279296   0.718   0.500   1.215 -2.2875  0.6653  0.6165
19269TIP3   OH279297   6.510   1.706  13.518 -0.0649  0.1195  0.4101
19269TIP3    H179298   6.444   1.643  13.546 -0.2255 -0.5754 -1.4224
19269TIP3    H279299   6.546   1.741  13.600 -1.1256 -1.1281  1.4485
19270TIP3   OH279300   4.875   1.925  10.581  0.1513  0.2144  0.2251
19270TIP3    H179301   4.811   1.993  10.560 -0.8241 -0.9915 -0.8566
19270TIP3    H279302   4.949   1.973  10.620 -1.0637  1.7205  0.7830
19271TIP3   OH279303   0.249   5.322   0.961 -0.1765  0.0960  0.2953
19271TIP3    H179304   0.186   5.391   0.979 -0.8264 -0.2448 -0.5927
19271TIP3    H279305   0.262   5.326   0.866  0.1208 -0.7083  0.2930
19272TIP3   OH279306   0.848   2.808  15.848 -0.2423  0.1091 -0.2874
19272TIP3    H179307   0.891   2.884  15.886 -2.0243  0.6338  0.7653
19272TIP3    H279308   0.862   2.818  15.754 -3.0672  3.5679 -0.5687
19273TIP3   OH279309   5.325   6.593   3.235  0.6985 -0.4607 -0.3582
19273TIP3    H179310   5.291   6.609   3.147  1.8889 -1.6565 -1.0897
19273TIP3    H279311   5.269   6.525   3.271  1.5573 -1.6131 -1.1183
19274TIP3   OH279312   6.617   1.239   4.101 -0.7549  0.2383  0.0879
19274TIP3    H179313   6.550   1.194   4.153  1.3064 -0.1960  2.5555
19274TIP3    H279314   6.684   1.172   4.085  1.9891  1.9746  3.1032
19275TIP3   OH279315   4.758   2.463   5.207 -0.8012 -0.6087 -0.6377
19275TIP3    H179316   4.757   2.369   5.226 -0.9202 -0.6671 -0.9364
19275TIP3    H279317   4.813   2.472   5.130  0.0454 -0.3167 -0.0169
19276TIP3   OH279318   3.176   4.619   2.582 -0.2139  0.4360  0.2035
19276TIP3    H179319   3.177   4.655   2.671  0.3628  2.0771 -0.4304
19276TIP3    H279320   3.210   4.530   2.592  0.3461  0.7821  1.5599
19277TIP3   OH279321   1.657   1.687   1.844  0.1734 -0.4466 -0.4254
19277TIP3    H179322   1.586   1.627   1.822 -1.6801  1.1411  0.9020
19277TIP3    H279323   1.629   1.771   1.809  1.5199  0.1864 -0.0415
19278TIP3   OH279324   6.519   6.508   2.221  0.0990  0.0586 -0.4338
19278TIP3    H179325   6.590   6.563   2.187  1.3333 -1.3872 -0.2841
19278TIP3    H279326   6.560   6.456   2.290 -1.5206  0.3677  0.8458
19279TIP3   OH279327   2.849   0.105  14.521 -0.4074  0.1187 -0.0709
19279TIP3    H179328   2.816   0.042  14.585  0.1120  0.4379  0.5202
19279TIP3    H279329   2.787   0.178  14.525  0.2780  0.6554  0.9330
19280TIP3   OH279330   4.999   3.905  12.288 -0.1861 -0.0621  0.4285
19280TIP3    H179331   5.058   3.979  12.276  0.6514 -0.9386 -1.3434
19280TIP3    H279332   4.914   3.944  12.307 -0.2725  1.4895 -2.5665
19281TIP3   OH279333   4.017   6.748   2.259  0.2162  0.2590 -0.4980
19281TIP3    H179334   4.000   6.655   2.277  1.4395  0.1653  0.3267
19281TIP3    H279335   3.934   6.791   2.275 -0.1760 -0.6030 -0.1426
19282TIP3   OH279336   1.912   2.796  14.474  0.6286  0.4563  0.2432
19282TIP3    H179337   1.897   2.797  14.569  3.4585  2.0899  0.8065
19282TIP3    H279338   1.917   2.703  14.452 -0.4228  0.0411  1.6154
19283TIP3   OH279339   4.490   1.800   4.982  0.0880 -0.5113 -0.1025
19283TIP3    H179340   4.573   1.779   5.025  0.1210  0.2571  0.2292
19283TIP3    H279341   4.424   1.751   5.032  0.0973  0.5523  1.0055
19284TIP3   OH279342   2.479   4.668  15.330 -0.5648  0.1050  0.5915
19284TIP3    H179343   2.455   4.746  15.280  0.1152  0.0842  0.2151
19284TIP3    H279344   2.552   4.631  15.281 -0.3345 -0.2981  1.2389
19285TIP3   OH279345   5.125   5.539   1.044 -0.6158  0.3811  0.3704
19285TIP3    H179346   5.058   5.497   1.097  0.7325 -0.3738  1.5403
19285TIP3    H279347   5.168   5.467   0.998  0.5266  0.6419  0.9934
19286TIP3   OH279348   6.033   2.597  12.525  0.2566 -0.1405 -0.2471
19286TIP3    H179349   5.949   2.605  12.478  0.1238 -0.3971 -0.0523
19286TIP3    H279350   6.012   2.548  12.604  0.9224 -1.8045 -1.0554
19287TIP3   OH279351   5.565   0.177   4.821 -0.2003  0.3868 -0.2933
19287TIP3    H179352   5.607   0.094   4.844  0.2147  0.2004 -1.6475
19287TIP3    H279353   5.472   0.158   4.823 -0.1463  0.1687  0.4003
19288TIP3   OH279354   6.638   0.883   2.053  0.2188  0.1611  0.3919
19288TIP3    H179355   6.630   0.792   2.027  0.8017 -0.1361  1.2094
19288TIP3    H279356   6.683   0.926   1.980  1.6915 -0.6170  0.7999
19289TIP3   OH279357   2.210   6.333   4.271 -0.0969 -0.2246  0.1265
19289TIP3    H179358   2.193   6.240   4.261 -0.0572 -0.1923 -0.2691
19289TIP3    H279359   2.301   6.344   4.243  0.1079 -0.1687  0.8008
19290TIP3   OH279360   5.891   4.681  11.752 -0.4037 -0.2081 -0.2171
19290TIP3    H179361   5.913   4.708  11.663  0.6952 -1.4624 -0.3501
19290TIP3    H279362   5.904   4.759  11.805  0.9053  0.0384 -0.8606
19291TIP3   OH279363   5.939   0.024  11.739  0.6868 -0.4586  0.1812
19291TIP3    H179364   5.887  -0.018  11.670  0.3214 -0.0032  0.1795
19291TIP3    H279365   6.002   0.078  11.691  1.2171 -1.0632  0.1813
19292TIP3   OH279366   4.839   5.473  14.891  0.0532  0.5288  0.1300
19292TIP3    H179367   4.744   5.487  14.895 -0.1484 -0.6032 -0.4192
19292TIP3    H279368   4.849   5.384  14.857  1.3065  0.2855  1.0677
19293TIP3   OH279369   1.463   4.616  13.478 -0.0566 -0.0218  0.4105
19293TIP3    H179370   1.506   4.594  13.396  1.0092 -0.3868  1.0441
19293TIP3    H279371   1.388   4.557  13.481 -0.7343  0.7389 -0.7861
19294TIP3   OH279372   2.182   4.613   5.152  0.0430  0.9511 -0.2934
19294TIP3    H179373   2.108   4.563   5.187  0.8581 -0.7200 -0.8410
19294TIP3    H279374   2.185   4.588   5.059  1.4887  0.7131 -0.2006
19295TIP3   OH279375   3.611   4.333   1.595 -0.1329 -0.1449  0.0182
19295TIP3    H179376   3.660   4.269   1.647  3.7013  2.0979 -0.3891
19295TIP3    H279377   3.577   4.395   1.660 -1.0240 -0.7909  0.1902
19296TIP3   OH279378   4.230   2.332   2.082  0.7976 -0.4278  0.1982
19296TIP3    H179379   4.195   2.253   2.121 -0.0739 -0.2551 -0.2113
19296TIP3    H279380   4.161   2.398   2.093  1.4767  0.2619  0.4771
19297TIP3   OH279381   2.676   6.221  11.782 -0.1539  0.7958  0.6736
19297TIP3    H179382   2.616   6.223  11.857 -0.7751 -0.3917  0.2264
19297TIP3    H279383   2.762   6.239  11.820 -0.4500  0.1359  1.6852
19298TIP3   OH279384   3.119   0.065   4.396  0.1065  0.0450  0.2003
19298TIP3    H179385   3.182   0.078   4.326  1.6110  1.8525  1.7917
19298TIP3    H279386   3.048   0.126   4.377  0.6502  0.7416  0.3881
19299TIP3   OH279387   3.269   0.453   4.205  0.0474 -0.3628  0.1432
19299TIP3    H179388   3.349   0.505   4.215 -0.8662  1.2603 -0.5779
19299TIP3    H279389   3.206   0.513   4.164 -2.0239 -1.1193  2.0391
19300TIP3   OH279390   4.134   2.431   2.407  0.5311  0.4279 -0.3676
19300TIP3    H179391   4.156   2.486   2.331  1.2903  0.9840  0.2270
19300TIP3    H279392   4.199   2.361   2.404  0.5612  0.4508 -0.2378
19301TIP3   OH279393   4.786   3.640  13.194  0.3232 -0.5991  0.8013
19301TIP3    H179394   4.699   3.645  13.155  0.0674 -1.2142  1.2685
19301TIP3    H279395   4.845   3.670  13.126 -0.2570 -0.1872  0.4734
19302TIP3   OH279396   4.542   4.078   2.645  0.0930  0.2007  0.3721
19302TIP3    H179397   4.497   4.120   2.572  0.8127  0.6845  0.1908
19302TIP3    H279398   4.611   4.140   2.669  0.4274 -0.3547  0.8777
19303TIP3   OH279399   2.156   1.192  11.489 -0.1861  0.1244 -0.1177
19303TIP3    H179400   2.118   1.231  11.411 -1.4389  0.7504  0.7645
19303TIP3    H279401   2.246   1.227  11.492 -0.2659  0.4354 -1.0236
19304TIP3   OH279402   4.374   5.373   1.800  0.8129 -0.3688  0.3792
19304TIP3    H179403   4.419   5.446   1.841  0.4328  0.4979 -0.6947
19304TIP3    H279404   4.383   5.301   1.862  1.9189  0.3472  1.0767
19305TIP3   OH279405   4.292   2.871   3.520  0.0616 -0.2730  0.0301
19305TIP3    H179406   4.347   2.949   3.528 -1.2240  0.6650  0.0624
19305TIP3    H279407   4.303   2.825   3.604  0.2034  0.3019  0.3302
19306TIP3   OH279408   4.166   1.225   3.126 -0.7742 -0.3184 -0.2674
19306TIP3    H179409   4.156   1.229   3.222  1.4516 -0.5238  0.0108
19306TIP3    H279410   4.229   1.295   3.106 -0.7265 -0.7041 -1.5098
19307TIP3   OH279411   6.041   0.842   0.205  0.4848  0.1055 -0.5813
19307TIP3    H179412   6.103   0.773   0.230 -0.7308 -0.5798  0.6774
19307TIP3    H279413   6.093   0.923   0.212  0.8610 -0.2520  2.2224
19308TIP3   OH279414   5.989   3.500  14.771  0.1353 -0.1938  0.2600
19308TIP3    H179415   5.942   3.527  14.692  0.9677 -2.3187 -1.0761
19308TIP3    H279416   5.928   3.441  14.816 -0.3710  1.0835  1.2987
19309TIP3   OH279417   1.565   0.192  16.765 -0.8117 -0.0651 -0.4229
19309TIP3    H179418   1.583   0.285  16.753  2.8012 -0.4839  0.7694
19309TIP3    H279419   1.546   0.183  16.859  1.3297 -0.7599  0.0024
19310TIP3   OH279420   2.946   4.389  11.911  0.1827 -0.4194 -0.2476
19310TIP3    H179421   2.958   4.418  12.002 -2.3291  0.1550 -0.0230
19310TIP3    H279422   2.987   4.458  11.859  0.5966 -0.1346  0.4329
19311TIP3   OH279423   5.483   1.598  16.399  0.0854  0.6525 -0.4608
19311TIP3    H179424   5.569   1.636  16.378  0.0892  0.1161 -1.5072
19311TIP3    H279425   5.430   1.619  16.322 -1.0457  1.8839  0.6049
19312TIP3   OH279426   6.533   3.425   5.592  0.0407  0.2202 -0.0795
19312TIP3    H179427   6.455   3.456   5.639  0.7660  0.9871  0.6607
19312TIP3    H279428   6.605   3.441   5.653  0.8117 -0.2294 -0.8586
19313TIP3   OH279429   3.956   1.788   1.317 -0.1336  0.1978 -1.1816
19313TIP3    H179430   3.921   1.719   1.262 -1.9670  1.7047 -2.0164
19313TIP3    H279431   4.023   1.830   1.263 -0.1141  0.0629 -1.2628
19314TIP3   OH279432   2.865   1.429   6.863 -0.3172  0.2574 -0.7645
19314TIP3    H179433   2.809   1.504   6.846  1.6040  2.2014  0.7921
19314TIP3    H279434   2.923   1.423   6.787 -0.4334  0.4052 -0.8625
19315TIP3   OH279435   2.234   4.188   6.257  0.4075  0.2328 -0.4496
19315TIP3    H179436   2.155   4.224   6.298  0.5065 -1.1370  1.0229
19315TIP3    H279437   2.284   4.150   6.330  1.5516 -0.5359 -1.5937
19316TIP3   OH279438   4.613   4.224  14.082 -0.0405  0.2046 -0.1665
19316TIP3    H179439   4.585   4.232  14.173  0.9704  0.2543  0.1560
19316TIP3    H279440   4.618   4.314  14.050  1.1550  0.2911  0.2304
19317TIP3   OH279441   4.085   3.907  14.956  0.2871 -0.1730 -0.1069
19317TIP3    H179442   3.996   3.943  14.961 -0.2815 -1.5126 -0.2203
19317TIP3    H279443   4.087   3.861  14.872  1.1530 -0.0164 -0.1803
19318TIP3   OH279444   6.611   2.403   3.878  0.2235  0.3590 -0.3136
19318TIP3    H179445   6.622   2.411   3.783 -1.4427  0.1249 -0.5541
19318TIP3    H279446   6.693   2.363   3.908  0.2289 -0.8871 -1.8463
19319TIP3   OH279447   5.192   1.106  14.077 -0.2122  0.5034  0.2368
19319TIP3    H179448   5.278   1.147  14.089 -0.1832  0.2623  0.8600
19319TIP3    H279449   5.178   1.056  14.157  0.3465 -1.8149 -1.0095
19320TIP3   OH279450   3.637   1.374   4.749 -0.0766 -0.1578 -0.3000
19320TIP3    H179451   3.727   1.376   4.780  0.3015  1.6386 -1.4050
19320TIP3    H279452   3.620   1.281   4.731  1.6498 -0.4791 -0.4233
19321TIP3   OH279453   1.488   5.553  16.053  0.1487 -0.6521  0.0046
19321TIP3    H179454   1.465   5.509  15.971  0.4746 -1.3510  0.2807
19321TIP3    H279455   1.421   5.620  16.064 -0.2981 -1.0174 -0.4741
19322TIP3   OH279456   3.132   4.156   0.089 -0.0116 -0.1256  0.1295
19322TIP3    H179457   3.189   4.222   0.129  0.9559 -1.2777  0.7027
19322TIP3    H279458   3.100   4.198   0.009  1.5672  0.5962 -0.1561
19323TIP3   OH279459   2.884   6.450  17.029 -0.0705 -0.1165 -0.4562
19323TIP3    H179460   2.847   6.390  17.094  1.2618 -0.9293 -0.4142
19323TIP3    H279461   2.930   6.515  17.081  0.8843 -0.6909 -0.5731
19324TIP3   OH279462   0.901   1.442   3.349 -0.5469 -0.1035  0.6077
19324TIP3    H179463   0.916   1.415   3.259  0.7599 -1.2853  1.1388
19324TIP3    H279464   0.827   1.389   3.378 -1.8291  1.2274 -0.1399
19325TIP3   OH279465   3.591   6.642  12.965 -0.1811  0.9878 -0.0259
19325TIP3    H179466   3.566   6.585  13.038  1.1761 -0.6027 -0.7427
19325TIP3    H279467   3.643   6.711  13.006  0.8064 -0.0404  0.5191
19326TIP3   OH279468   3.912   5.133   4.431  0.0972  0.0201 -0.0634
19326TIP3    H179469   3.837   5.171   4.385 -1.2184 -1.0703  1.1016
19326TIP3    H279470   3.947   5.069   4.369 -1.4288 -1.1644  0.2427
19327TIP3   OH279471   3.756   3.199   6.271  0.1835  0.3051  0.8300
19327TIP3    H179472   3.699   3.150   6.211  0.8007 -0.4926  0.8841
19327TIP3    H279473   3.746   3.291   6.244 -0.5268  0.0896  0.3379
19328TIP3   OH279474   6.515   6.232  16.474  0.1286  0.4661 -0.6332
19328TIP3    H179475   6.502   6.142  16.444 -0.6314  0.6264 -0.7827
19328TIP3    H279476   6.602   6.255  16.440  0.2478 -0.1385 -0.7633
19329TIP3   OH279477   5.096   3.759   5.096 -0.1000  0.3240 -0.0426
19329TIP3    H179478   5.010   3.719   5.083  0.5845 -1.5087  0.8054
19329TIP3    H279479   5.080   3.853   5.086 -2.5826  0.2135  1.9506
19330TIP3   OH279480   5.189   1.594  14.154  0.4749 -0.0082 -0.0454
19330TIP3    H179481   5.184   1.614  14.060 -0.2738  1.7178  0.3209
19330TIP3    H279482   5.097   1.579  14.179  0.7583 -1.3695  0.2570
19331TIP3   OH279483   4.009   4.118  13.319  0.0093 -0.4452 -0.3215
19331TIP3    H179484   3.962   4.167  13.387 -0.8179 -1.3098 -0.2533
19331TIP3    H279485   4.044   4.042  13.365  0.3162 -0.5059 -0.6584
19332TIP3   OH279486   3.957   3.542   3.040 -0.4235  0.1220  0.3535
19332TIP3    H179487   3.956   3.458   3.085  1.1880 -0.1554 -0.0753
19332TIP3    H279488   4.031   3.589   3.078  1.1197 -0.1990 -2.0391
19333TIP3   OH279489   4.254   6.127   3.832 -0.3958  0.1247 -0.3608
19333TIP3    H179490   4.272   6.042   3.791  0.1337  0.2762 -0.4559
19333TIP3    H279491   4.194   6.171   3.773  1.0531  0.7087 -1.4794
19334TIP3   OH279492   2.024   3.786  12.207 -0.0797  0.2893  0.4524
19334TIP3    H179493   2.115   3.806  12.227  0.1457 -0.6798  0.4066
19334TIP3    H279494   1.975   3.860  12.244  0.7679  1.1747 -0.1368
19335TIP3   OH279495   2.266   6.185   0.383 -0.2094 -0.0566 -0.5782
19335TIP3    H179496   2.313   6.160   0.303  2.4568  1.4375  0.4025
19335TIP3    H279497   2.244   6.277   0.370 -1.7917 -0.3798 -0.4459
19336TIP3   OH279498   4.913   3.296   4.585 -0.1733 -0.0898 -0.0282
19336TIP3    H179499   4.933   3.234   4.514  1.1166  2.6815 -2.2972
19336TIP3    H279500   4.818   3.296   4.591 -0.3067 -0.5515 -1.6626
19337TIP3   OH279501   3.206   4.193  10.732  0.5558  0.0908  0.4104
19337TIP3    H179502   3.142   4.248  10.778  1.2732  0.0449  1.4856
19337TIP3    H279503   3.229   4.125  10.795  0.1281 -1.1278 -0.6960
19338TIP3   OH279504   5.388   1.159   3.853 -0.3026 -0.0072  0.5744
19338TIP3    H179505   5.420   1.243   3.821 -1.0035  0.2404  0.5224
19338TIP3    H279506   5.327   1.129   3.786  0.1626 -0.7040  0.4480
19339TIP3   OH279507   0.128   2.630   2.693 -0.3383  0.1566 -0.3081
19339TIP3    H179508   0.094   2.557   2.642  2.5041 -1.9497  0.5244
19339TIP3    H279509   0.156   2.694   2.628  0.8590 -1.3439 -1.3254
19340TIP3   OH279510   6.213   4.779   3.669 -0.5434  0.0940  0.0209
19340TIP3    H179511   6.222   4.772   3.764 -1.0127  0.1845  0.0739
19340TIP3    H279512   6.163   4.859   3.656 -1.1512 -0.3250 -0.2652
19341TIP3   OH279513   1.673   3.866  12.424  0.0753  0.0450  0.4098
19341TIP3    H179514   1.604   3.801  12.441  0.4558  0.0773  2.2893
19341TIP3    H279515   1.625   3.947  12.404 -0.4013 -0.6343 -1.4257
19342TIP3   OH279516   4.164   0.476   2.910 -0.4388 -0.6576 -0.0218
19342TIP3    H179517   4.193   0.466   2.819 -0.1774  0.0794 -0.0268
19342TIP3    H279518   4.141   0.568   2.917 -1.0952 -0.8589  0.4830
19343TIP3   OH279519   6.011   4.345  10.476 -0.5297 -0.3369  0.4774
19343TIP3    H179520   5.951   4.407  10.516 -0.8539  0.4589 -1.1610
19343TIP3    H279521   6.052   4.394  10.404  1.0914 -1.2648  0.7214
19344TIP3   OH279522   1.433   3.131   1.123 -1.1855 -0.2895 -0.5613
19344TIP3    H179523   1.493   3.158   1.193 -0.1907  0.3722 -1.6373
19344TIP3    H279524   1.471   3.050   1.090 -2.8282 -1.8000  1.0316
19345TIP3   OH279525   3.614   1.551   0.357  0.5218 -0.0530 -0.3865
19345TIP3    H179526   3.652   1.626   0.312  1.8116  1.0164  2.2742
19345TIP3    H279527   3.686   1.514   0.409 -0.5648 -1.9540 -0.1189
19346TIP3   OH279528   6.086   3.941   4.207 -0.2745  0.6360  0.2175
19346TIP3    H179529   6.114   3.900   4.289 -0.5716  1.6773  0.8686
19346TIP3    H279530   6.021   3.881   4.171  1.1515 -0.7161 -0.1845
19347TIP3   OH279531   3.560   3.524   1.178  0.1614  0.1522 -0.0010
19347TIP3    H179532   3.512   3.531   1.095 -0.0432 -0.5527  0.0530
19347TIP3    H279533   3.519   3.590   1.235  0.7172  1.0811 -0.6483
19348TIP3   OH279534   0.792   2.504  13.312  0.0958  0.1402  0.4524
19348TIP3    H179535   0.887   2.509  13.325  0.0790  2.5326  0.2155
19348TIP3    H279536   0.762   2.593  13.328 -1.7358  0.0963 -2.1078
19349TIP3   OH279537   6.347   1.492   4.272 -0.2568  1.0803  0.8888
19349TIP3    H179538   6.278   1.471   4.208  2.3446 -0.3308 -1.6701
19349TIP3    H279539   6.323   1.440   4.349 -1.2119 -0.7659 -0.5403
19350TIP3   OH279540   0.983   1.278   0.634  0.7532 -0.5831 -0.5216
19350TIP3    H179541   0.918   1.312   0.696  2.6715 -0.7583  1.7234
19350TIP3    H279542   1.064   1.324   0.656  2.4051 -3.3302 -0.3141
19351TIP3   OH279543   4.254   1.465   0.825  0.1788  0.5730 -0.0850
19351TIP3    H179544   4.196   1.539   0.843 -1.6150 -0.3365 -1.6882
19351TIP3    H279545   4.199   1.403   0.777  2.0625 -1.1016 -0.2170
19352TIP3   OH279546   3.038   1.641  14.677  0.3250 -0.1352  0.5147
19352TIP3    H179547   3.121   1.683  14.700 -0.1088  1.0821 -0.0262
19352TIP3    H279548   2.973   1.685  14.733 -0.2991  0.7450 -0.8454
19353TIP3   OH279549   0.433   0.730  11.666  0.4486 -0.2922 -0.1112
19353TIP3    H179550   0.374   0.657  11.686 -1.8312  1.0360 -1.5770
19353TIP3    H279551   0.418   0.793  11.736  1.0358 -0.4276  0.1436
19354TIP3   OH279552   1.357   6.388  16.113  1.0678 -0.2510 -0.1838
19354TIP3    H179553   1.396   6.410  16.028  0.2183 -0.4592 -0.6477
19354TIP3    H279554   1.431   6.366  16.169  1.7088  0.7176 -0.6158
19355TIP3   OH279555   2.783   6.411   1.963 -0.0866 -0.2301  0.1040
19355TIP3    H179556   2.788   6.505   1.980  0.7281  0.1701 -1.9588
19355TIP3    H279557   2.721   6.403   1.890  0.7554 -1.1250 -0.5487
19356TIP3   OH279558   3.698   1.897  13.128  0.3420  0.0989 -0.4341
19356TIP3    H179559   3.705   1.824  13.190  1.6007 -0.8023 -1.5719
19356TIP3    H279560   3.635   1.957  13.168  0.8119 -0.6316  1.5017
19357TIP3   OH279561   4.369   3.435  13.245  0.2097  0.3477 -0.0835
19357TIP3    H179562   4.373   3.501  13.176  0.3288 -0.4816 -0.8822
19357TIP3    H279563   4.380   3.351  13.200 -0.0603 -0.2389  0.8945
19358TIP3   OH279564   0.702   5.981   5.067  0.2741  0.5367 -0.5883
19358TIP3    H179565   0.610   5.965   5.089  0.1194  0.5538 -1.2185
19358TIP3    H279566   0.714   6.075   5.080  0.6896  0.2606  1.2760
19359TIP3   OH279567   3.779   6.668   3.974  0.0276 -0.5288  0.3338
19359TIP3    H179568   3.874   6.681   3.972 -0.1068  0.3958 -1.3345
19359TIP3    H279569   3.748   6.726   4.043  0.5825 -0.2140  0.3241
19360TIP3   OH279570   5.067   4.652  12.677  0.3657 -0.2556 -0.0892
19360TIP3    H179571   5.055   4.704  12.756  1.5024  0.2651 -0.2464
19360TIP3    H279572   5.001   4.583  12.683  0.7004 -0.4551  1.5002
19361TIP3   OH279573   3.569   6.215   6.212  0.3391 -0.3549  0.2172
19361TIP3    H179574   3.640   6.260   6.257 -0.6300  1.2982  0.1776
19361TIP3    H279575   3.494   6.225   6.271  0.1751 -2.3779  0.4303
19362TIP3   OH279576   3.815   2.727   5.702 -0.2785  0.0844  0.4788
19362TIP3    H179577   3.778   2.726   5.790 -0.5034  1.1361  0.4094
19362TIP3    H279578   3.745   2.762   5.647 -0.3385 -1.0944 -0.2313
19363TIP3   OH279579   4.868   3.898   3.119 -0.8872 -0.1018 -0.1386
19363TIP3    H179580   4.914   3.922   3.200  0.8569 -2.1481 -0.4176
19363TIP3    H279581   4.798   3.962   3.111  1.3352  2.6602  0.8405
19364TIP3   OH279582   3.771   3.771  13.889 -0.2670 -0.1858 -0.0497
19364TIP3    H179583   3.682   3.765  13.923 -0.2052 -0.7262  0.0312
19364TIP3    H279584   3.784   3.689  13.841  0.7449 -0.8889  1.3460
19365TIP3   OH279585   2.475   4.104   6.428  0.6454 -0.1103 -0.2918
19365TIP3    H179586   2.511   4.023   6.462  1.4471 -0.1039 -1.0691
19365TIP3    H279587   2.552   4.159   6.412  0.2459  0.1672 -1.3404
19366TIP3   OH279588   1.542   3.783   3.652  0.2005  0.1891  0.2623
19366TIP3    H179589   1.461   3.825   3.623  0.6360  0.3674 -0.7273
19366TIP3    H279590   1.607   3.807   3.585  1.2531  0.6505  1.4031
19367TIP3   OH279591   6.115   6.348   3.925 -0.2549  0.5465 -0.2616
19367TIP3    H179592   6.142   6.344   4.017 -1.2312 -0.2031  0.0141
19367TIP3    H279593   6.024   6.316   3.925 -0.8291  2.0574 -1.2693
19368TIP3   OH279594   3.814   5.201   6.290 -0.3493  0.2561 -0.5332
19368TIP3    H179595   3.759   5.272   6.322 -1.7449 -0.4242 -1.3210
19368TIP3    H279596   3.817   5.138   6.362  0.1855  0.7157 -0.1478
19369TIP3   OH279597   1.745   4.964   3.337 -0.0456 -0.2446  0.6532
19369TIP3    H179598   1.790   4.932   3.259 -1.2193 -0.6061  0.1051
19369TIP3    H279599   1.747   4.889   3.398  1.3079  0.1995  1.1851
19370TIP3   OH279600   2.014   1.450   3.106  0.2147  0.3178 -0.1164
19370TIP3    H179601   1.965   1.430   3.026 -0.3651  1.3030 -0.0324
19370TIP3    H279602   1.992   1.379   3.166  0.2268 -0.1447 -0.6599
19371TIP3   OH279603   3.544   4.384   1.962 -0.5358 -0.5496 -0.5376
19371TIP3    H179604   3.526   4.299   1.922 -0.3199  0.2257 -2.3745
19371TIP3    H279605   3.458   4.425   1.971 -0.4076  0.2076 -2.4504
19372TIP3   OH279606   2.231   2.941  13.204 -0.2686  0.2461  0.0546
19372TIP3    H179607   2.188   2.856  13.212 -0.5487  0.4981  1.5837
19372TIP3    H279608   2.259   2.962  13.293  1.5220  0.8849 -0.6240
19373TIP3   OH279609   6.290   0.989   2.713 -0.2449  0.5248  0.1011
19373TIP3    H179610   6.307   0.896   2.730 -0.4847  0.4705  0.0517
19373TIP3    H279611   6.350   1.036   2.770 -0.9303  0.3490  0.9770
19374TIP3   OH279612   5.779   6.271   0.096  0.3215 -0.4434 -0.3384
19374TIP3    H179613   5.866   6.231   0.099  0.2586 -0.5580  0.0065
19374TIP3    H279614   5.721   6.199   0.068  0.0115 -0.9558  1.5158
19375TIP3   OH279615   1.754   1.865   3.465 -0.1187  0.2985  0.2846
19375TIP3    H179616   1.686   1.923   3.499 -0.1735 -0.0084  0.7086
19375TIP3    H279617   1.803   1.837   3.542  0.2081  0.1643  0.0302
19376TIP3   OH279618   5.467   2.146  15.611 -0.0669  0.6266  0.0030
19376TIP3    H179619   5.561   2.135  15.626  0.0730  0.2418 -1.0995
19376TIP3    H279620   5.453   2.115  15.522 -1.1476  1.2466 -0.0559
19377TIP3   OH279621   6.243   6.364  14.326  0.2782 -0.1021  0.1113
19377TIP3    H179622   6.276   6.347  14.415  0.9145  0.5091 -0.0036
19377TIP3    H279623   6.318   6.349  14.269 -0.0045 -0.0332 -0.2837
19378TIP3   OH279624   0.489   5.283  13.814 -0.3476 -0.6465  0.4415
19378TIP3    H179625   0.395   5.276  13.795 -0.0406 -0.8464 -1.1753
19378TIP3    H279626   0.504   5.219  13.884 -1.2992 -1.1346  0.2237
19379TIP3   OH279627   3.693   5.819   3.365 -0.7392 -0.1265 -0.2184
19379TIP3    H179628   3.749   5.779   3.298 -0.0753 -0.2255  0.3871
19379TIP3    H279629   3.626   5.753   3.383 -0.3461 -0.4958 -0.0866
19380TIP3   OH279630   2.431   2.087   5.954  0.4089  0.3033  0.4872
19380TIP3    H179631   2.395   2.082   6.043 -0.1782 -1.9735  0.1783
19380TIP3    H279632   2.513   2.038   5.958  0.6817  0.7043 -0.0906
19381TIP3   OH279633   4.419   1.527   1.326  0.0720 -0.5337 -0.2802
19381TIP3    H179634   4.424   1.517   1.231  2.4676  0.4547 -0.3489
19381TIP3    H279635   4.346   1.587   1.341 -0.0956 -0.4079 -1.5347
19382TIP3   OH279636   5.157   2.297   5.260 -0.3624 -0.2638 -0.2762
19382TIP3    H179637   5.062   2.296   5.270 -0.1419  0.2547  4.4465
19382TIP3    H279638   5.178   2.219   5.209 -3.2535 -1.4524  0.1999
19383TIP3   OH279639   2.137   0.504   4.183  0.3008  0.1648 -0.2820
19383TIP3    H179640   2.125   0.424   4.132  2.0247  0.5264 -1.3595
19383TIP3    H279641   2.081   0.493   4.260 -1.8717 -0.6952 -1.9090
19384TIP3   OH279642   3.787   5.945   5.438  0.2858 -0.0573 -0.3707
19384TIP3    H179643   3.779   6.040   5.445  0.4139  0.0089 -1.0263
19384TIP3    H279644   3.807   5.916   5.527  0.4533  0.5519 -0.2016
19385TIP3   OH279645   6.777   0.856  12.127  0.0148 -0.7208  0.2960
19385TIP3    H179646   6.699   0.818  12.086  1.0885 -1.1120 -1.4995
19385TIP3    H279647   6.825   0.780  12.161  0.3572 -0.6387  0.0059
19386TIP3   OH279648   0.523   6.539   2.943 -0.5452 -0.7533  0.5742
19386TIP3    H179649   0.538   6.470   2.878  0.8427  0.8017 -0.8792
19386TIP3    H279650   0.447   6.586   2.910  0.3816  0.2617 -0.1785
19387TIP3   OH279651   0.588   1.130  11.945  0.2620 -0.1473  0.0818
19387TIP3    H179652   0.505   1.165  11.977  0.3660  1.3881 -1.1938
19387TIP3    H279653   0.628   1.203  11.899  1.0379 -1.6491 -1.7462
19388TIP3   OH279654   6.734   1.328  12.530 -0.0085  0.0869  0.4800
19388TIP3    H179655   6.780   1.319  12.446  1.3825  1.6907  1.0124
19388TIP3    H279656   6.650   1.366  12.507 -0.2013 -0.7899 -0.3160
19389TIP3   OH279657   3.516   0.744  11.177  0.4877  0.1087 -0.1220
19389TIP3    H179658   3.571   0.677  11.135 -0.2648 -0.5929 -0.0288
19389TIP3    H279659   3.463   0.779  11.105  0.2746 -0.0055 -0.0192
19390TIP3   OH279660   2.632   0.933   5.966  0.1207 -0.0250 -0.1748
19390TIP3    H179661   2.629   0.957   6.059  0.0527  2.4484 -0.7355
19390TIP3    H279662   2.592   0.846   5.963  0.0385 -0.1416  2.0883
19391TIP3   OH279663   1.638   2.583   3.236 -0.1575 -0.3358  0.0330
19391TIP3    H179664   1.680   2.517   3.291  0.4884  0.4295  0.4721
19391TIP3    H279665   1.710   2.639   3.207 -0.6575 -0.0181 -0.6128
19392TIP3   OH279666   6.333   5.240  12.380 -0.0497  0.1084  0.3486
19392TIP3    H179667   6.298   5.158  12.415  0.8494 -0.2702  0.3840
19392TIP3    H279668   6.425   5.222  12.365 -0.0973  0.7363 -0.7962
19393TIP3   OH279669   4.412   6.344  11.725 -0.3952  0.2067 -0.1066
19393TIP3    H179670   4.456   6.342  11.640  0.0411  1.4321  0.0681
19393TIP3    H279671   4.467   6.400  11.780  0.0368 -1.5650  1.4134
19394TIP3   OH279672   5.924   5.366  17.075  0.4836 -0.3000  0.2351
19394TIP3    H179673   5.944   5.300  17.141 -1.1605 -0.1752  0.9048
19394TIP3    H279674   5.963   5.447  17.108  2.6372 -0.9174 -0.6638
19395TIP3   OH279675   6.641   1.864   4.273  0.2573 -0.4756 -0.5926
19395TIP3    H179676   6.606   1.814   4.347  0.7357 -0.1298 -0.1224
19395TIP3    H279677   6.710   1.809   4.237  0.0078 -0.6549 -0.8021
19396TIP3   OH279678   1.057   3.555   4.829 -0.1759  0.1099  0.2120
19396TIP3    H179679   1.059   3.505   4.911  2.9527  0.1582  0.2926
19396TIP3    H279680   1.117   3.628   4.844 -0.1377  0.5578 -1.8566
19397TIP3   OH279681   4.523   3.527   1.107 -0.0276  0.1401 -0.1921
19397TIP3    H179682   4.603   3.479   1.088  0.8440  1.4304  0.1089
19397TIP3    H279683   4.500   3.502   1.196  0.0936 -0.1566 -0.2425
19398TIP3   OH279684   2.799   0.106   3.859  0.4769 -0.6680 -0.1357
19398TIP3    H179685   2.771   0.187   3.817  1.0140 -0.3885  0.0342
19398TIP3    H279686   2.830   0.051   3.786 -0.0350 -0.7889 -0.2675
19399TIP3   OH279687   3.703   0.104   1.073 -0.2281 -0.0540  0.6821
19399TIP3    H179688   3.712   0.199   1.069  0.0877 -0.0959  0.2961
19399TIP3    H279689   3.770   0.071   1.012 -2.4908 -0.4166 -1.8077
19400TIP3   OH279690   4.461   1.976   5.530 -0.7780  0.3451  0.1880
19400TIP3    H179691   4.455   2.059   5.483  0.1065 -0.6995 -1.9382
19400TIP3    H279692   4.431   1.911   5.466 -0.4998 -1.0843  1.4515
19401TIP3   OH279693   2.520   2.211   3.457  0.1821 -0.5623 -0.5937
19401TIP3    H179694   2.506   2.248   3.369 -1.4761  0.2058 -0.0564
19401TIP3    H279695   2.432   2.204   3.494  0.8161 -1.3332  0.8374
19402TIP3   OH279696   3.178   2.682   4.195 -0.0143 -0.3479 -0.0500
19402TIP3    H179697   3.146   2.770   4.176 -0.5276 -0.5311 -0.0516
19402TIP3    H279698   3.114   2.624   4.154  0.4827 -0.7237 -0.3113
19403TIP3   OH279699   5.385   3.830   3.545 -0.8532  0.0460  0.0033
19403TIP3    H179700   5.296   3.829   3.511 -0.8827 -0.2535  0.0836
19403TIP3    H279701   5.435   3.878   3.479 -1.5897  2.7852  1.3109
19404TIP3   OH279702   3.747   2.840  12.141  0.3629 -0.4293  0.6796
19404TIP3    H179703   3.800   2.799  12.210  0.8053 -1.3091 -0.1589
19404TIP3    H279704   3.683   2.892  12.189  1.1252 -0.4266  1.7478
19405TIP3   OH279705   2.555   4.007   3.698  0.3872 -0.3639  0.0283
19405TIP3    H179706   2.603   4.065   3.756 -1.0977  0.5811  0.3599
19405TIP3    H279707   2.623   3.958   3.651  1.6544  0.9476  0.4320
19406TIP3   OH279708   5.541   0.676  15.247  0.0870 -0.6636  0.1195
19406TIP3    H179709   5.467   0.695  15.305 -0.5158 -0.5082 -0.6743
19406TIP3    H279710   5.500   0.646  15.166  0.9559 -2.4555  0.3136
19407TIP3   OH279711   4.781   1.358   3.654 -0.4003  0.2555 -0.4023
19407TIP3    H179712   4.842   1.426   3.686 -0.2207  0.4615 -1.1581
19407TIP3    H279713   4.696   1.383   3.691 -0.1657  0.3922  0.0511
19408TIP3   OH279714   5.422   4.610  11.226 -0.7405  0.0741  0.3595
19408TIP3    H179715   5.385   4.635  11.141  0.1689 -1.4545 -0.5445
19408TIP3    H279716   5.402   4.517  11.234  2.3572 -0.7429  0.0304
19409TIP3   OH279717   2.322   2.237   4.254  0.4584  0.4560 -0.1060
19409TIP3    H179718   2.353   2.324   4.282  0.6880  1.2202 -2.5102
19409TIP3    H279719   2.392   2.204   4.198 -0.0080 -0.9453  0.0993
19410TIP3   OH279720   2.129   2.963  11.218  0.0818  0.2013 -0.2193
19410TIP3    H179721   2.202   2.985  11.159  0.0860 -0.0937 -0.3261
19410TIP3    H279722   2.058   2.938  11.159 -0.1375  0.5691 -0.1178
19411TIP3   OH279723   4.646   2.855   4.806 -0.2853  0.2635 -0.4268
19411TIP3    H179724   4.568   2.823   4.852  1.3260 -0.8087  1.7601
19411TIP3    H279725   4.697   2.776   4.787  0.1555  0.9074 -2.1543
19412TIP3   OH279726   0.785   3.224   5.325  0.0183 -0.6281 -0.4258
19412TIP3    H179727   0.793   3.295   5.389  2.1232 -0.6591 -0.6149
19412TIP3    H279728   0.764   3.146   5.377 -3.3073  0.1856 -0.2934
19413TIP3   OH279729   2.956   6.372   4.678  0.4527  0.5094 -0.0706
19413TIP3    H179730   2.879   6.349   4.730  1.1406  1.6801  1.5645
19413TIP3    H279731   2.922   6.390   4.590 -0.9644 -0.1219  0.3208
19414TIP3   OH279732   4.748   0.097  13.895  0.1541 -0.6181 -0.2881
19414TIP3    H179733   4.807   0.102  13.970 -1.8766 -0.2622  1.3871
19414TIP3    H279734   4.771   0.014  13.852  0.8069 -1.2718  1.2431
19415TIP3   OH279735   6.285   1.846  16.698  0.2467  0.2358  0.0385
19415TIP3    H179736   6.324   1.878  16.617  0.2677 -0.3249 -0.1730
19415TIP3    H279737   6.254   1.926  16.742 -0.7476  0.4706 -1.0308
19416TIP3   OH279738   6.220   4.686  14.000 -0.0916  0.0711 -0.1816
19416TIP3    H179739   6.258   4.602  13.972  0.0725 -0.4021  1.3588
19416TIP3    H279740   6.142   4.662  14.050  0.3985  0.7712  0.9675
19417TIP3   OH279741   1.451   2.994  14.701 -0.3108 -0.0186 -0.2421
19417TIP3    H179742   1.542   3.023  14.708 -0.4604  0.7698 -1.2996
19417TIP3    H279743   1.437   2.982  14.607 -1.2092 -0.4276 -0.0620
19418TIP3   OH279744   1.580   3.667   6.305 -0.2994  0.3482 -0.3928
19418TIP3    H179745   1.672   3.653   6.284  0.1712  1.2642  0.9292
19418TIP3    H279746   1.536   3.674   6.220  0.8227 -0.2455 -1.0307
19419TIP3   OH279747   2.051   1.477   5.170 -0.3898 -0.1457  0.3343
19419TIP3    H179748   2.050   1.506   5.079 -2.2678 -2.1004 -0.3572
19419TIP3    H279749   1.999   1.541   5.218  0.9139  1.0952  0.1578
19420TIP3   OH279750   1.254   5.855   0.587  0.2897 -0.0146  0.6223
19420TIP3    H179751   1.181   5.916   0.591 -1.0017 -1.4320 -0.3180
19420TIP3    H279752   1.309   5.880   0.661 -1.0561  1.1968  1.2725
19421TIP3   OH279753   0.795   0.080   1.307  0.5770 -0.5345 -0.3607
19421TIP3    H179754   0.808   0.001   1.359  0.8542 -0.7526 -0.7622
19421TIP3    H279755   0.850   0.146   1.350  0.8355 -0.7246 -0.3957
19422TIP3   OH279756   4.901   4.571   3.558 -0.6828  0.9615 -0.3007
19422TIP3    H179757   4.927   4.660   3.538 -0.7678  0.7779 -1.2789
19422TIP3    H279758   4.820   4.558   3.510 -1.2559  0.6993  0.7006
19423TIP3   OH279759   3.096   0.099  14.112 -0.3263  0.1712  0.4333
19423TIP3    H179760   3.190   0.107  14.129  0.2124 -1.1838 -1.5026
19423TIP3    H279761   3.070   0.019  14.157 -0.4615  0.3508  0.6714
19424TIP3   OH279762   0.010   0.745  15.424  0.1784 -0.1771 -0.0054
19424TIP3    H179763  -0.082   0.770  15.421  0.3052  0.7103  1.9785
19424TIP3    H279764   0.009   0.650  15.432 -0.5790 -0.1668  0.1232
19425TIP3   OH279765   0.572   5.999   2.134 -0.0009  0.0923  0.1263
19425TIP3    H179766   0.662   6.026   2.150 -0.0374  0.6268 -0.5444
19425TIP3    H279767   0.562   6.003   2.039 -0.4283 -0.9496  0.1173
19426TIP3   OH279768   4.753   0.338  16.506 -0.3206 -0.1079  0.0653
19426TIP3    H179769   4.682   0.275  16.493 -1.2683  1.1172 -1.0098
19426TIP3    H279770   4.765   0.342  16.601 -0.0736 -2.0355  0.1576
19427TIP3   OH279771   6.658   2.517  12.599 -0.1008  1.0169 -0.0669
19427TIP3    H179772   6.742   2.473  12.589 -0.7530 -1.3352  3.0971
19427TIP3    H279773   6.679   2.606  12.625  1.5288  0.1293  1.9000
19428TIP3   OH279774   5.411   5.482   5.515  0.1669  0.9397  0.1630
19428TIP3    H179775   5.405   5.455   5.424 -0.8201 -1.7827  0.9518
19428TIP3    H279776   5.490   5.439   5.548 -1.0714 -0.5931  1.2858
19429TIP3   OH279777   4.385   6.767   1.339 -0.2766 -0.5453 -0.6006
19429TIP3    H179778   4.322   6.798   1.274  1.1299 -0.2058 -1.8563
19429TIP3    H279779   4.338   6.699   1.388 -1.3095 -0.9820 -2.1316
19430TIP3   OH279780   0.468   6.477   4.996 -0.0289 -0.0452  0.3591
19430TIP3    H179781   0.426   6.434   5.070  0.1168 -0.8347 -0.0094
19430TIP3    H279782   0.421   6.446   4.919  0.5751 -0.1558  0.0243
19431TIP3   OH279783   3.147   4.878   1.434 -0.5970 -0.1022 -0.2568
19431TIP3    H179784   3.218   4.837   1.383  0.2135  0.2304  0.5816
19431TIP3    H279785   3.098   4.804   1.469 -1.9954 -0.3778 -2.5621
19432TIP3   OH279786   6.503   1.252  11.562  0.0210  0.6016  0.2295
19432TIP3    H179787   6.482   1.159  11.574  3.0822 -0.1912  0.4619
19432TIP3    H279788   6.544   1.256  11.475 -0.4545  1.8470  0.0417
19433TIP3   OH279789   3.078   0.038   3.141 -0.4433  0.1570 -0.4593
19433TIP3    H179790   3.093   0.132   3.150  0.5026 -0.1347  1.7813
19433TIP3    H279791   2.999   0.030   3.087  0.6011  2.1463 -2.3931
19434TIP3   OH279792   1.814   1.132  17.144  0.0199  0.9039  0.5174
19434TIP3    H179793   1.863   1.050  17.152 -1.4578 -0.0834 -0.1346
19434TIP3    H279794   1.852   1.176  17.068 -0.5436 -0.1847 -0.4194
19435TIP3   OH279795   6.355   5.416   3.602 -0.4843  0.0957  0.2477
19435TIP3    H179796   6.314   5.360   3.666 -0.9061  0.2497  0.1130
19435TIP3    H279797   6.321   5.386   3.518  1.8035 -1.6526 -0.1617
19436TIP3   OH279798   5.356   0.417   0.686  0.0112  0.1585  0.5430
19436TIP3    H179799   5.340   0.511   0.682  1.5977  0.6145  2.8428
19436TIP3    H279800   5.450   0.408   0.677 -0.0416 -1.1490  1.0500
19437TIP3   OH279801   0.364   0.684  14.407  0.0029 -0.2480 -0.6782
19437TIP3    H179802   0.369   0.689  14.312 -0.6582  0.6730 -0.6809
19437TIP3    H279803   0.280   0.725  14.429  0.6780  0.6549  0.3646
19438TIP3   OH279804   4.802   0.757   5.655 -0.5346 -0.3899  0.3400
19438TIP3    H179805   4.707   0.760   5.641 -0.6555 -1.8883  0.6302
19438TIP3    H279806   4.815   0.796   5.741 -0.9607 -0.7655  0.5781
19439TIP3   OH279807   3.767   5.576  10.373  0.0606 -0.1126 -0.5618
19439TIP3    H179808   3.678   5.554  10.348 -0.3466  0.5727  0.2363
19439TIP3    H279809   3.811   5.491  10.381 -1.0277 -0.5805  0.8516
19440TIP3   OH279810   2.578   0.959   2.241 -0.0753  0.3458 -0.0902
19440TIP3    H179811   2.520   0.928   2.311  1.4034 -0.2199  0.9449
19440TIP3    H279812   2.606   1.046   2.271 -0.6850  0.7902 -0.7827
19441TIP3   OH279813   5.881   2.513   3.920 -0.4442  0.2049 -0.3735
19441TIP3    H179814   5.893   2.530   4.013  1.7383 -3.1876  0.1347
19441TIP3    H279815   5.921   2.589   3.876 -1.2146  1.6975  1.3786
19442TIP3   OH279816   3.915   2.784   0.940  0.3910 -0.1393 -0.1908
19442TIP3    H179817   3.926   2.717   1.006 -2.9633  0.3151  1.0109
19442TIP3    H279818   3.827   2.770   0.904 -0.1373  3.0009 -0.4977
19443TIP3   OH279819   1.044   5.672   4.224 -0.1695 -0.5597 -0.3481
19443TIP3    H179820   1.042   5.579   4.203 -1.6412 -0.2812 -1.5985
19443TIP3    H279821   0.959   5.690   4.264  0.4911  0.0675  0.8185
19444TIP3   OH279822   3.796   4.576  16.824 -0.8206 -0.2874  0.0181
19444TIP3    H179823   3.738   4.651  16.817 -0.2891  0.2828  1.3177
19444TIP3    H279824   3.850   4.595  16.901  1.1548 -0.7375 -1.1768
19445TIP3   OH279825   2.011   1.604  12.294 -0.4718 -0.1240 -0.2907
19445TIP3    H179826   1.995   1.637  12.205 -0.1795  2.1308  0.4173
19445TIP3    H279827   2.100   1.570  12.291 -1.2847 -2.3523 -1.4241
19446TIP3   OH279828   1.526   4.683  12.134  0.1001  0.1632  0.0402
19446TIP3    H179829   1.492   4.700  12.046  0.8964  0.1678 -0.2750
19446TIP3    H279830   1.621   4.694  12.126  0.2228 -0.2385  0.8043
19447TIP3   OH279831   0.746   4.071   5.207 -0.4615  0.4798  0.0734
19447TIP3    H179832   0.811   4.011   5.169 -0.3431 -0.2553  1.3862
19447TIP3    H279833   0.668   4.060   5.152 -0.4249 -0.8630  0.2674
19448TIP3   OH279834   0.113   5.103   2.023 -0.3237 -0.3487 -0.3458
19448TIP3    H179835   0.206   5.098   2.043 -0.9019 -1.2345  2.7912
19448TIP3    H279836   0.091   5.195   2.037 -0.2259 -0.4911  0.8719
19449TIP3   OH279837   0.768   0.411  11.804 -0.5666  0.3736  0.3614
19449TIP3    H179838   0.783   0.483  11.743 -1.5167 -0.1607 -0.5429
19449TIP3    H279839   0.748   0.336  11.748  0.2057 -0.5484  1.2912
19450TIP3   OH279840   3.180   3.244   0.769 -0.3231  0.1391 -0.2488
19450TIP3    H179841   3.246   3.227   0.837 -0.9335  1.6940  0.8001
19450TIP3    H279842   3.113   3.177   0.783 -1.2818  1.4232  1.8841
19451TIP3   OH279843   5.550   0.083   2.154 -0.2681 -0.0337 -0.4806
19451TIP3    H179844   5.474   0.140   2.170  1.0876  1.1659  2.2768
19451TIP3    H279845   5.562   0.036   2.236  1.8986 -0.3048 -0.9076
19452TIP3   OH279846   5.249   4.484   6.173 -0.2376 -0.0447  0.4428
19452TIP3    H179847   5.205   4.444   6.098  2.3749 -3.2570  0.4011
19452TIP3    H279848   5.188   4.473   6.245 -0.7780 -1.6186 -0.2027
19453TIP3   OH279849   5.886   6.512  12.163  0.3012 -0.0566 -0.4695
19453TIP3    H179850   5.940   6.526  12.085  0.6339 -0.9816 -0.4052
19453TIP3    H279851   5.874   6.600  12.199 -1.1472  0.6316 -2.4078
19454TIP3   OH279852   1.853   0.100   4.652  0.2947 -0.2943  0.3118
19454TIP3    H179853   1.851   0.178   4.707  0.1166  1.3658 -1.9213
19454TIP3    H279854   1.795   0.120   4.578  0.7425 -2.2912 -0.6647
19455TIP3   OH279855   1.560   5.847   2.123  0.5683 -0.2784 -0.3223
19455TIP3    H179856   1.633   5.796   2.086 -0.0669 -0.9379 -0.6928
19455TIP3    H279857   1.580   5.854   2.216  1.2964 -0.1193 -0.4810
19456TIP3   OH279858   5.596   0.505   3.087  0.2882  0.2852 -0.1177
19456TIP3    H179859   5.598   0.457   3.170 -2.3582  1.2067  0.5732
19456TIP3    H279860   5.605   0.597   3.112  0.8122  0.4908 -1.0079
19457TIP3   OH279861   1.385   0.489   4.843 -0.0833  0.1556 -0.2370
19457TIP3    H179862   1.454   0.534   4.793 -0.3585  0.9251  0.0662
19457TIP3    H279863   1.315   0.475   4.780 -1.1352  2.6595  0.2838
19458TIP3   OH279864   1.656   1.293   1.294  0.4737 -0.4560  0.5429
19458TIP3    H179865   1.701   1.251   1.367 -1.2442 -0.1349  1.8390
19458TIP3    H279866   1.609   1.222   1.251  2.4653 -0.8747 -1.0914
19459TIP3   OH279867   5.451   0.124   0.046 -0.9196  0.4696 -0.0246
19459TIP3    H179868   5.478   0.109   0.137 -3.8368 -1.9166  0.6126
19459TIP3    H279869   5.531   0.112  -0.005 -0.1385 -4.0603  1.8014
19460TIP3   OH279870   6.619   0.337  11.172 -0.2267  0.1040  0.4519
19460TIP3    H179871   6.687   0.394  11.136  1.4769 -1.4948  0.9636
19460TIP3    H279872   6.619   0.261  11.115 -0.9615 -0.3030  0.9827
19461TIP3   OH279873   4.930   5.939  11.265  0.3321  0.4301  0.3144
19461TIP3    H179874   4.918   6.031  11.240 -2.8435 -0.3978 -1.8713
19461TIP3    H279875   4.882   5.930  11.348 -0.2548  0.5360 -0.0115
19462TIP3   OH279876   5.085   0.157   4.867  0.0035 -0.2784 -0.0293
19462TIP3    H179877   5.007   0.211   4.882 -0.2396  0.3622 -3.0723
19462TIP3    H279878   5.058   0.093   4.802  1.1075 -2.3321  1.4444
19463TIP3   OH279879   1.083   0.457  13.235 -0.3122  0.0709  0.9364
19463TIP3    H179880   1.087   0.543  13.278  2.5509 -0.9250  2.9306
19463TIP3    H279881   1.090   0.394  13.307  0.9970 -1.7611 -0.7098
19464TIP3   OH279882   5.981   1.868   2.809 -0.2416 -0.0285 -0.2727
19464TIP3    H179883   6.003   1.954   2.844 -4.1208  0.8062  0.5342
19464TIP3    H279884   5.974   1.881   2.714  1.7222 -0.1968 -0.4914
19465TIP3   OH279885   5.645   5.521   5.309 -0.4184  0.3462 -0.8981
19465TIP3    H179886   5.630   5.515   5.215  0.1343 -3.2419 -0.9119
19465TIP3    H279887   5.694   5.441   5.330  1.2570  1.9994  2.1502
19466TIP3   OH279888   1.763   0.192  16.424 -0.0938 -0.3519 -0.0658
19466TIP3    H179889   1.744   0.225  16.512 -0.9197 -0.4197 -0.2091
19466TIP3    H279890   1.724   0.257  16.366  1.2219  0.1558 -0.4055
19467TIP3   OH279891   6.001   6.633   0.411  0.1178 -0.4520  0.8100
19467TIP3    H179892   5.947   6.654   0.487 -0.3645  1.2132  0.0629
19467TIP3    H279893   5.946   6.575   0.358  0.2981 -1.2819  1.5085
19468TIP3   OH279894   0.965   2.477   1.206 -0.1321  0.2235 -0.7548
19468TIP3    H179895   1.025   2.536   1.160 -0.1643  1.2106  0.4276
19468TIP3    H279896   0.977   2.497   1.298 -0.3027 -1.4953 -0.3224
19469TIP3   OH279897   4.333   1.048   3.925 -0.1205  0.4603 -0.8846
19469TIP3    H179898   4.260   0.988   3.910 -0.3246  0.6237 -0.5478
19469TIP3    H279899   4.292   1.128   3.959  0.5112 -0.9334  3.7926
19470TIP3   OH279900   4.516   5.278   3.616 -0.6967  0.0777  0.2107
19470TIP3    H179901   4.557   5.192   3.629  1.6338  0.9882 -0.4360
19470TIP3    H279902   4.478   5.272   3.528  1.3509  0.3044 -0.7648
19471TIP3   OH279903   0.490   6.059   1.864  0.0299 -0.3399  0.0538
19471TIP3    H179904   0.484   6.115   1.787 -0.2371  0.3938  0.5963
19471TIP3    H279905   0.406   6.069   1.908  0.1866 -0.7239  0.4545
19472TIP3   OH279906   3.289   5.982   0.709  0.0432  0.2902  0.1224
19472TIP3    H179907   3.280   6.076   0.695 -0.5393  0.4547  1.4474
19472TIP3    H279908   3.301   5.973   0.803  2.3098 -0.8240 -0.1937
19473TIP3   OH279909   5.205   0.798   2.207 -0.2127 -0.1701  0.2403
19473TIP3    H179910   5.241   0.881   2.239 -0.5832  1.0135 -2.2015
19473TIP3    H279911   5.112   0.804   2.227 -0.5466  0.8251 -1.4277
19474TIP3   OH279912   3.430   0.907   1.026 -0.5022  1.0799 -0.0287
19474TIP3    H179913   3.362   0.841   1.011  0.8066  0.1373 -2.2534
19474TIP3    H279914   3.391   0.989   0.998 -0.9240  0.6421 -0.7505
19475TIP3   OH279915   0.552   2.725   3.073 -0.1636 -0.3437  0.2244
19475TIP3    H179916   0.458   2.724   3.087 -0.2113  0.8653  0.1191
19475TIP3    H279917   0.584   2.645   3.115 -0.9266  0.5060  2.5468
19476TIP3   OH279918   6.639   1.182   3.502 -0.2162 -0.0088  0.0092
19476TIP3    H179919   6.544   1.186   3.490 -0.0358  2.3741 -1.0895
19476TIP3    H279920   6.674   1.239   3.434  2.0803 -1.5294 -0.1578
19477TIP3   OH279921   4.958   2.203   3.781 -0.0486 -0.6456  0.2924
19477TIP3    H179922   4.936   2.121   3.827 -0.6433 -0.3155  0.6135
19477TIP3    H279923   4.875   2.252   3.779 -0.6306 -1.4864 -2.9132
19478TIP3   OH279924   5.826   5.794  15.509 -0.0931  0.0773 -0.2652
19478TIP3    H179925   5.757   5.756  15.454  0.2690 -0.1516 -0.5676
19478TIP3    H279926   5.893   5.726  15.513 -1.0709 -0.8266  2.3155
19479TIP3   OH279927   3.433   5.833  11.819 -0.0763  0.5045  0.9421
19479TIP3    H179928   3.426   5.793  11.732  3.4642 -0.7088  1.0682
19479TIP3    H279929   3.348   5.819  11.859 -1.5402  0.3112 -1.9666
19480TIP3   OH279930   0.854   0.910  13.333  0.1700 -0.3700  0.1675
19480TIP3    H179931   0.847   0.912  13.429 -0.3167 -0.2806  0.1374
19480TIP3    H279932   0.911   0.984  13.312 -1.0415  0.6628  0.3063
19481TIP3   OH279933   5.214   3.242   3.377  0.3360  0.3875  0.7713
19481TIP3    H179934   5.149   3.242   3.447 -0.4272  0.6803  0.0798
19481TIP3    H279935   5.253   3.330   3.380  0.7609  0.1839  1.2391
19482TIP3   OH279936   1.183   0.917  15.248  0.2536  0.0059  0.0768
19482TIP3    H179937   1.277   0.927  15.234  0.5081  0.8714  2.1509
19482TIP3    H279938   1.145   0.996  15.210  0.1281 -1.0294 -2.1561
19483TIP3   OH279939   0.953   6.114  13.080  0.0490  0.1488  0.1120
19483TIP3    H179940   0.906   6.045  13.034  0.6805 -0.0430 -0.2744
19483TIP3    H279941   0.905   6.127  13.161 -1.9960  1.5323 -1.2223
19484TIP3   OH279942   3.737   1.167   1.460 -1.0266  0.6341  0.3259
19484TIP3    H179943   3.744   1.202   1.371 -0.4404 -1.9937 -0.7529
19484TIP3    H279944   3.664   1.106   1.456  0.9104 -1.8771  0.6986
19485TIP3   OH279945   5.941   4.054   4.692  0.0489  0.3757  0.4613
19485TIP3    H179946   5.896   4.122   4.742  1.0053  1.5184 -0.1858
19485TIP3    H279947   6.034   4.071   4.706  0.3326 -1.3473  0.9899
19486TIP3   OH279948   5.960   2.166   4.077 -0.7368  0.0148 -0.0628
19486TIP3    H179949   5.920   2.083   4.105 -0.6372  0.1996  0.6388
19486TIP3    H279950   5.996   2.146   3.991 -0.0496 -0.9003  0.4087
19487TIP3   OH279951   6.216   6.645  13.764 -0.6328 -0.0014  0.1518
19487TIP3    H179952   6.269   6.722  13.743 -2.3488  1.7999  2.0024
19487TIP3    H279953   6.267   6.599  13.832  0.2955 -0.4503 -0.8111
19488TIP3   OH279954   0.410   3.951  13.612  0.1076 -0.1272  0.5657
19488TIP3    H179955   0.389   3.959  13.518  1.4496 -2.1999  0.0322
19488TIP3    H279956   0.359   4.021  13.653  0.5205  1.7453 -1.8509
19489TIP3   OH279957   3.427   1.680  15.838 -0.0292  0.1731  0.1951
19489TIP3    H179958   3.414   1.652  15.747  0.1292 -0.5993  0.4021
19489TIP3    H279959   3.338   1.686  15.874 -0.0562 -0.3028  0.2140
19490TIP3   OH279960   1.805   0.726  16.653 -0.1858  0.3783 -0.3595
19490TIP3    H179961   1.806   0.811  16.698  0.3088  0.0405  0.2826
19490TIP3    H279962   1.866   0.672  16.703  0.5973  0.0688 -1.6214
19491TIP3   OH279963   4.004   3.996   3.388 -0.2478 -0.2320 -0.6145
19491TIP3    H179964   4.089   4.036   3.369  0.7994 -2.3142 -0.6496
19491TIP3    H279965   3.955   4.003   3.306 -0.0056  0.7083 -0.6880
19492TIP3   OH279966   3.169   5.235   6.418  0.0831  0.2379 -0.6678
19492TIP3    H179967   3.151   5.143   6.439  0.8380  0.5767  1.7295
19492TIP3    H279968   3.091   5.264   6.370 -1.7924 -0.7080  1.6286
19493TIP3   OH279969   4.452   1.860  15.890  0.0139  0.0904  0.0183
19493TIP3    H179970   4.494   1.777  15.866 -0.0605  0.1705 -0.3858
19493TIP3    H279971   4.360   1.838  15.902  0.0425  0.0601  0.1943
19494TIP3   OH279972   3.801   1.181  11.275 -0.9192 -0.0060 -0.0890
19494TIP3    H179973   3.724   1.125  11.265 -1.4621  0.9226 -1.3787
19494TIP3    H279974   3.852   1.166  11.195  1.4092 -2.2400  1.6382
19495TIP3   OH279975   1.270   0.209   6.346 -0.2407 -0.1613 -0.0125
19495TIP3    H179976   1.355   0.169   6.326 -0.2446 -1.6851  2.5433
19495TIP3    H279977   1.277   0.234   6.439 -2.4720 -0.0413  0.1690
19496TIP3   OH279978   1.782   0.507   1.074 -0.0436  0.1934 -0.3864
19496TIP3    H179979   1.785   0.426   1.125  2.0675  1.6361  2.0081
19496TIP3    H279980   1.692   0.540   1.086  0.4874  0.7450  3.0577
19497TIP3   OH279981   4.464   2.536  11.393 -0.7185  0.6825  0.0946
19497TIP3    H179982   4.466   2.442  11.375 -0.6873  0.7602 -0.3291
19497TIP3    H279983   4.550   2.555  11.431 -0.3579  0.7027 -0.7040
19498TIP3   OH279984   0.086   0.677  15.833  0.8639  0.0939 -0.3380
19498TIP3    H179985   0.100   0.764  15.871  3.7266  0.1434 -1.2713
19498TIP3    H279986   0.108   0.616  15.904  1.0830  0.1416 -0.3655
19499TIP3   OH279987   6.737   3.124   5.308 -0.2877 -0.1694 -0.3285
19499TIP3    H179988   6.822   3.127   5.265  0.0416 -1.9112  0.1225
19499TIP3    H279989   6.698   3.209   5.289  1.6849  0.8171 -0.2326
19500TIP3   OH279990   0.771   5.503  14.129 -0.2657  0.0108 -0.2601
19500TIP3    H179991   0.709   5.455  14.182  1.1281 -0.7303  0.7759
19500TIP3    H279992   0.844   5.523  14.189  1.6956 -1.4766 -1.9968
19501TIP3   OH279993   3.315   5.071  15.644 -0.4275  0.1993 -0.4102
19501TIP3    H179994   3.306   5.000  15.581  2.6787 -0.2412 -0.5268
19501TIP3    H279995   3.341   5.147  15.591  0.7332  0.2107  0.1442
19502TIP3   OH279996   4.882   3.620  11.554  0.5849 -0.4136  0.3409
19502TIP3    H179997   4.809   3.569  11.591 -1.8699  2.2421 -0.3997
19502TIP3    H279998   4.919   3.666  11.629 -0.7850  0.7826  0.3245
19503TIP3   OH279999   3.498   0.992   0.128  0.1788  0.1797 -0.1380
19503TIP3    H180000   3.412   1.034   0.119 -0.9482 -1.4331  2.2344
19503TIP3    H280001   3.489   0.909   0.081  0.1737 -0.3244  0.7416
19504TIP3   OH280002   2.454   0.144  16.512 -0.0587  0.2585 -0.3702
19504TIP3    H180003   2.505   0.209  16.463  0.2371  1.7123  1.7163
19504TIP3    H280004   2.513   0.069  16.519  0.7921  0.9094 -0.2656
19505TIP3   OH280005   4.881   3.016  11.952  0.6873  0.0644  0.0385
19505TIP3    H180006   4.840   2.967  12.024  1.8099 -0.7182  0.1824
19505TIP3    H280007   4.904   3.100  11.991 -0.8209  0.5541 -0.0709
19506TIP3   OH280008   5.702   2.392  13.650 -0.2180  0.3125 -0.5152
19506TIP3    H180009   5.771   2.454  13.628  0.8415 -0.9570 -0.9394
19506TIP3    H280010   5.626   2.421  13.600  0.3785  1.0032 -1.0404
19507TIP3   OH280011   3.388   2.472   1.695  0.2701  0.1772 -0.0729
19507TIP3    H180012   3.445   2.463   1.619  1.0948  1.6233  0.3396
19507TIP3    H280013   3.300   2.477   1.658  0.4403 -1.4058 -0.7547
19508TIP3   OH280014   4.738   5.074  12.272  0.0409  0.0108  0.4156
19508TIP3    H180015   4.675   5.033  12.213  1.0710  0.4003 -1.0120
19508TIP3    H280016   4.805   5.008  12.286  1.2566  0.8219 -1.1908
19509TIP3   OH280017   2.495   2.012   5.394  0.2393  0.1033  0.3671
19509TIP3    H180018   2.484   1.922   5.363  2.4413  0.1494 -0.7309
19509TIP3    H280019   2.432   2.020   5.466 -0.7199 -1.9715 -0.1565
19510TIP3   OH280020   0.458   0.494  16.933 -0.7026 -0.1917  0.5396
19510TIP3    H180021   0.401   0.530  17.002 -2.0986 -0.8341 -0.2326
19510TIP3    H280022   0.447   0.399  16.939  0.2960 -0.3325  0.3574
19511TIP3   OH280023   0.018   5.154  13.010  0.3673 -0.1993 -0.7489
19511TIP3    H180024  -0.013   5.066  12.990  1.0412 -0.1029 -2.3877
19511TIP3    H280025  -0.029   5.211  12.948  2.4346  0.1356 -2.1227
19512TIP3   OH280026   6.797   2.609  13.321 -0.2546 -0.2049 -0.5568
19512TIP3    H180027   6.847   2.658  13.386 -1.5628 -0.2619  0.5401
19512TIP3    H280028   6.803   2.518  13.351 -0.2785 -0.3245 -0.9161
19513TIP3   OH280029   4.221   6.818   3.637 -0.1140 -0.6118  0.0893
19513TIP3    H180030   4.132   6.788   3.621 -0.1340  0.1829 -1.5470
19513TIP3    H280031   4.241   6.875   3.562  2.2492 -1.8497 -0.3529
19514TIP3   OH280032   5.329   3.894   2.753 -0.4079 -0.1049  0.0844
19514TIP3    H180033   5.297   3.830   2.690  1.3019 -1.8338  0.8613
19514TIP3    H280034   5.405   3.934   2.710 -1.3461  1.3370 -0.3184
19515TIP3   OH280035   3.615   2.184  15.496  0.7202 -0.3198  0.2475
19515TIP3    H180036   3.653   2.098  15.483 -0.1204 -0.4963 -1.2557
19515TIP3    H280037   3.521   2.170  15.491  0.5687  0.9000 -1.9828
19516TIP3   OH280038   5.046   4.784  11.704 -0.3387  0.1890  0.2772
19516TIP3    H180039   4.966   4.833  11.685 -0.1510  0.5600  0.4167
19516TIP3    H280040   5.104   4.849  11.746 -0.5631 -0.4602  1.6646
19517TIP3   OH280041   6.702   3.643  14.800  0.0646 -0.1415 -0.1403
19517TIP3    H180042   6.749   3.583  14.858 -0.4075 -0.9178 -0.5315
19517TIP3    H280043   6.733   3.730  14.825  1.7164 -0.6090 -0.3823
19518TIP3   OH280044   1.167   1.556  14.602 -0.1575  0.5619  0.2597
19518TIP3    H180045   1.134   1.569  14.691  0.0157  3.6801 -0.0299
19518TIP3    H280046   1.145   1.465  14.582 -2.4313  0.4761  2.5611
19519TIP3   OH280047   5.216   6.336   1.364 -0.0345 -0.2172  0.6869
19519TIP3    H180048   5.129   6.298   1.360 -0.1542 -0.0437  1.3944
19519TIP3    H280049   5.227   6.383   1.281 -0.4404 -0.5988  0.4167
19520TIP3   OH280050   1.964   3.090  13.311 -0.7254  0.1586  0.7787
19520TIP3    H180051   1.999   3.118  13.226 -1.2667 -0.6869  0.2686
19520TIP3    H280052   1.899   3.023  13.290 -0.5077 -0.4250  1.8895
19521TIP3   OH280053   3.681   1.299   1.238  0.3965 -0.2158  0.0652
19521TIP3    H180054   3.634   1.377   1.269  1.8113  1.2385 -1.2561
19521TIP3    H280055   3.654   1.290   1.147  2.2455  0.3615 -0.5691
19522TIP3   OH280056   1.693   1.903  13.112 -0.3583  1.2329 -0.7287
19522TIP3    H180057   1.661   1.835  13.170  0.8979  0.7179 -0.5996
19522TIP3    H280058   1.737   1.966  13.170  1.2331  0.5240 -1.1102
19523TIP3   OH280059   6.766   1.089  11.979 -0.2101  0.3264 -0.0145
19523TIP3    H180060   6.682   1.068  11.938 -0.1156  0.0551 -0.0671
19523TIP3    H280061   6.779   1.020  12.045 -0.2300  0.6035  0.2813
19524TIP3   OH280062   3.789   4.173   4.650  0.2836  0.0581  0.3746
19524TIP3    H180063   3.859   4.148   4.589  1.7954 -0.4534  2.1839
19524TIP3    H280064   3.814   4.260   4.680 -0.1869  0.1275  0.5621
19525TIP3   OH280065   0.949   3.131   3.476  0.5109  0.1357 -0.4733
19525TIP3    H180066   0.866   3.095   3.507  0.1413  0.2357 -1.3392
19525TIP3    H280067   0.927   3.221   3.450  1.2251  0.7057  0.7753
19526TIP3   OH280068   3.031   0.162  13.799 -0.1067  0.2528 -0.3529
19526TIP3    H180069   2.979   0.241  13.812  1.3202  1.1649  0.0051
19526TIP3    H280070   3.121   0.191  13.805  0.5193 -1.0170 -2.3748
19527TIP3   OH280071   0.652   5.800   0.183  0.3131  0.0417  0.3040
19527TIP3    H180072   0.674   5.854   0.108  0.5180 -1.2836 -0.6264
19527TIP3    H280073   0.661   5.858   0.259 -1.1868  1.7568 -0.7814
19528TIP3   OH280074   2.063   5.062  10.994 -0.5093 -0.1959 -0.1705
19528TIP3    H180075   2.153   5.030  11.003 -0.2596  0.3801 -0.5682
19528TIP3    H280076   2.053   5.080  10.901 -2.0670 -3.1815 -0.7192
19529TIP3   OH280077   1.239   0.403   3.213 -0.2034 -0.0318  0.3416
19529TIP3    H180078   1.164   0.463   3.213 -0.4062 -0.2510  1.8332
19529TIP3    H280079   1.310   0.454   3.173 -0.5678  0.9516  0.8970
19530TIP3   OH280080   0.002   4.938  14.632 -0.1929  0.3107  0.0119
19530TIP3    H180081   0.078   4.881  14.638  0.0991  0.8056  1.4099
19530TIP3    H280082  -0.050   4.902  14.560 -0.1051 -1.8191  0.9539
19531TIP3   OH280083   1.748   3.279  14.438 -0.5926 -0.2886 -0.0823
19531TIP3    H180084   1.704   3.303  14.357 -1.5067  0.1449  0.5241
19531TIP3    H280085   1.720   3.189  14.455  0.0074 -0.5584 -0.5106
19532TIP3   OH280086   2.571   6.556   2.706  0.4631 -0.6842  0.3926
19532TIP3    H180087   2.535   6.619   2.768 -1.1376 -1.4211  0.2675
19532TIP3    H280088   2.503   6.488   2.699  1.5939 -1.7695 -0.4267
19533TIP3   OH280089   6.411   5.509  11.401 -0.2812 -0.0836 -0.3529
19533TIP3    H180090   6.399   5.468  11.487 -3.2254  1.9772  0.3524
19533TIP3    H280091   6.346   5.466  11.345  0.5207 -0.2852 -1.1480
19534TIP3   OH280092   0.226   4.667   2.073 -0.5250  0.2534 -0.2577
19534TIP3    H180093   0.217   4.599   2.140  0.2195 -0.0328 -0.4363
19534TIP3    H280094   0.137   4.698   2.058 -0.8093 -0.3160  0.2053
19535TIP3   OH280095   3.609   4.018  11.999 -0.4052  0.2802 -1.1316
19535TIP3    H180096   3.659   4.033  11.919 -1.5926  0.5163 -1.8502
19535TIP3    H280097   3.522   4.054  11.981 -1.1416 -0.9758 -0.2726
19536TIP3   OH280098   2.542   1.806   5.055  0.4130 -0.1337  0.2904
19536TIP3    H180099   2.601   1.842   5.122 -1.1899 -2.7322  3.4147
19536TIP3    H280100   2.573   1.716   5.043 -0.2332 -0.1539 -1.4580
19537TIP3   OH280101   4.185   6.082  12.898 -0.1072  0.1560  0.0607
19537TIP3    H180102   4.253   6.105  12.961  1.4256  1.6510 -2.0091
19537TIP3    H280103   4.130   6.160  12.891  2.4345  1.9529 -3.6183
19538TIP3   OH280104   4.107   3.725  11.845  0.0814  0.5073 -0.0180
19538TIP3    H180105   4.180   3.716  11.906  1.4087  1.1195 -1.4338
19538TIP3    H280106   4.109   3.816  11.818 -0.3913  0.2232 -1.0697
19539TIP3   OH280107   4.906   2.534   0.604  0.3599 -0.5797  0.2734
19539TIP3    H180108   4.944   2.621   0.588 -2.0056  0.4611 -0.1216
19539TIP3    H280109   4.979   2.483   0.640  1.7564  1.6557  0.8702
19540TIP3   OH280110   1.635   6.302  15.575  0.5952  0.5611 -0.2030
19540TIP3    H180111   1.684   6.288  15.656  1.6280  0.9033 -0.7586
19540TIP3    H280112   1.607   6.393  15.580  1.2926  0.8029 -0.5568
19541TIP3   OH280113   5.831   5.644   0.065 -0.6240 -0.0760  0.3287
19541TIP3    H180114   5.757   5.588   0.086 -1.5582  1.1926  0.5383
19541TIP3    H280115   5.861   5.678   0.150 -0.3990  0.1464  0.1635
19542TIP3   OH280116   1.811   4.183   2.363  0.6505  0.6382  0.1658
19542TIP3    H180117   1.788   4.097   2.399  1.3328  0.8060  1.0437
19542TIP3    H280118   1.832   4.236   2.440 -2.0211  2.3245 -0.1649
19543TIP3   OH280119   5.552   3.336  11.487  0.0245  0.2063  0.2043
19543TIP3    H180120   5.607   3.321  11.410 -0.0625  1.8551 -0.2246
19543TIP3    H280121   5.464   3.313  11.459  0.0904  0.2070 -0.0040
19544TIP3   OH280122   4.541   1.256  12.610 -0.0142 -0.3448  0.1506
19544TIP3    H180123   4.600   1.230  12.681  0.4377 -1.3237 -0.5624
19544TIP3    H280124   4.488   1.178  12.593  0.6633 -0.5155 -1.3406
19545TIP3   OH280125   2.195   3.724   1.710  0.0718 -0.2516  0.3191
19545TIP3    H180126   2.123   3.710   1.648  0.0704 -0.6206  0.4043
19545TIP3    H280127   2.165   3.685   1.791  1.4729 -2.9595 -0.3582
19546TIP3   OH280128   6.651   1.394   5.088 -0.1936  0.3675  0.1078
19546TIP3    H180129   6.593   1.455   5.043 -0.3187 -0.2147 -0.5366
19546TIP3    H280130   6.595   1.319   5.110 -0.0065  0.4084  0.7465
19547TIP3   OH280131   0.519   1.812   3.246 -0.2944  0.3436  0.4361
19547TIP3    H180132   0.537   1.757   3.170 -0.1880  0.0584  0.6678
19547TIP3    H280133   0.424   1.819   3.248 -0.2752  0.8684 -0.0868
19548TIP3   OH280134   2.714   2.630   1.096  0.5459 -0.3882 -0.9284
19548TIP3    H180135   2.694   2.543   1.130  0.1037  1.1525  3.3401
19548TIP3    H280136   2.806   2.644   1.116  0.1992  0.6889  0.0523
19549TIP3   OH280137   5.632   2.035   1.145 -0.0989 -0.0474  0.0447
19549TIP3    H180138   5.666   1.985   1.219 -3.4967 -2.0914  0.4105
19549TIP3    H280139   5.557   2.082   1.180 -2.2196 -1.5716 -2.1190
19550TIP3   OH280140   5.406   1.233  16.537  0.5556  0.1006 -0.2221
19550TIP3    H180141   5.381   1.302  16.597  0.6449  0.6199 -0.7737
19550TIP3    H280142   5.327   1.213  16.488  0.4294 -0.4648  0.1983
19551TIP3   OH280143   1.700   6.800  16.716 -0.3630 -0.8322 -0.3037
19551TIP3    H180144   1.699   6.785  16.621 -1.1592 -1.2387 -0.2347
19551TIP3    H280145   1.650   6.881  16.729  1.3134  0.2762 -0.3814
19552TIP3   OH280146   3.586   3.237  16.414  0.0660 -0.1780 -0.0403
19552TIP3    H180147   3.671   3.266  16.382 -0.0081 -1.4941 -1.4896
19552TIP3    H280148   3.541   3.319  16.439  1.2050  0.6363 -0.5715
19553TIP3   OH280149   4.526   2.571  11.119 -0.2793 -0.1436  0.1893
19553TIP3    H180150   4.601   2.523  11.153 -0.4652 -0.3596  0.2970
19553TIP3    H280151   4.480   2.602  11.198 -0.4279 -0.2075  0.1288
19554TIP3   OH280152   0.041   3.403   2.271 -0.3725 -0.3168 -0.6556
19554TIP3    H180153   0.110   3.347   2.235  0.5297  0.4201 -0.1223
19554TIP3    H280154  -0.018   3.419   2.198  0.0518 -0.9219 -1.1358
19555TIP3   OH280155   5.535   4.154   3.109 -0.2625 -0.2034  0.0121
19555TIP3    H180156   5.463   4.166   3.047  0.3298  0.2200 -0.5995
19555TIP3    H280157   5.561   4.063   3.099 -0.6035 -0.3181  0.1298
19556TIP3   OH280158   2.729   3.351  15.003  0.4917 -0.0237 -0.0390
19556TIP3    H180159   2.791   3.399  15.058  0.3298  0.1159  0.0219
19556TIP3    H280160   2.648   3.348  15.055 -0.1405  1.4242 -0.8919
19557TIP3   OH280161   0.116   3.892   4.561 -0.0769  0.2255  0.4908
19557TIP3    H180162   0.042   3.934   4.604  0.7033  2.8854 -0.5573
19557TIP3    H280163   0.183   3.960   4.556  1.6702 -1.4534 -0.4959
19558TIP3   OH280164   0.564   5.073  16.569  0.6517 -0.1931 -0.2646
19558TIP3    H180165   0.587   5.005  16.632 -0.9736 -0.0797  0.5109
19558TIP3    H280166   0.641   5.131  16.567  1.2319 -0.8925  0.6573
19559TIP3   OH280167   1.409   2.777  16.822  0.5195 -0.3875  0.3173
19559TIP3    H180168   1.357   2.750  16.897 -2.1872 -0.1159 -1.3349
19559TIP3    H280169   1.437   2.695  16.780  1.7730 -0.5336  1.3728
19560TIP3   OH280170   5.700   6.647  13.750 -0.1167  0.1440 -0.3223
19560TIP3    H180171   5.687   6.573  13.691 -0.5520 -0.1711  0.1592
19560TIP3    H280172   5.679   6.724  13.697  0.5152 -0.0591 -0.8782
19561TIP3   OH280173   4.930   1.549   5.509  0.1338  0.7281  0.3123
19561TIP3    H180174   4.860   1.611   5.487  1.2250  1.1576 -2.3081
19561TIP3    H280175   4.884   1.471   5.539 -1.6956  0.3223 -3.0058
19562TIP3   OH280176   2.256   4.606   5.440  0.2127 -0.1469 -0.8113
19562TIP3    H180177   2.300   4.624   5.357  0.9014 -1.2415 -0.7134
19562TIP3    H280178   2.182   4.666   5.443  1.0905  0.9958 -1.4885
19563TIP3   OH280179   5.662   2.625  14.136 -0.7038 -0.4101 -0.3419
19563TIP3    H180180   5.737   2.666  14.095  0.9222 -0.2468  2.5264
19563TIP3    H280181   5.643   2.548  14.082  0.9413  0.0435 -1.6204
19564TIP3   OH280182   1.316   3.168  12.339 -0.2177  0.0463 -0.4677
19564TIP3    H180183   1.338   3.216  12.419  1.7226 -1.5843  0.0721
19564TIP3    H280184   1.357   3.219  12.269  1.1537 -0.3526  0.0104
19565TIP3   OH280185   0.248   4.206   0.868 -0.1355 -0.0205  0.2689
19565TIP3    H180186   0.240   4.197   0.963  2.1171  2.7149  0.8629
19565TIP3    H280187   0.244   4.300   0.852 -0.8765 -0.4228 -2.4369
19566TIP3   OH280188   3.991   0.589   0.332 -0.0604  0.9030  0.4392
19566TIP3    H180189   4.001   0.605   0.426 -0.9417  2.5050  0.2968
19566TIP3    H280190   3.906   0.628   0.310 -0.6463 -0.8999 -0.7335
19567TIP3   OH280191   3.641   5.383  14.703 -0.3834 -0.8340 -0.0305
19567TIP3    H180192   3.593   5.301  14.701 -1.4680 -0.2754  1.2849
19567TIP3    H280193   3.664   5.395  14.795  1.9161 -0.8444 -0.5488
19568TIP3   OH280194   0.632   5.611   5.028  0.4621  0.0815 -0.1692
19568TIP3    H180195   0.653   5.631   5.119  0.7413  0.0879 -0.2332
19568TIP3    H280196   0.552   5.559   5.032  1.6276 -1.7719  0.2225
19569TIP3   OH280197   1.030   6.623   4.231  0.1067 -0.0366 -0.2035
19569TIP3    H180198   1.104   6.565   4.213  0.4363  0.8296 -1.9091
19569TIP3    H280199   1.009   6.609   4.323  0.5354 -2.4089 -0.4171
19570TIP3   OH280200   5.023   1.415  12.054  0.1454 -0.1719  0.1953
19570TIP3    H180201   4.940   1.441  12.014  0.3010  0.9231  0.5344
19570TIP3    H280202   4.998   1.372  12.136 -0.0791  0.9956  0.7540
19571TIP3   OH280203   4.253   1.917   2.079  0.5321  0.0688 -0.3475
19571TIP3    H180204   4.320   1.983   2.064 -0.8246  1.3815 -0.9044
19571TIP3    H280205   4.301   1.836   2.097  2.2273  1.2987  0.8128
19572TIP3   OH280206   1.427   4.244   6.646  0.6965  0.5278  0.7097
19572TIP3    H180207   1.333   4.234   6.632  0.8195 -1.3066  1.0321
19572TIP3    H280208   1.433   4.300   6.724 -0.2212 -1.3723  2.2428
19573TIP3   OH280209   1.415   5.979   0.778  0.0033  0.1870  0.1625
19573TIP3    H180210   1.428   6.015   0.866  0.6962  1.4655 -0.4364
19573TIP3    H280211   1.502   5.976   0.740 -0.5117  1.6979 -1.2340
19574TIP3   OH280212   0.007   5.153  11.813 -0.0477  0.2956 -0.1478
19574TIP3    H180213  -0.044   5.125  11.737  1.0564 -0.1275 -0.7481
19574TIP3    H280214   0.038   5.240  11.791 -0.8636  0.7458  0.4129
19575TIP3   OH280215   6.106   4.569  13.364 -0.5901  0.4607  0.1374
19575TIP3    H180216   6.029   4.517  13.388 -1.9081  0.2825 -3.7779
19575TIP3    H280217   6.180   4.523  13.404 -2.0312 -2.5087 -0.3504
19576TIP3   OH280218   5.294   0.963   5.219  0.2574  0.1851  0.2829
19576TIP3    H180219   5.251   0.978   5.304  0.0448  0.6649  0.0934
19576TIP3    H280220   5.283   0.869   5.203  1.5049 -0.1955  1.4371
19577TIP3   OH280221   4.397   4.144  14.641 -0.0953  0.6765 -0.2699
19577TIP3    H180222   4.342   4.139  14.563 -1.3204  0.6230  0.5697
19577TIP3    H280223   4.350   4.094  14.707  0.1761  1.9626  0.9336
19578TIP3   OH280224   2.647   4.886  10.911 -0.3402 -0.3889 -0.2297
19578TIP3    H180225   2.655   4.844  10.826 -0.5019 -2.2920  0.6509
19578TIP3    H280226   2.610   4.973  10.892  2.0944  0.3024 -2.3105
19579TIP3   OH280227   2.597   5.561   6.177 -0.0323 -0.8740 -0.5359
19579TIP3    H180228   2.577   5.649   6.209 -1.4845 -1.7097  1.0442
19579TIP3    H280229   2.556   5.502   6.241 -2.2546 -2.7169 -3.3473
19580TIP3   OH280230   6.311   5.153  15.572  0.1367 -0.0213  0.2324
19580TIP3    H180231   6.407   5.149  15.578  0.1388 -1.0890 -0.1526
19580TIP3    H280232   6.290   5.093  15.500 -0.7251  1.4984 -0.8266
19581TIP3   OH280233   0.229   6.228  15.046  0.0696 -0.1212  0.3386
19581TIP3    H180234   0.225   6.146  14.997  0.1521 -0.3113  0.6444
19581TIP3    H280235   0.142   6.238  15.085  0.1206 -0.1701  0.4670
19582TIP3   OH280236   5.842   5.899   2.061  0.1359 -0.0550 -0.6604
19582TIP3    H180237   5.898   5.833   2.101  1.8397  1.0978 -1.0458
19582TIP3    H280238   5.841   5.877   1.968  0.0098 -0.0387 -0.6630
19583TIP3   OH280239   4.531   5.676  15.986 -0.0236 -0.0717  0.2778
19583TIP3    H180240   4.539   5.771  15.988  0.8637 -0.0820 -1.0805
19583TIP3    H280241   4.523   5.655  15.893 -1.5985 -1.2441  0.6345
19584TIP3   OH280242   3.948   2.257  14.285  0.4287 -0.4203 -0.3724
19584TIP3    H180243   4.037   2.221  14.285  1.4864  1.9960 -0.0872
19584TIP3    H280244   3.936   2.290  14.374 -0.0594  0.8200 -0.8790
19585TIP3   OH280245   1.980   4.956  12.221 -0.3965 -0.1538  0.1424
19585TIP3    H180246   1.922   5.031  12.210 -0.7968 -0.4542  0.1649
19585TIP3    H280247   1.966   4.903  12.143 -0.1793 -0.2474  0.1669
19586TIP3   OH280248   2.700   5.468   4.626  0.1995 -0.4900 -0.1392
19586TIP3    H180249   2.700   5.557   4.661  0.4088  1.0228 -3.6613
19586TIP3    H280250   2.773   5.425   4.672  0.8349  1.5014  0.8298
19587TIP3   OH280251   2.264   5.441  11.511 -0.6344  0.1908 -0.7589
19587TIP3    H180252   2.341   5.421  11.459  0.4627 -0.9767  1.1867
19587TIP3    H280253   2.190   5.411  11.458  0.5448 -2.9966 -0.8299
19588TIP3   OH280254   4.930   5.811  14.976  0.1580 -0.2642  0.4920
19588TIP3    H180255   4.962   5.751  14.909 -0.0388 -0.6766  0.7613
19588TIP3    H280256   5.007   5.832  15.029  0.6221  1.1651 -0.6721
19589TIP3   OH280257   1.640   1.467   1.558 -0.1677 -0.3107 -0.5462
19589TIP3    H180258   1.666   1.434   1.644 -0.2297  2.0698  0.4537
19589TIP3    H280259   1.707   1.433   1.499  0.4429 -1.1761  0.6042
19590TIP3   OH280260   2.825   6.836  15.165 -0.3588  0.2951  0.2289
19590TIP3    H180261   2.919   6.818  15.167 -0.0467  1.8410  1.1166
19590TIP3    H280262   2.818   6.919  15.119 -1.2728  0.3701  0.4966
19591TIP3   OH280263   2.987   5.739   3.644 -0.0890  0.0457  0.0460
19591TIP3    H180264   2.913   5.695   3.601 -1.7304  1.7929  0.9125
19591TIP3    H280265   3.013   5.679   3.714 -0.6433 -0.6393 -0.3199
19592TIP3   OH280266   1.111   0.874  11.901  0.2794  0.1395 -0.2892
19592TIP3    H180267   1.016   0.864  11.908 -0.0827  2.6143 -0.9291
19592TIP3    H280268   1.139   0.901  11.988  0.9602 -3.4716  0.8169
19593TIP3   OH280269   0.496   3.473   1.850 -0.0211 -0.3892 -0.8004
19593TIP3    H180270   0.466   3.433   1.769  4.4018  0.4684 -3.1970
19593TIP3    H280271   0.528   3.400   1.903  0.5128 -0.7139 -1.5464
19594TIP3   OH280272   4.503   6.828  15.091  0.0082 -0.4681  0.0137
19594TIP3    H180273   4.436   6.896  15.092  0.4116 -0.0498 -0.7904
19594TIP3    H280274   4.464   6.756  15.142 -0.5922  0.1893  0.4962
19595TIP3   OH280275   4.344   5.604  14.457 -0.5871 -0.6812  0.0917
19595TIP3    H180276   4.289   5.664  14.507  1.3920  0.8261  0.5616
19595TIP3    H280277   4.341   5.522  14.506  0.0261  0.2923  1.8601
19596TIP3   OH280278   6.411   4.583  13.414  0.1361  0.0027  0.2238
19596TIP3    H180279   6.395   4.523  13.487 -0.3834 -0.1106  0.0190
19596TIP3    H280280   6.419   4.525  13.338 -0.2386  0.1859  0.0454
19597TIP3   OH280281   3.325   5.955   3.182  0.3422  0.5494  0.4640
19597TIP3    H180282   3.375   5.873   3.179  1.9419  1.4225  1.6087
19597TIP3    H280283   3.381   6.019   3.139 -0.0628  1.4297  1.2181
19598TIP3   OH280284   1.316   2.697   5.587  0.0803 -0.1100 -0.1416
19598TIP3    H180285   1.349   2.739   5.666  1.0216 -0.4614 -0.3349
19598TIP3    H280286   1.224   2.723   5.583 -0.5196 -1.5386  2.0600
19599TIP3   OH280287   0.812   4.924   1.512  0.4090  0.3974  0.1143
19599TIP3    H180288   0.887   4.945   1.457  0.7361  0.4648  0.5755
19599TIP3    H280289   0.851   4.890   1.593 -0.0780 -0.3805  0.0297
19600TIP3   OH280290   6.763   6.070  15.496 -0.2466 -0.1504  0.6911
19600TIP3    H180291   6.694   6.013  15.530 -1.0027 -0.1025 -0.6914
19600TIP3    H280292   6.794   6.118  15.573 -0.8414 -1.1233  1.5646
19601TIP3   OH280293   0.155   1.452   1.197  0.4761 -0.0787 -0.1880
19601TIP3    H180294   0.225   1.400   1.158 -0.1635 -1.0607 -0.0856
19601TIP3    H280295   0.108   1.488   1.121  1.2306  0.8067 -0.2531
19602TIP3   OH280296   1.797   2.271  15.104  0.2221  0.3020 -0.2697
19602TIP3    H180297   1.728   2.306  15.048  0.3239  0.7754 -0.1048
19602TIP3    H280298   1.872   2.326  15.087  0.0926  0.8147  0.7468
19603TIP3   OH280299   0.093   1.467   5.132  1.1434 -0.5785  0.2578
19603TIP3    H180300   0.008   1.444   5.094  1.3136 -1.8077  0.5959
19603TIP3    H280301   0.118   1.548   5.086  0.0376 -0.4761 -0.2074
19604TIP3   OH280302   5.273   0.528  16.494  0.6836  0.3653  0.0101
19604TIP3    H180303   5.275   0.613  16.538  0.8323  0.4280 -0.1173
19604TIP3    H280304   5.363   0.495  16.502  0.3373 -0.3569  1.1841
19605TIP3   OH280305   4.337   4.331   5.903 -0.6400 -0.1143 -0.1846
19605TIP3    H180306   4.327   4.421   5.935 -0.1337 -0.2378  0.3396
19605TIP3    H280307   4.430   4.312   5.916 -0.1507  0.1838 -2.6911
19606TIP3   OH280308   3.801   2.709   2.513  0.0698  0.3291 -0.1131
19606TIP3    H180309   3.737   2.677   2.576 -0.5886  0.8614 -0.4995
19606TIP3    H280310   3.883   2.716   2.563  0.1040 -1.3614  0.1292
19607TIP3   OH280311   4.946   4.884  11.437  0.2010  0.2918  0.0326
19607TIP3    H180312   4.893   4.839  11.502 -0.5226  0.6275 -0.3118
19607TIP3    H280313   4.903   4.969  11.425  1.3498  0.9493  0.4183
19608TIP3   OH280314   0.960   3.211   2.842 -0.4152  0.3300  0.6251
19608TIP3    H180315   1.038   3.161   2.866  0.7603  1.7477 -0.0721
19608TIP3    H280316   0.908   3.214   2.923 -1.0149 -2.7201  0.4750
19609TIP3   OH280317   2.064   2.234   4.578  0.1825 -0.5219  0.2679
19609TIP3    H180318   2.110   2.315   4.600  1.5016 -0.9534 -0.7497
19609TIP3    H280319   1.974   2.261   4.559  1.0948  1.0709 -2.2140
19610TIP3   OH280320   3.973   1.892  15.926 -0.4011  0.6009 -0.1500
19610TIP3    H180321   4.034   1.873  15.854  1.7802 -0.0537  1.7648
19610TIP3    H280322   4.001   1.978  15.957 -0.1767  0.1335  0.9771
19611TIP3   OH280323   3.802   3.332   4.372 -0.0159 -0.2150  0.4382
19611TIP3    H180324   3.736   3.311   4.438 -1.7029  2.2066 -0.3592
19611TIP3    H280325   3.828   3.422   4.391  0.6396 -0.0154 -1.2223
19612TIP3   OH280326   6.155   3.615  14.963  0.3816  0.0726  0.2032
19612TIP3    H180327   6.247   3.602  14.939  0.2703  0.1652 -0.2866
19612TIP3    H280328   6.106   3.592  14.884  0.0141  0.5660  0.2826
19613TIP3   OH280329   1.381   3.540   0.034  0.1879 -0.2895 -0.1536
19613TIP3    H180330   1.460   3.487   0.045  0.3934 -0.1605 -0.9575
19613TIP3    H280331   1.388   3.607   0.101  1.0037  0.0047 -0.5204
19614TIP3   OH280332   4.495   3.615  11.664 -0.3756 -0.3548 -0.5326
19614TIP3    H180333   4.502   3.547  11.730 -1.9172 -0.1490 -0.1153
19614TIP3    H280334   4.520   3.572  11.582  0.5841 -0.8712  0.0197
19615TIP3   OH280335   1.542   2.046  15.022 -0.0145  0.3021 -0.0781
19615TIP3    H180336   1.567   2.070  15.111 -0.7098  1.2532 -0.1212
19615TIP3    H280337   1.625   2.029  14.978  0.5209  2.2001  0.0940
19616TIP3   OH280338   4.188   6.137   6.480 -0.6880 -0.1992 -0.1523
19616TIP3    H180339   4.144   6.196   6.419  2.3941  1.3008 -1.1447
19616TIP3    H280340   4.180   6.180   6.565 -0.1087  0.7351 -0.5504
19617TIP3   OH280341   1.477   2.810   0.186 -0.0271  0.0954  0.2608
19617TIP3    H180342   1.388   2.802   0.152  0.9442  0.7070 -2.6954
19617TIP3    H280343   1.495   2.725   0.227 -1.2602 -0.7791 -0.9341
19618TIP3   OH280344   4.558   4.255   2.205  0.3956  0.2205  0.8168
19618TIP3    H180345   4.526   4.322   2.144  0.3697  0.9646  1.6274
19618TIP3    H280346   4.641   4.289   2.237  0.4657 -0.2165  1.1131
19619TIP3   OH280347   5.350   6.379  11.419 -0.8980 -0.1864 -0.5322
19619TIP3    H180348   5.441   6.354  11.408  0.0464  3.4356 -2.6751
19619TIP3    H280349   5.303   6.331  11.351 -0.7476 -2.3443  0.8113
19620TIP3   OH280350   4.554   3.599  15.473  0.3701 -0.0402  0.4960
19620TIP3    H180351   4.620   3.599  15.543 -0.3265 -1.8706  1.2187
19620TIP3    H280352   4.553   3.689  15.441  1.2466  0.6826  2.3586
19621TIP3   OH280353   0.915   5.536  14.364  0.0249 -0.0554 -0.0852
19621TIP3    H180354   1.004   5.563  14.385  0.1796 -1.8054  1.8037
19621TIP3    H280355   0.859   5.607  14.395  0.6007 -0.3664  1.7290
19622TIP3   OH280356   6.181   2.295   4.131  0.3550 -0.0199  0.6435
19622TIP3    H180357   6.218   2.341   4.055  0.9740  0.7763  1.4039
19622TIP3    H280358   6.092   2.272   4.104  1.5458 -2.6080 -1.5144
19623TIP3   OH280359   5.142   5.583  15.979  0.0056  0.7663  0.1118
19623TIP3    H180360   5.203   5.532  16.033 -1.4771 -1.6154 -0.3137
19623TIP3    H280361   5.109   5.651  16.038 -0.9315 -1.2216  2.0020
19624TIP3   OH280362   0.666   2.519  15.105  0.0675  0.5283  0.0051
19624TIP3    H180363   0.722   2.576  15.053  1.1322  0.0752  0.6218
19624TIP3    H280364   0.632   2.455  15.043  3.1282 -1.4084  0.1559
19625TIP3   OH280365   4.821   5.007  13.772 -0.5066  0.0000  0.8118
19625TIP3    H180366   4.914   4.995  13.789 -0.7562 -0.8138  1.7192
19625TIP3    H280367   4.809   5.101  13.765  0.5690  0.0708 -0.5251
19626TIP3   OH280368   5.649   5.839   6.669 -0.0299 -0.1463  0.1634
19626TIP3    H180369   5.564   5.869   6.702 -0.3983 -0.2992 -0.6287
19626TIP3    H280370   5.650   5.745   6.685  0.9598  0.1620  2.2752
19627TIP3   OH280371   3.802   5.270   0.889  0.4080  0.4876  0.6915
19627TIP3    H180372   3.850   5.206   0.942  0.9498  0.3527  0.0581
19627TIP3    H280373   3.868   5.333   0.861  0.6111 -0.6356 -1.6028
19628TIP3   OH280374   6.701   4.732   5.584  0.1556 -0.3450  0.2128
19628TIP3    H180375   6.696   4.643   5.619 -0.5203 -0.1292  0.6857
19628TIP3    H280376   6.635   4.733   5.514  0.3459 -0.2856  0.0322
19629TIP3   OH280377   2.681   3.863   0.935 -0.1572  0.0668  0.5584
19629TIP3    H180378   2.726   3.947   0.950 -0.9729  0.2555  2.1802
19629TIP3    H280379   2.742   3.813   0.880  1.0368  1.1329  0.8530
19630TIP3   OH280380   2.537   3.634   3.021 -0.0331 -0.4022 -0.4385
19630TIP3    H180381   2.596   3.668   3.088 -2.0766 -0.6758  1.6126
19630TIP3    H280382   2.570   3.547   3.002  0.7460 -0.2053 -0.0286
19631TIP3   OH280383   5.805   6.315  11.435  0.1967 -0.5075 -0.1138
19631TIP3    H180384   5.785   6.255  11.363 -0.7887  0.5421 -0.7480
19631TIP3    H280385   5.793   6.264  11.514 -1.5295 -0.9147 -0.6033
19632TIP3   OH280386   4.067   1.190   3.420 -0.0479 -0.5390  0.5734
19632TIP3    H180387   4.082   1.099   3.394 -1.2970 -0.3304 -1.0107
19632TIP3    H280388   4.058   1.186   3.515 -0.9874 -2.2446  0.4611
19633TIP3   OH280389   3.508   2.454  11.089 -0.0171  0.2825  0.3176
19633TIP3    H180390   3.429   2.408  11.063  0.9983 -0.2195 -2.1249
19633TIP3    H280391   3.572   2.384  11.105  0.8287  0.7406 -0.9570
19634TIP3   OH280392   6.098   5.083   2.827  0.1372 -0.7349  0.3915
19634TIP3    H180393   6.027   5.074   2.764 -0.4058  0.2317  0.8391
19634TIP3    H280394   6.073   5.159   2.880  1.3769 -0.5529  0.7322
19635TIP3   OH280395   2.936   6.232  11.862  0.3582 -0.1061 -0.1718
19635TIP3    H180396   2.948   6.254  11.954  1.3886  1.4736 -0.6432
19635TIP3    H280397   2.941   6.316  11.816 -1.7769 -0.6320 -1.5462
19636TIP3   OH280398   3.784   0.486  16.665 -0.4660  0.0355  0.6703
19636TIP3    H180399   3.878   0.493  16.653 -0.7363  0.9976 -1.2635
19636TIP3    H280400   3.755   0.575  16.685 -1.0372 -0.1490  0.6888
19637TIP3   OH280401   3.794   1.454  13.206  0.0720 -0.2050  0.4172
19637TIP3    H180402   3.719   1.403  13.239 -0.8947  2.7008  3.2471
19637TIP3    H280403   3.768   1.480  13.118 -1.7261 -0.3801  0.8459
19638TIP3   OH280404   5.526   6.160  12.499 -0.0799  0.2535  0.0183
19638TIP3    H180405   5.532   6.069  12.527  0.4486  0.7144  1.4887
19638TIP3    H280406   5.432   6.179  12.495 -0.1890 -0.3458 -0.3007
19639TIP3   OH280407   6.336   0.935  14.511 -0.0349 -0.8386 -0.4102
19639TIP3    H180408   6.410   0.904  14.458 -0.1071  1.1582 -1.8059
19639TIP3    H280409   6.274   0.970  14.447 -0.8657  0.2049  0.9032
19640TIP3   OH280410   4.880   4.922  16.380 -0.1507  0.1761  0.2120
19640TIP3    H180411   4.965   4.892  16.415 -1.1753 -0.0133  2.7370
19640TIP3    H280412   4.856   4.854  16.317  0.3468 -1.2883  1.5032
19641TIP3   OH280413   6.380   0.380  12.502  0.1174 -0.1036 -0.0375
19641TIP3    H180414   6.329   0.307  12.538 -1.4907  1.1545  0.3465
19641TIP3    H280415   6.325   0.457  12.515  1.5698  1.1359 -0.8484
19642TIP3   OH280416   2.374   4.725   3.523  0.6268  0.1455 -0.0969
19642TIP3    H180417   2.427   4.741   3.446 -0.0373  0.9770 -0.3902
19642TIP3    H280418   2.423   4.764   3.595  0.1389  1.4504 -0.4561
19643TIP3   OH280419   1.274   1.880  15.662  0.1382  0.0441  0.1165
19643TIP3    H180420   1.334   1.808  15.644 -1.6948 -1.6348  0.3278
19643TIP3    H280421   1.271   1.931  15.581 -1.2335 -2.2529 -1.3768
19644TIP3   OH280422   1.889   6.379  12.525  0.5384 -0.9186 -0.7116
19644TIP3    H180423   1.793   6.378  12.529  0.4734  2.0096  1.5362
19644TIP3    H280424   1.917   6.335  12.605  0.8026  2.5081  1.2925
19645TIP3   OH280425   1.490   5.577   4.074 -0.2491 -0.5074 -0.1748
19645TIP3    H180426   1.400   5.610   4.064  0.0859  0.3418 -0.4885
19645TIP3    H280427   1.543   5.655   4.090  0.5980 -0.8623 -1.1289
19646TIP3   OH280428   2.055   4.753   2.944 -0.7765  0.1670 -0.1315
19646TIP3    H180429   2.083   4.718   2.859 -0.0610 -0.0736  0.1974
19646TIP3    H280430   2.129   4.805   2.975 -1.8616  2.1521 -0.6720
19647TIP3   OH280431   5.664   1.431  12.816 -0.4052  0.8066  0.4830
19647TIP3    H180432   5.652   1.458  12.725  0.3335  1.2877  0.5193
19647TIP3    H280433   5.754   1.457  12.837  0.4948 -1.9843  0.4239
19648TIP3   OH280434   1.908   4.663  16.731 -0.2130  0.4596 -0.1896
19648TIP3    H180435   1.896   4.595  16.666  0.4812 -1.1816  1.3186
19648TIP3    H280436   1.824   4.709  16.734 -0.5738 -0.0804 -1.4962
19649TIP3   OH280437   4.712   4.535  14.022  0.3924  0.1383  0.0900
19649TIP3    H180438   4.801   4.532  14.060 -0.0035 -1.3114  1.0324
19649TIP3    H280439   4.662   4.589  14.083 -0.2083 -2.0756  1.7302
19650TIP3   OH280440   2.044   2.376  11.890 -0.5465 -0.2581  0.1964
19650TIP3    H180441   1.984   2.414  11.826 -0.4941  1.0912  0.9172
19650TIP3    H280442   1.990   2.317  11.942 -0.7620 -0.7384 -0.5463
19651TIP3   OH280443   1.529   0.577   5.524  0.2769 -0.0292  0.1316
19651TIP3    H180444   1.577   0.641   5.577 -1.5593  0.4397  1.3489
19651TIP3    H280445   1.567   0.493   5.548  0.5538  0.3315  1.0089
19652TIP3   OH280446   5.409   0.451   2.791 -0.6657 -0.3251  0.6860
19652TIP3    H180447   5.378   0.467   2.881 -1.0679  1.1593  0.3063
19652TIP3    H280448   5.504   0.445   2.799 -0.5218  1.5689  1.0252
19653TIP3   OH280449   6.729   4.545  15.715 -0.5260  0.1147 -0.4683
19653TIP3    H180450   6.819   4.579  15.721 -0.4843  0.0147 -0.5315
19653TIP3    H280451   6.688   4.597  15.646 -0.9540  1.1515  0.5461
19654TIP3   OH280452   0.722   5.324   6.361 -1.2945 -0.5293  0.4324
19654TIP3    H180453   0.645   5.362   6.403 -1.8731  1.8742 -2.4378
19654TIP3    H280454   0.792   5.389   6.376 -0.9905 -0.6234 -0.4870
19655TIP3   OH280455   5.213   1.718   6.221 -0.1027  0.2845  0.2390
19655TIP3    H180456   5.135   1.764   6.252 -2.8618 -2.9849 -1.1167
19655TIP3    H280457   5.248   1.675   6.299 -0.5932  0.5389  0.6082
19656TIP3   OH280458   1.541   4.926  13.587  0.4685 -0.0343 -0.1994
19656TIP3    H180459   1.540   5.020  13.600  1.3662 -0.0028 -0.2726
19656TIP3    H280460   1.634   4.904  13.574  0.5519 -1.2071  1.8785
19657TIP3   OH280461   4.408   1.685  13.704  0.3134  0.2036 -0.3141
19657TIP3    H180462   4.332   1.636  13.735  1.0448  0.5094  2.1151
19657TIP3    H280463   4.443   1.632  13.632 -1.1382 -0.8445 -0.2931
19658TIP3   OH280464   2.318   2.939  10.690 -0.0758 -0.2896  0.0513
19658TIP3    H180465   2.385   2.904  10.748 -0.1383 -0.2682  0.1357
19658TIP3    H280466   2.367   2.993  10.627  0.5842 -3.5301 -2.5303
19659TIP3   OH280467   5.206   5.117   0.250  0.4149  0.8361  0.1390
19659TIP3    H180468   5.223   5.211   0.242  3.4298  0.5981  1.9887
19659TIP3    H280469   5.220   5.098   0.342  0.0723 -1.4893 -0.2263
19660TIP3   OH280470   5.480   1.381   5.589 -0.2039  0.3946 -0.6065
19660TIP3    H180471   5.392   1.362   5.555 -0.1130  0.4206 -0.8590
19660TIP3    H280472   5.467   1.455   5.648 -0.1370  1.3911 -1.7893
19661TIP3   OH280473   5.935   6.816   5.143 -0.2523  0.0980 -0.1596
19661TIP3    H180474   5.865   6.855   5.195  1.5123  3.6323 -0.1607
19661TIP3    H280475   5.899   6.810   5.055 -0.7380  1.3381 -0.0557
19662TIP3   OH280476   0.088   0.363   2.282  0.1214  0.2228  0.5801
19662TIP3    H180477   0.157   0.399   2.226  0.2455 -0.2446  0.4294
19662TIP3    H280478   0.075   0.274   2.250 -0.7850  0.4094  0.3937
19663TIP3   OH280479   2.425   5.765  14.139 -0.1109 -0.0328 -0.0315
19663TIP3    H180480   2.389   5.685  14.102  0.8104 -0.2579 -0.4654
19663TIP3    H280481   2.362   5.833  14.115  0.1145 -0.2934 -1.4449
19664TIP3   OH280482   3.189   2.734  14.138  0.0825 -0.4939 -0.0593
19664TIP3    H180483   3.238   2.733  14.220 -1.3013 -0.2037  0.8041
19664TIP3    H280484   3.142   2.818  14.139  0.0602 -0.4719 -1.1698
19665TIP3   OH280485   1.917   6.720  16.501 -0.3105 -0.3032 -0.2823
19665TIP3    H180486   1.833   6.741  16.459  0.1458 -2.0024 -2.1884
19665TIP3    H280487   1.981   6.773  16.453 -0.1212  0.0113  0.3124
19666TIP3   OH280488   3.845   1.321   3.063 -0.3101 -0.7705 -0.6483
19666TIP3    H180489   3.883   1.260   3.126 -0.6619  0.0169  0.3503
19666TIP3    H280490   3.905   1.395   3.061 -0.6964 -0.4532 -0.6522
19667TIP3   OH280491   2.180   0.875   3.431 -0.0474 -0.0671  0.1575
19667TIP3    H180492   2.170   0.788   3.470  1.7409 -0.9334 -1.2155
19667TIP3    H280493   2.199   0.932   3.506  1.0609 -1.2721  0.8310
19668TIP3   OH280494   2.312   6.529   5.513  0.0489 -0.1322  0.3749
19668TIP3    H180495   2.257   6.592   5.559  0.7309  1.1320 -0.4929
19668TIP3    H280496   2.253   6.457   5.491 -0.6213 -0.0676  1.8458
19669TIP3   OH280497   0.989   1.281   4.195  0.5830 -0.3348  0.7070
19669TIP3    H180498   1.036   1.259   4.115 -1.5742  1.1057 -1.0482
19669TIP3    H280499   1.034   1.359   4.229  0.4981  0.0308 -0.0130
19670TIP3   OH280500   2.207   1.026   4.399  0.7719  0.0734  0.6421
19670TIP3    H180501   2.149   1.020   4.474 -0.0441  0.1898  0.0290
19670TIP3    H280502   2.236   0.936   4.383 -1.0341 -0.3637 -0.4271
19671TIP3   OH280503   2.347   2.738  12.375 -0.4391 -0.4129 -0.4495
19671TIP3    H180504   2.326   2.690  12.455 -2.3709 -0.9613 -1.2182
19671TIP3    H280505   2.435   2.773  12.390  0.4538 -2.9276  0.7433
19672TIP3   OH280506   6.633   2.623   3.235  0.7215  0.3814 -0.2376
19672TIP3    H180507   6.610   2.533   3.213 -3.5071  1.3710 -0.7819
19672TIP3    H280508   6.607   2.633   3.327  1.1208  1.0976 -0.1914
19673TIP3   OH280509   1.843   3.817   4.772  0.4292 -0.1730 -0.7864
19673TIP3    H180510   1.824   3.909   4.784  1.6030 -0.2372  2.4235
19673TIP3    H280511   1.936   3.808   4.792 -0.1445 -2.3351  1.4151
19674TIP3   OH280512   1.201   3.780  15.602  0.1439  0.0665 -0.4781
19674TIP3    H180513   1.157   3.725  15.666 -1.6143  1.9148 -0.0076
19674TIP3    H280514   1.188   3.869  15.633  2.9528  0.8297 -1.1648
19675TIP3   OH280515   4.188   4.709   5.685 -0.9833  0.3869 -0.1224
19675TIP3    H180516   4.202   4.615   5.679 -0.3874  0.5219 -0.9047
19675TIP3    H280517   4.093   4.719   5.689 -1.0276 -0.3093  1.2464
19676TIP3   OH280518   4.355   5.163  15.238  0.0656  0.3815 -0.5071
19676TIP3    H180519   4.330   5.071  15.236  0.5056  0.2720 -2.4434
19676TIP3    H280520   4.378   5.180  15.330 -0.3866 -1.3197 -0.0563
19677TIP3   OH280521   1.350   0.309   5.060  0.0995 -0.2219 -0.0739
19677TIP3    H180522   1.368   0.384   5.003 -2.0597  1.5466  1.4183
19677TIP3    H280523   1.416   0.314   5.129 -1.1003  1.5019  1.0349
19678TIP3   OH280524   2.530   4.752   4.648 -0.7968  0.1240  1.4271
19678TIP3    H180525   2.515   4.755   4.553  3.0916 -1.5892  0.5580
19678TIP3    H280526   2.550   4.842   4.672  0.2952  0.2457  0.1532
19679TIP3   OH280527   4.448   4.422  13.846  0.4181  0.3382  0.2809
19679TIP3    H180528   4.435   4.480  13.921 -0.1466 -0.1048  0.5341
19679TIP3    H280529   4.484   4.478  13.778  1.7857  0.5803  1.1507
19680TIP3   OH280530   4.088   2.909  13.895  0.0137 -0.6431 -0.7502
19680TIP3    H180531   4.162   2.968  13.912 -1.3609  0.8385  0.4164
19680TIP3    H280532   4.118   2.823  13.925  1.4308 -0.2044 -0.8157
19681TIP3   OH280533   4.814   5.074   2.757 -0.3267 -0.4026 -0.0874
19681TIP3    H180534   4.790   5.146   2.699 -1.4136 -1.2436 -0.7060
19681TIP3    H280535   4.833   5.116   2.841  1.7796  0.9053 -1.1213
19682TIP3   OH280536   4.602   0.246  15.000  0.4093  0.2938 -0.2523
19682TIP3    H180537   4.593   0.156  14.968 -1.5762  0.3836 -0.0997
19682TIP3    H280538   4.614   0.298  14.921  2.5702 -0.1634 -0.2764
19683TIP3   OH280539   0.398   2.392  11.675 -0.6736 -0.7545  0.4362
19683TIP3    H180540   0.374   2.425  11.761 -0.8925 -1.6021  0.7093
19683TIP3    H280541   0.457   2.319  11.692 -0.2369 -0.5521 -0.1521
19684TIP3   OH280542   0.585   2.767   5.036  0.5044 -0.4332 -0.1169
19684TIP3    H180543   0.630   2.826   4.974  1.2475 -1.2810 -0.4015
19684TIP3    H280544   0.506   2.740   4.990 -0.4682  1.2696  0.4820
19685TIP3   OH280545   4.160   0.699  16.744 -0.2237 -0.8475  0.3591
19685TIP3    H180546   4.244   0.679  16.703 -0.4166 -2.3063  0.6364
19685TIP3    H280547   4.175   0.683  16.837 -0.5998 -0.3686  0.5019
19686TIP3   OH280548   5.135   5.517  10.422  0.5295  0.8887 -0.5010
19686TIP3    H180549   5.100   5.598  10.386  0.7812  1.2672  0.1101
19686TIP3    H280550   5.195   5.544  10.491  3.0159  0.3163 -2.2861
19687TIP3   OH280551   1.574   0.885  13.356 -0.5571 -0.2218 -0.5144
19687TIP3    H180552   1.628   0.931  13.291  2.1470 -1.4739  0.6819
19687TIP3    H280553   1.486   0.887  13.319  0.7049 -0.3782 -3.9469
19688TIP3   OH280554   6.099   0.511  16.694 -0.0000 -0.3837  0.3404
19688TIP3    H180555   6.020   0.480  16.740 -0.5966 -0.3992 -0.6674
19688TIP3    H280556   6.131   0.433  16.648  0.5559 -0.3518  0.6725
19689TIP3   OH280557   6.003   1.321   3.491  0.1989 -0.5470  1.0768
19689TIP3    H180558   5.918   1.350   3.524 -0.2270  0.7601 -1.0021
19689TIP3    H280559   6.017   1.235   3.532 -2.5182 -1.1870  0.8076
19690TIP3   OH280560   6.363   3.668   0.328  0.2636 -0.3661 -0.0569
19690TIP3    H180561   6.299   3.721   0.280  0.8303  0.7778  0.4390
19690TIP3    H280562   6.311   3.593   0.360 -0.6363  0.0871 -0.4021
19691TIP3   OH280563   2.357   4.125   3.584 -0.5080  0.6506 -0.4005
19691TIP3    H180564   2.447   4.097   3.601 -0.8419 -0.8542 -0.9684
19691TIP3    H280565   2.309   4.101   3.663 -0.6673  0.1977 -0.6304
19692TIP3   OH280566   1.873   1.582   5.401 -0.3591  0.1527  0.4528
19692TIP3    H180567   1.857   1.513   5.466  1.3332 -1.6419 -0.9220
19692TIP3    H280568   1.930   1.644   5.447  0.6189 -0.9660  0.8063
19693TIP3   OH280569   0.969   6.665   3.822 -0.1725 -0.3910  0.1610
19693TIP3    H180570   0.920   6.638   3.744 -0.1984 -1.5446  0.5621
19693TIP3    H280571   0.948   6.599   3.888  2.5238 -1.4262  0.1176
19694TIP3   OH280572   0.671   2.079  12.959  0.1213  0.5000 -0.4388
19694TIP3    H180573   0.761   2.052  12.943  0.2959  0.4624  0.5385
19694TIP3    H280574   0.656   2.150  12.897  1.0896  1.0346 -0.0944
19695TIP3   OH280575   4.711   5.292  14.679 -0.0840 -0.0642  0.1972
19695TIP3    H180576   4.761   5.222  14.639 -2.4149 -1.3743 -0.6351
19695TIP3    H280577   4.699   5.356  14.610 -0.2069 -0.1227  0.1640
19696TIP3   OH280578   4.868   2.261  11.973  0.3114 -0.1206 -0.5193
19696TIP3    H180579   4.961   2.286  11.976  0.5478 -1.0434  0.5609
19696TIP3    H280580   4.821   2.343  11.986  0.9824  0.3240 -0.8197
19697TIP3   OH280581   4.073   1.245   4.625  0.2146  0.3396  0.1983
19697TIP3    H180582   4.051   1.152   4.640 -3.5417  0.9222 -0.6232
19697TIP3    H280583   4.167   1.245   4.608  0.8830 -2.9377  2.8637
19698TIP3   OH280584   1.423   2.923  13.780 -0.8596  0.0946  0.2630
19698TIP3    H180585   1.511   2.953  13.757 -0.6345 -0.9391 -0.2810
19698TIP3    H280586   1.389   2.990  13.840  0.0960  0.7634  0.0673
19699TIP3   OH280587   5.714   0.661   4.531  0.2714 -0.3326  0.5251
19699TIP3    H180588   5.641   0.618   4.487  0.1234  0.0208  0.4225
19699TIP3    H280589   5.711   0.628   4.621 -0.3974  0.1516  0.6836
19700TIP3   OH280590   4.103   1.283  14.563 -0.1188  0.0559 -0.0731
19700TIP3    H180591   4.031   1.224  14.586  0.1229  0.0069  0.5628
19700TIP3    H280592   4.062   1.369  14.555 -0.5485 -0.2511 -1.4111
19701TIP3   OH280593   6.752   5.801   3.566 -0.7608 -0.1009  0.1998
19701TIP3    H180594   6.706   5.747   3.503  0.9176  1.1661 -2.2711
19701TIP3    H280595   6.696   5.879   3.576 -0.1068  0.6234 -1.4020
19702TIP3   OH280596   4.898   4.807  17.018 -0.0274  0.3379 -0.3390
19702TIP3    H180597   4.896   4.712  17.006 -0.3447  0.3846 -0.6890
19702TIP3    H280598   4.807   4.831  17.033  0.1034  0.5412  0.1263
19703TIP3   OH280599   5.169   3.206  16.961 -0.3443 -0.3963 -0.6942
19703TIP3    H180600   5.114   3.183  16.886  0.7615 -0.7546 -1.4227
19703TIP3    H280601   5.214   3.286  16.933  1.2495 -1.3776 -1.0752
19704TIP3   OH280602   5.263   2.474   0.324  0.0054  0.1515  0.5376
19704TIP3    H180603   5.352   2.449   0.346  0.4141 -0.2458 -1.4124
19704TIP3    H280604   5.234   2.527   0.399  0.7099 -2.2859  2.6742
19705TIP3   OH280605   2.806   3.359  16.625 -0.7436 -0.7127 -0.2540
19705TIP3    H180606   2.743   3.421  16.662  0.1084  1.0833 -1.6456
19705TIP3    H280607   2.803   3.284  16.683 -2.6074  0.2001  0.9149
19706TIP3   OH280608   0.694   5.928  14.275 -0.3754  0.7257  0.0152
19706TIP3    H180609   0.682   5.909  14.183 -2.3225  2.1156 -0.0949
19706TIP3    H280610   0.658   5.853  14.321  0.2148  0.2188 -0.3407
19707TIP3   OH280611   1.224   0.776  15.503  0.3343  0.2688  0.4107
19707TIP3    H180612   1.221   0.808  15.413 -0.5676 -1.2091 -0.1339
19707TIP3    H280613   1.186   0.847  15.555  1.7022  1.5071 -0.2248
19708TIP3   OH280614   1.104   0.592  12.632  0.3178  0.7143  0.0025
19708TIP3    H180615   1.037   0.614  12.697 -0.0753 -0.2430 -0.0683
19708TIP3    H280616   1.053   0.564  12.555  0.7910 -0.7606  0.2027
19709TIP3   OH280617   0.530   1.908   0.882  0.0976  0.4615  0.1994
19709TIP3    H180618   0.518   1.815   0.864  2.1037  0.0595  0.7919
19709TIP3    H280619   0.442   1.946   0.870 -0.4352 -1.2006 -1.6635
19710TIP3   OH280620   1.729   2.761   3.858 -0.0760 -0.1416  0.2494
19710TIP3    H180621   1.779   2.793   3.783  0.3276 -0.1904  0.4914
19710TIP3    H280622   1.654   2.819   3.865 -1.1647 -1.2639 -1.3606
19711TIP3   OH280623   2.712   2.735   5.751  0.0715  0.5299 -0.3581
19711TIP3    H180624   2.787   2.776   5.793 -0.1964  0.0025  0.6838
19711TIP3    H280625   2.637   2.788   5.777  0.0665  1.0345 -1.3638
19712TIP3   OH280626   5.667   2.961   0.806  0.2358  0.0875  0.3539
19712TIP3    H180627   5.709   2.883   0.770  0.0169 -0.2241  0.7658
19712TIP3    H280628   5.578   2.933   0.827  0.0489  0.5413  0.1904
19713TIP3   OH280629   1.008   3.713  14.065 -0.0770 -0.0413  0.1323
19713TIP3    H180630   0.937   3.680  14.119 -0.0042 -0.7463 -0.1876
19713TIP3    H280631   0.967   3.775  14.006 -0.9826 -2.3961 -1.8857
19714TIP3   OH280632   5.549   1.518  11.249 -0.0997 -0.5194 -0.2943
19714TIP3    H180633   5.622   1.486  11.302  1.0533  1.4054 -0.6218
19714TIP3    H280634   5.482   1.542  11.313  1.5646  2.5210  0.5505
19715TIP3   OH280635   3.311   5.151  14.782 -0.3421  0.0075  0.2353
19715TIP3    H180636   3.241   5.209  14.809 -0.6023  0.0085 -0.4355
19715TIP3    H280637   3.276   5.063  14.797 -0.3026  0.0096  0.3469
19716TIP3   OH280638   3.452   3.553   3.034  0.8804 -0.0399 -0.5794
19716TIP3    H180639   3.476   3.477   2.981  0.8324 -0.8653  0.5566
19716TIP3    H280640   3.511   3.550   3.109 -0.1392  0.1441  0.2544
19717TIP3   OH280641   2.660   4.530   4.321 -0.5204 -0.0070 -0.0573
19717TIP3    H180642   2.609   4.467   4.371  1.3312 -0.0959  1.8923
19717TIP3    H280643   2.619   4.614   4.339  0.5881  0.0851  2.4541
19718TIP3   OH280644   2.317   0.263   0.554  0.2852 -0.3909  0.4519
19718TIP3    H180645   2.338   0.247   0.462  1.6107  1.4020  0.3987
19718TIP3    H280646   2.374   0.336   0.580  1.3935 -2.0624  3.2396
19719TIP3   OH280647   5.628   0.862  11.809 -0.0063 -0.0522 -0.2765
19719TIP3    H180648   5.542   0.878  11.848 -0.3085  0.3901 -1.1032
19719TIP3    H280649   5.691   0.892  11.875 -0.5069  0.5744 -0.0840
19720TIP3   OH280650   4.614   4.033   5.630  0.1348  0.0418 -0.1589
19720TIP3    H180651   4.609   4.121   5.592  0.5084  1.2884  2.4866
19720TIP3    H280652   4.695   4.033   5.680  0.3181 -1.9757 -0.3705
19721TIP3   OH280653   1.842   5.372   0.403  0.0342  0.3924  0.0249
19721TIP3    H180654   1.833   5.422   0.484 -1.2965  0.1752  0.0505
19721TIP3    H280655   1.775   5.408   0.345  0.6237  0.1982 -0.7959
19722TIP3   OH280656   1.583   5.561   6.381  0.2850 -0.5252  0.5730
19722TIP3    H180657   1.500   5.608   6.372  0.7234 -0.0505 -1.9141
19722TIP3    H280658   1.573   5.509   6.461 -1.5001  1.2456  1.5940
19723TIP3   OH280659   0.147   2.700   6.292 -0.0162 -0.2007 -0.2701
19723TIP3    H180660   0.200   2.621   6.295 -1.2347 -1.0171  1.8121
19723TIP3    H280661   0.208   2.772   6.310  0.7921 -0.8504 -0.3803
19724TIP3   OH280662   0.247   3.493   0.179 -0.4070  0.7528  0.5361
19724TIP3    H180663   0.315   3.559   0.173 -1.6843  2.1166  0.4566
19724TIP3    H280664   0.204   3.494   0.093  0.9209 -1.7933 -0.2671
19725TIP3   OH280665   1.854   6.045  15.173  0.3741 -0.2672  0.1667
19725TIP3    H180666   1.897   6.131  15.170 -0.2002  0.0146 -0.3506
19725TIP3    H280667   1.779   6.058  15.231  1.6321 -1.0778  2.0587
19726TIP3   OH280668   3.222   6.255   0.672 -0.4304 -0.0439  0.6012
19726TIP3    H180669   3.278   6.332   0.683  1.3389 -0.8207 -2.0014
19726TIP3    H280670   3.174   6.272   0.590  0.1576 -1.7404 -0.1476
19727TIP3   OH280671   4.182   1.756   3.131 -0.3994 -0.2038 -0.4070
19727TIP3    H180672   4.193   1.849   3.112 -0.1651 -0.0358  0.4701
19727TIP3    H280673   4.191   1.751   3.227 -0.8152 -1.0698 -0.4109
19728TIP3   OH280674   2.902   0.373   4.942  0.0618  0.3336 -0.1506
19728TIP3    H180675   2.901   0.299   5.002 -0.1626  1.6698  1.5809
19728TIP3    H280676   2.815   0.412   4.950  0.2562  0.9362 -0.8298
19729TIP3   OH280677   5.006   3.839   5.806 -0.5071  0.2464  0.0802
19729TIP3    H180678   4.970   3.848   5.894  0.0059  0.0636  0.3103
19729TIP3    H280679   5.100   3.848   5.817 -0.3143 -1.1718 -0.2472
19730TIP3   OH280680   1.657   4.942  14.345 -0.0887 -0.1544 -0.0179
19730TIP3    H180681   1.653   5.034  14.319 -0.0491  0.6848  2.6756
19730TIP3    H280682   1.729   4.905  14.294 -0.6697  1.0427 -1.7897
19731TIP3   OH280683   3.783   6.320  11.786  0.3660  0.5495  0.4095
19731TIP3    H180684   3.827   6.375  11.720  3.7169 -2.1782  0.0847
19731TIP3    H280685   3.756   6.242  11.738 -1.3309  0.4482  1.4601
19732TIP3   OH280686   2.803   2.632  11.582 -0.3230  0.0094 -0.1958
19732TIP3    H180687   2.759   2.714  11.563  1.1244  0.6902 -0.8097
19732TIP3    H280688   2.757   2.567  11.529 -0.3727  0.7582 -1.0966
19733TIP3   OH280689   2.526   1.747  16.380 -0.1235  0.5906 -0.5199
19733TIP3    H180690   2.548   1.734  16.472 -1.4921  2.0541  0.0607
19733TIP3    H280691   2.447   1.696  16.366 -0.3018  0.9127 -0.7038
19734TIP3   OH280692   4.153   2.604  16.437 -0.2512  0.1282 -0.9589
19734TIP3    H180693   4.063   2.573  16.423  0.1762 -0.5384 -2.4400
19734TIP3    H280694   4.148   2.657  16.516 -1.1538 -3.2966  1.4906
19735TIP3   OH280695   6.673   4.794   4.456  0.5029  0.3603  0.3498
19735TIP3    H180696   6.701   4.879   4.492  2.0860 -0.1430  0.3617
19735TIP3    H280697   6.692   4.731   4.525 -1.4835  0.0510  0.6920
19736TIP3   OH280698   2.298   3.086   5.770  0.3168 -0.3071  0.0354
19736TIP3    H180699   2.359   3.066   5.700 -0.4231 -1.7474 -0.2371
19736TIP3    H280700   2.319   3.023   5.839  0.9632  1.0122  1.0950
19737TIP3   OH280701   1.232   5.029  11.721 -0.1830  0.1546 -0.4633
19737TIP3    H180702   1.175   4.983  11.660 -0.4560 -1.0308  0.6525
19737TIP3    H280703   1.226   4.979  11.802  2.5888 -0.1337 -0.3517
19738TIP3   OH280704   6.674   3.599   3.503  0.3428  0.3780 -0.5088
19738TIP3    H180705   6.732   3.650   3.446 -0.2324  0.8079 -0.7120
19738TIP3    H280706   6.729   3.526   3.533  0.4108 -0.3626 -2.3065
19739TIP3   OH280707   5.219   4.337   0.509  0.1766 -0.3096  0.2439
19739TIP3    H180708   5.135   4.292   0.497  0.0929 -0.4508  1.2840
19739TIP3    H280709   5.195   4.421   0.549  0.4218  0.2309 -0.7252
19740TIP3   OH280710   0.087   5.831  13.326 -0.2735 -0.0063  0.2850
19740TIP3    H180711   0.166   5.778  13.320 -0.1865 -0.1413  2.1678
19740TIP3    H280712   0.018   5.777  13.286  0.6492  0.3829 -1.9946
19741TIP3   OH280713   4.715   2.629   1.783  0.1040  0.5352 -0.1193
19741TIP3    H180714   4.669   2.701   1.825  0.1377  0.2159  0.4757
19741TIP3    H280715   4.687   2.551   1.831 -0.8192 -0.0168 -1.4621
19742TIP3   OH280716   0.610   3.135   0.658  0.4284  0.5377 -0.0839
19742TIP3    H180717   0.641   3.218   0.694 -0.5485  0.5490  0.7735
19742TIP3    H280718   0.579   3.157   0.571 -1.1505  1.3842  0.6611
19743TIP3   OH280719   4.679   3.808   0.232  0.1256  0.4975 -0.4110
19743TIP3    H180720   4.628   3.847   0.161  2.5375  0.3618 -2.3249
19743TIP3    H280721   4.747   3.757   0.188  1.5460  0.1584  2.0039
19744TIP3   OH280722   0.310   2.266  15.322  0.4115  0.2371 -0.4445
19744TIP3    H180723   0.335   2.199  15.386 -0.1929 -0.1900 -0.6503
19744TIP3    H280724   0.342   2.348  15.360  1.2815 -0.1801 -0.2643
19745TIP3   OH280725   3.559   0.774   3.692 -0.0761 -1.0057  0.2774
19745TIP3    H180726   3.647   0.738   3.684  0.5813  0.3213  1.0705
19745TIP3    H280727   3.543   0.819   3.609  0.2239 -0.7692  0.3487
19746TIP3   OH280728   2.371   4.211  13.853  0.0127 -0.1866  0.8772
19746TIP3    H180729   2.446   4.191  13.797  0.2407  0.5291  0.9130
19746TIP3    H280730   2.410   4.251  13.931 -0.3607 -0.4423  1.2004
19747TIP3   OH280731   5.667   3.004  16.850 -0.3820  0.3537 -0.1691
19747TIP3    H180732   5.726   3.033  16.780 -1.7214  1.3899 -0.9246
19747TIP3    H280733   5.703   3.044  16.929  0.5878 -0.0003 -0.4182
19748TIP3   OH280734   3.196   1.802  13.025  0.0800  0.1053  0.1720
19748TIP3    H180735   3.267   1.757  13.070 -0.3220  0.9347  1.7470
19748TIP3    H280736   3.236   1.882  12.992 -0.0405  0.4701  0.8738
19749TIP3   OH280737   0.033   2.707  12.390 -0.1691  0.0430  0.3050
19749TIP3    H180738   0.016   2.653  12.312 -0.4001  2.1892 -1.2420
19749TIP3    H280739   0.036   2.645  12.462 -0.4248 -2.0147 -1.3429
19750TIP3   OH280740   1.598   1.795  11.610 -0.2051 -0.1032  0.3010
19750TIP3    H180741   1.618   1.864  11.547 -0.4618  0.1108  0.4475
19750TIP3    H280742   1.521   1.751  11.574 -0.1701 -0.1767  0.3157
19751TIP3   OH280743   3.029   2.201  16.796  0.2159 -0.0377 -0.2663
19751TIP3    H180744   3.012   2.262  16.868  0.6541  0.6454 -0.7256
19751TIP3    H280745   3.089   2.248  16.738 -0.3875 -0.4291 -1.2500
19752TIP3   OH280746   3.938   5.760   4.589  0.1870  0.7138 -0.2819
19752TIP3    H180747   3.880   5.828   4.553 -0.9663 -1.1126 -2.0830
19752TIP3    H280748   3.961   5.706   4.513  0.8276 -1.0721  1.1267
19753TIP3   OH280749   2.594   0.976  12.345 -0.6175  0.1906  0.8269
19753TIP3    H180750   2.622   0.885  12.352 -2.4811 -0.3941  1.2036
19753TIP3    H280751   2.625   1.017  12.427  0.2765 -0.0579  0.6299
19754TIP3   OH280752   4.739   6.848  11.103  0.0958 -0.4523 -0.4055
19754TIP3    H180753   4.802   6.815  11.167  2.1070  1.7281 -1.1057
19754TIP3    H280754   4.697   6.922  11.147 -0.0849 -0.2815 -0.8593
19755TIP3   OH280755   3.077   2.872  15.408 -0.1215  0.5624  0.5435
19755TIP3    H180756   3.056   2.813  15.336 -1.0162  0.5354  0.8180
19755TIP3    H280757   3.128   2.942  15.367 -0.6313  0.5585 -0.1123
19756TIP3   OH280758   3.265   3.574   1.102  0.2017 -0.3445  0.4076
19756TIP3    H180759   3.231   3.486   1.114 -0.9230  0.1601  1.0309
19756TIP3    H280760   3.187   3.630   1.095  0.8550  0.4342 -1.4289
19757TIP3   OH280761   2.236   6.700  11.368  0.0880 -0.0569  0.1210
19757TIP3    H180762   2.266   6.761  11.435 -1.6698  0.7080  0.2778
19757TIP3    H280763   2.246   6.614  11.408  1.4825  0.1960  0.3581
19758TIP3   OH280764   6.793   4.295  13.482  0.3259 -0.3186  0.7737
19758TIP3    H180765   6.865   4.247  13.440  0.4519  0.6009 -0.0750
19758TIP3    H280766   6.765   4.359  13.417  0.5125  1.1290  2.0559
19759TIP3   OH280767   0.311   3.915  14.123  0.0871 -0.4102 -0.2261
19759TIP3    H180768   0.375   3.898  14.054  2.5612  0.9777  1.5765
19759TIP3    H280769   0.297   3.831  14.165  0.0887 -0.8728 -1.1291
19760TIP3   OH280770   1.697   1.978   3.968 -0.3053 -0.0857 -0.6235
19760TIP3    H180771   1.758   2.005   4.037 -0.2270 -1.1472 -0.2485
19760TIP3    H280772   1.629   2.045   3.967  0.1034  0.3422 -0.0430
19761TIP3   OH280773   3.834   6.137   3.246  0.5522  0.4381 -0.1129
19761TIP3    H180774   3.890   6.213   3.263  0.8839  0.8727 -2.7620
19761TIP3    H280775   3.793   6.155   3.162 -0.6312 -1.6171 -0.0569
19762TIP3   OH280776   4.329   5.194  11.886 -0.0037  0.2765 -0.2633
19762TIP3    H180777   4.423   5.203  11.900  0.0098  0.5965 -0.5514
19762TIP3    H280778   4.296   5.283  11.887 -1.0087  0.1189  4.4623
19763TIP3   OH280779   1.228   6.655   4.470  0.1684  0.1190 -0.7241
19763TIP3    H180780   1.240   6.587   4.404 -0.3336 -1.4002  0.6768
19763TIP3    H280781   1.301   6.643   4.531 -0.4625  0.1733  0.0653
19764TIP3   OH280782   2.100   5.537   2.114  0.0081 -0.0676 -0.2502
19764TIP3    H180783   2.144   5.481   2.050 -0.7696  0.1024 -0.9458
19764TIP3    H280784   2.084   5.619   2.068 -0.1363  0.2285  0.3128
19765TIP3   OH280785   6.836   2.370  14.209 -0.1942  0.2778 -0.0333
19765TIP3    H180786   6.742   2.377  14.225 -0.9702 -3.2038 -2.0095
19765TIP3    H280787   6.853   2.425  14.133 -0.8200  0.2369 -0.2020
19766TIP3   OH280788   5.928   1.067  11.364 -0.7097 -0.5497  0.2279
19766TIP3    H180789   5.884   1.093  11.445 -1.5356 -1.8206  0.2186
19766TIP3    H280790   5.929   1.146  11.311 -2.4855 -0.3178  0.4757
19767TIP3   OH280791   2.553   5.072   3.867  0.2547  0.8447  0.0708
19767TIP3    H180792   2.558   5.168   3.864  0.5934  0.8291  0.0679
19767TIP3    H280793   2.529   5.053   3.958  1.0448  0.9081  0.3069
19768TIP3   OH280794   2.795   6.347   0.996 -0.2137  0.6392  0.0343
19768TIP3    H180795   2.848   6.341   1.075 -0.4310  0.8602  0.1960
19768TIP3    H280796   2.811   6.435   0.962  1.5378 -0.1522 -1.3438
19769TIP3   OH280797   3.019   0.377   5.815 -0.7130  0.2021 -0.4046
19769TIP3    H180798   3.083   0.337   5.873 -0.1429  0.2052 -1.0229
19769TIP3    H280799   3.071   0.419   5.747 -1.3416  1.2433 -0.2512
19770TIP3   OH280800   4.018   2.775  16.938 -0.0279  0.2727 -0.2838
19770TIP3    H180801   4.074   2.778  16.860  0.3151 -0.2430 -0.0634
19770TIP3    H280802   3.936   2.815  16.910  0.7423  1.8718 -0.3717
19771TIP3   OH280803   1.046   3.280  15.804  0.0059 -0.5604  0.6027
19771TIP3    H180804   1.129   3.272  15.756 -0.8134 -0.5970 -0.8494
19771TIP3    H280805   0.979   3.279  15.736 -1.2993 -2.0714  1.8514
19772TIP3   OH280806   0.065   0.217  13.641 -0.1554 -0.1988  0.0518
19772TIP3    H180807   0.128   0.204  13.570 -1.9979 -0.1348 -1.6857
19772TIP3    H280808   0.030   0.304  13.625 -1.1491 -0.4936  0.5964
19773TIP3   OH280809   3.649   4.103  12.264  0.2757 -0.1355 -0.3161
19773TIP3    H180810   3.726   4.158  12.277 -0.7162  1.6003 -1.5111
19773TIP3    H280811   3.667   4.055  12.183 -0.3435  1.1692 -1.2703
19774TIP3   OH280812   6.260   1.105  11.975 -0.5369  0.3794  0.0927
19774TIP3    H180813   6.211   1.024  11.976 -0.4267  0.3086 -0.0500
19774TIP3    H280814   6.301   1.111  12.061 -0.8679  0.4838  0.2412
19775TIP3   OH280815   1.435   2.859  15.490  0.0982  0.5095  0.1359
19775TIP3    H180816   1.370   2.795  15.520 -0.0000  0.3515 -0.4099
19775TIP3    H280817   1.442   2.921  15.562 -0.2440  0.2146  0.4292
19776TIP3   OH280818   2.395   2.745  15.888  0.2368 -0.0572 -0.3303
19776TIP3    H180819   2.457   2.681  15.855  0.4020  0.0551 -0.2369
19776TIP3    H280820   2.318   2.734  15.832  1.4303  1.9257 -2.5731
19777TIP3   OH280821   4.316   0.085   1.095 -0.5457 -0.3286  0.2933
19777TIP3    H180822   4.326   0.015   1.030  0.3147  0.0876 -0.0337
19777TIP3    H280823   4.406   0.112   1.114 -0.9105  2.0854 -1.0959
19778TIP3   OH280824   5.122   5.918   5.965  0.2381 -0.6576 -0.5599
19778TIP3    H180825   5.034   5.927   6.001  0.5492  1.0166 -0.1310
19778TIP3    H280826   5.170   5.868   6.030  0.0945  0.0643  0.1100
19779TIP3   OH280827   2.826   3.814   2.389  0.1644  0.5007  0.3007
19779TIP3    H180828   2.735   3.798   2.413  0.6517 -0.0943  1.8687
19779TIP3    H280829   2.828   3.806   2.293 -1.0975 -1.2795  0.3763
19780TIP3   OH280830   4.599   2.221  13.083 -0.3336 -0.3179  0.0705
19780TIP3    H180831   4.578   2.226  13.176 -1.3191  1.6059 -0.2106
19780TIP3    H280832   4.694   2.216  13.080 -0.3302 -1.2505  1.1882
19781TIP3   OH280833   5.213   3.844  11.013  0.7176 -0.0407  0.1774
19781TIP3    H180834   5.258   3.823  10.932 -0.1143  1.3082 -0.6738
19781TIP3    H280835   5.134   3.789  11.011 -0.4195  1.5104 -1.0570
19782TIP3   OH280836   4.660   5.012  11.306  0.2627 -0.2745 -0.3989
19782TIP3    H180837   4.599   5.056  11.365 -0.2422 -1.2910 -0.1406
19782TIP3    H280838   4.606   4.987  11.231  0.3630 -1.1058 -0.2065
19783TIP3   OH280839   4.788   2.026   5.987  0.1194  0.6700  0.4997
19783TIP3    H180840   4.751   1.941   6.012 -0.4236  0.3586 -1.2227
19783TIP3    H280841   4.849   2.047   6.057 -0.3963 -0.7136  1.4092
19784TIP3   OH280842   2.756   6.237   6.618  0.4602  0.6509  0.1842
19784TIP3    H180843   2.671   6.264   6.582 -0.0806 -0.1085  0.8538
19784TIP3    H280844   2.745   6.144   6.635  2.5934 -0.3862 -3.0705
19785TIP3   OH280845   0.125   1.477  12.360 -0.8538 -0.2310 -0.2050
19785TIP3    H180846   0.081   1.392  12.369 -0.0503 -0.9408 -2.3220
19785TIP3    H280847   0.054   1.540  12.352 -1.5024 -0.4321  2.7705
19786TIP3   OH280848   5.339   5.990   4.597  0.1922 -0.3729 -0.2153
19786TIP3    H180849   5.395   6.057   4.637  0.7364  0.5778 -2.4286
19786TIP3    H280850   5.308   5.939   4.671  0.8091  1.5116  1.4601
19787TIP3   OH280851   2.473   5.339   0.952  0.2842 -0.0712  0.3472
19787TIP3    H180852   2.505   5.337   0.862 -0.9464 -0.5325 -0.0874
19787TIP3    H280853   2.500   5.255   0.989 -1.3025 -0.9139 -0.3450
19788TIP3   OH280854   0.524   4.975   5.926 -0.4643  0.2400 -0.3752
19788TIP3    H180855   0.517   4.930   6.010 -2.1701 -0.0327 -0.6309
19788TIP3    H280856   0.617   4.995   5.917 -0.2109  0.0211  1.4403
19789TIP3   OH280857   5.669   6.119  12.761  0.0849 -0.2633  0.1067
19789TIP3    H180858   5.736   6.109  12.694  0.3680  0.4930  0.2654
19789TIP3    H280859   5.611   6.188  12.728 -0.8899 -1.2230 -0.2390
19790TIP3   OH280860   5.264   1.968  16.115 -0.0625  0.1301  0.3277
19790TIP3    H180861   5.292   1.879  16.095 -0.2742 -0.0047  0.6184
19790TIP3    H280862   5.208   1.959  16.193 -2.4905  0.1141 -1.3065
19791TIP3   OH280863   4.779   6.605  12.519 -0.0806  0.2487 -0.2347
19791TIP3    H180864   4.737   6.620  12.604 -0.0608  2.5353 -0.5753
19791TIP3    H280865   4.872   6.595  12.540 -0.3781 -2.1727  0.2465
19792TIP3   OH280866   0.118   0.519  13.375  0.4955  0.2857  0.1933
19792TIP3    H180867   0.179   0.448  13.394 -0.3605 -0.8842 -1.2699
19792TIP3    H280868   0.045   0.505  13.436  0.2100 -0.2507 -0.2695
19793TIP3   OH280869   6.289   4.333  15.224 -0.2636  0.2614 -0.0693
19793TIP3    H180870   6.287   4.368  15.313  1.9708 -1.1891  0.6326
19793TIP3    H280871   6.270   4.240  15.235 -2.0907  0.4182 -1.4158
19794TIP3   OH280872   0.313   5.540   3.168 -0.0977  0.2166  0.0967
19794TIP3    H180873   0.383   5.599   3.195 -2.0477  2.4288  0.6607
19794TIP3    H280874   0.328   5.460   3.218  2.1782  0.4582 -0.0897
19795TIP3   OH280875   5.755   3.077   4.230 -0.4568  0.2350 -0.1957
19795TIP3    H180876   5.681   3.054   4.173 -1.1906 -2.3480  1.6061
19795TIP3    H280877   5.826   3.019   4.201 -0.4918 -0.2992  0.7490
19796TIP3   OH280878   5.783   1.101   0.488 -0.0514  0.3153  0.3997
19796TIP3    H180879   5.819   1.055   0.413  3.9319  1.3703  1.3929
19796TIP3    H280880   5.814   1.051   0.564 -1.2848  1.0069  1.4078
19797TIP3   OH280881   3.507   3.061   4.745  0.5558 -0.4138 -0.4389
19797TIP3    H180882   3.537   3.010   4.820 -2.5988 -0.7423  0.7786
19797TIP3    H280883   3.474   2.996   4.683 -1.3198 -0.0466  0.0952
19798TIP3   OH280884   0.162   5.714   4.660 -0.5677  0.7559 -0.1215
19798TIP3    H180885   0.238   5.766   4.633  0.8300 -1.3991 -0.6202
19798TIP3    H280886   0.092   5.740   4.601  0.3620  1.3839 -0.9710
19799TIP3   OH280887   3.926   2.957   4.691  0.0311  0.1404 -0.1171
19799TIP3    H180888   3.987   2.950   4.617 -0.9361 -0.9853 -0.8401
19799TIP3    H280889   3.976   2.926   4.766  0.2989 -0.9813 -0.7372
19800TIP3   OH280890   2.981   2.167   2.848  0.4122  0.3359  0.0236
19800TIP3    H180891   2.909   2.144   2.790 -0.4756  0.0573  1.2167
19800TIP3    H280892   2.964   2.120   2.929  0.5472  2.2417  1.2251
19801TIP3   OH280893   6.737   6.435  15.427  0.0759  0.2947 -0.0641
19801TIP3    H180894   6.816   6.437  15.481  0.8527  0.5861 -1.1792
19801TIP3    H280895   6.668   6.407  15.487  0.4273  2.8497  1.6591
19802TIP3   OH280896   4.701   2.822   0.313 -0.2195  0.2349 -0.0569
19802TIP3    H180897   4.710   2.753   0.247 -0.0900 -0.2051  0.4161
19802TIP3    H280898   4.609   2.846   0.309 -0.0266  0.8853 -1.0601
19803TIP3   OH280899   5.686   0.283   2.611 -0.6238 -0.9252 -0.5180
19803TIP3    H180900   5.683   0.361   2.666 -0.0439 -0.0033 -1.7512
19803TIP3    H280901   5.639   0.307   2.532 -1.1741 -2.1208 -0.5773
19804TIP3   OH280902   4.536   3.083  13.364 -0.0533  0.8575  0.4423
19804TIP3    H180903   4.461   3.063  13.419 -0.6849  1.2281 -0.2696
19804TIP3    H280904   4.500   3.093  13.276  1.3465 -3.2110 -0.8114
19805TIP3   OH280905   6.054   5.815   4.187 -0.7854 -0.0289  0.8485
19805TIP3    H180906   6.059   5.776   4.274  1.4718 -1.6416  0.1060
19805TIP3    H280907   6.117   5.887   4.189  1.9139 -2.1521 -0.2666
19806TIP3   OH280908   5.137   6.128   3.510 -0.4051 -0.5073  0.1605
19806TIP3    H180909   5.054   6.163   3.478 -1.0114 -2.3539 -0.3849
19806TIP3    H280910   5.132   6.139   3.605 -1.2522 -0.5413  0.1265
19807TIP3   OH280911   3.158   0.087   4.129 -0.6296 -0.0306  0.5070
19807TIP3    H180912   3.229   0.024   4.134 -0.1780  0.2321 -1.6573
19807TIP3    H280913   3.080   0.034   4.115 -0.3059 -0.1722 -0.9024
19808TIP3   OH280914   6.792   2.109  12.562 -0.4568 -0.1874 -0.3009
19808TIP3    H180915   6.851   2.140  12.631  0.4787 -2.1219 -0.1480
19808TIP3    H280916   6.706   2.107  12.604 -0.1117 -0.1334  0.4357
19809TIP3   OH280917   5.177   3.389  11.248 -0.1201  0.4600  0.2864
19809TIP3    H180918   5.170   3.482  11.227  2.9076  1.1699  1.8056
19809TIP3    H280919   5.234   3.353  11.180 -1.7664 -0.5070 -0.6521
19810TIP3   OH280920   3.875   1.722  13.893  0.3577 -0.4967 -0.4032
19810TIP3    H180921   3.802   1.660  13.889  0.0071 -0.0084 -1.9758
19810TIP3    H280922   3.893   1.731  13.987  0.7689 -3.3470 -0.1246
19811TIP3   OH280923   2.008   1.710  16.574 -0.3596  0.7722 -0.2744
19811TIP3    H180924   1.967   1.697  16.660 -0.5049  0.3891 -0.3964
19811TIP3    H280925   2.058   1.629  16.560 -1.5717  0.1495 -1.2213
19812TIP3   OH280926   1.038   6.019   0.604 -0.4363  0.4605  0.1509
19812TIP3    H180927   0.979   5.948   0.579  0.8943 -0.9970  0.9505
19812TIP3    H280928   0.989   6.068   0.670 -0.5743 -1.0854  1.2606
19813TIP3   OH280929   1.127   3.948  14.603 -0.1440  0.0482 -0.3254
19813TIP3    H180930   1.207   3.953  14.655 -0.5147  0.2944  0.2368
19813TIP3    H280931   1.154   3.968  14.514  0.8952 -2.4479 -0.6584
19814TIP3   OH280932   1.719   3.027  14.144 -0.1062 -0.3964  0.6051
19814TIP3    H180933   1.802   2.981  14.132  0.7643  1.0417  0.8924
19814TIP3    H280934   1.714   3.041  14.239  0.8972  2.2690  0.3240
19815TIP3   OH280935   2.707   4.883   6.208 -0.3207 -0.0807 -0.5641
19815TIP3    H180936   2.634   4.924   6.254 -0.2359 -0.5317 -0.0132
19815TIP3    H280937   2.785   4.907   6.260 -0.1046  0.1941 -1.0082
19816TIP3   OH280938   2.941   4.609   4.274 -0.5487 -0.7478  0.1931
19816TIP3    H180939   2.868   4.549   4.254  0.2636 -1.3778 -0.9784
19816TIP3    H280940   2.899   4.682   4.320 -1.7549 -1.6087  0.5439
19817TIP3   OH280941   6.530   1.532   3.385 -0.1513 -0.5198 -0.4274
19817TIP3    H180942   6.471   1.555   3.457  0.4718  0.9188 -0.3546
19817TIP3    H280943   6.590   1.606   3.378 -1.1859  0.1810 -3.4714
19818TIP3   OH280944   3.153   6.318  16.008  0.3245  0.9746 -0.3612
19818TIP3    H180945   3.182   6.356  15.925  0.9086  0.6624 -0.3030
19818TIP3    H280946   3.234   6.298  16.054  0.1609 -2.5364 -1.3511
19819TIP3   OH280947   3.605   6.840  14.168 -1.0181 -0.8213 -0.9478
19819TIP3    H180948   3.588   6.797  14.251  1.0870  2.4054  1.3804
19819TIP3    H280949   3.686   6.800  14.136 -1.0491 -1.0672 -0.7228
19820TIP3   OH280950   0.921   3.799  14.689 -0.1465 -0.2672  0.0870
19820TIP3    H180951   0.996   3.827  14.636 -0.5444  1.3914  0.3330
19820TIP3    H280952   0.952   3.806  14.780 -0.4530  0.0248  0.1736
19821TIP3   OH280953   3.169   0.201   0.421 -0.5304  0.0365  0.6420
19821TIP3    H180954   3.205   0.160   0.342  0.1143  2.8019 -0.6160
19821TIP3    H280955   3.129   0.129   0.469  1.0423 -2.1156 -1.0900
19822TIP3   OH280956   3.961   5.632  15.681  0.2415  0.4192  0.1909
19822TIP3    H180957   4.007   5.606  15.601  0.3676 -0.8183  0.6429
19822TIP3    H280958   4.024   5.686  15.728 -0.0210  1.6012 -0.7731
19823TIP3   OH280959   5.363   3.180   0.162  0.2720  0.2519 -0.0698
19823TIP3    H180960   5.331   3.094   0.135  0.1658  0.9114 -2.2229
19823TIP3    H280961   5.413   3.163   0.242 -1.2307 -1.5238  0.5630
19824TIP3   OH280962   5.743   4.849   4.061 -0.5008  0.1745  0.4344
19824TIP3    H180963   5.723   4.942   4.070 -2.2827 -0.2773  1.6245
19824TIP3    H280964   5.795   4.829   4.139 -0.5187  0.0775  0.4210
19825TIP3   OH280965   0.830   2.640  14.714  0.9822 -0.6277 -0.1636
19825TIP3    H180966   0.897   2.682  14.659 -1.2078  1.2289 -1.6041
19825TIP3    H280967   0.803   2.563  14.664  0.7523 -0.3430 -0.4808
19826TIP3   OH280968   5.774   0.123   1.985  0.0839 -0.1108 -0.0159
19826TIP3    H180969   5.698   0.105   2.040  1.3203 -0.6832  1.5581
19826TIP3    H280970   5.842   0.152   2.046  1.3339 -0.1920 -1.3141
19827TIP3   OH280971   1.662   4.913   3.784  0.0779  0.8256  0.4679
19827TIP3    H180972   1.744   4.931   3.737 -0.5758 -0.2046 -1.1268
19827TIP3    H280973   1.601   4.979   3.752 -0.3465  0.1778 -0.0658
19828TIP3   OH280974   6.053   2.022   5.711 -0.0237 -0.3018 -0.2415
19828TIP3    H180975   6.105   2.005   5.790 -0.2288 -1.8203 -0.4080
19828TIP3    H280976   5.965   1.994   5.734 -0.5002  0.9783 -0.4195
19829TIP3   OH280977   0.075   5.126  15.961 -0.8763 -0.1589  0.3681
19829TIP3    H180978   0.161   5.093  15.936 -1.2467 -0.2849 -0.7677
19829TIP3    H280979   0.060   5.089  16.048  0.0170 -0.5064  0.3884
19830TIP3   OH280980   3.089   5.017   1.667 -0.2929  0.0888 -0.0510
19830TIP3    H180981   3.101   4.976   1.582 -0.0013 -0.8311  0.4253
19830TIP3    H280982   3.001   4.993   1.694 -0.0133 -0.4990  0.3636
19831TIP3   OH280983   6.064   5.553   5.397  0.1051  0.2427 -0.1943
19831TIP3    H180984   5.981   5.506   5.386 -0.6874  1.7850 -1.1627
19831TIP3    H280985   6.125   5.486   5.427 -1.7190 -0.7569  1.6024
19832TIP3   OH280986   4.692   2.298  15.947 -0.0114  0.0057  0.5569
19832TIP3    H180987   4.756   2.361  15.912 -0.1216 -0.5105 -0.6376
19832TIP3    H280988   4.632   2.350  15.999 -0.5288  1.0259 -1.0025
19833TIP3   OH280989   1.227   6.689  15.520  0.0376  0.1449 -0.2974
19833TIP3    H180990   1.169   6.623  15.480  0.6497 -0.4335 -0.2456
19833TIP3    H280991   1.219   6.765  15.463 -0.3559 -0.1203 -0.6024
19834TIP3   OH280992   5.219   5.121  14.162  0.6505  0.0813  0.8497
19834TIP3    H180993   5.283   5.094  14.096  1.3499 -1.8156  2.2243
19834TIP3    H280994   5.167   5.189  14.119  1.1366 -1.0121 -1.5909
19835TIP3   OH280995   0.593   4.102   1.362 -0.1040  0.1964  0.1759
19835TIP3    H180996   0.633   4.185   1.337 -0.2165  0.7233  1.6422
19835TIP3    H280997   0.538   4.124   1.438  1.8914 -1.6245  2.2951
19836TIP3   OH280998   0.012   4.332   3.349 -0.3339  0.0053 -0.0188
19836TIP3    H180999   0.077   4.336   3.419 -2.0175  1.7941  1.5789
19836TIP3    H281000   0.059   4.296   3.275  2.7149  1.8663  0.8047
19837TIP3   OH281001   2.158   3.995   2.985  0.5030  0.9134  0.7542
19837TIP3    H181002   2.188   3.906   3.001  0.3845  1.0477  1.8025
19837TIP3    H281003   2.223   4.051   3.028  0.0541  1.2902  0.9559
19838TIP3   OH281004   5.275   3.316   4.883 -0.0694  0.1288  0.0504
19838TIP3    H181005   5.324   3.382   4.833 -0.2636  1.3345  1.3872
19838TIP3    H281006   5.266   3.355   4.970  0.1303 -1.8363  0.9898
19839TIP3   OH281007   6.536   4.852  12.732  0.1330  0.1938  0.2935
19839TIP3    H181008   6.498   4.938  12.743  3.0482  1.4187  2.0641
19839TIP3    H281009   6.613   4.867  12.677 -0.2083 -1.6185 -0.7601
19840TIP3   OH281010   2.914   3.611   5.576  0.0546 -0.1357 -0.4800
19840TIP3    H181011   2.844   3.658   5.621  0.6317  0.4863 -0.2109
19840TIP3    H281012   2.869   3.545   5.524 -1.2264  3.0756 -3.9937
19841TIP3   OH281013   1.336   5.820   0.317  0.1304 -0.3682  0.4880
19841TIP3    H181014   1.276   5.860   0.254  1.0647  2.2061  1.1086
19841TIP3    H281015   1.307   5.853   0.402  1.0085 -0.9792  1.0431
19842TIP3   OH281016   5.097   0.107  13.673 -0.2213  0.8412 -0.0900
19842TIP3    H181017   5.072   0.015  13.686 -1.1051  0.8654 -1.5167
19842TIP3    H281018   5.018   0.157  13.692  0.0311  1.2612 -0.1322
19843TIP3   OH281019   0.641   4.709  12.247 -0.1966  0.0613 -0.1078
19843TIP3    H181020   0.728   4.675  12.266 -0.9492 -0.9316  1.8235
19843TIP3    H281021   0.616   4.667  12.164  0.3892 -1.1889  0.3261
19844TIP3   OH281022   6.554   2.135  15.635  0.1342 -0.0153 -0.7519
19844TIP3    H181023   6.626   2.178  15.680  0.3847 -0.6621 -0.5181
19844TIP3    H281024   6.476   2.160  15.684  0.4033 -0.7207  0.0676
19845TIP3   OH281025   3.605   3.039   2.157  0.0082 -0.0897 -0.2948
19845TIP3    H181026   3.616   3.115   2.215 -1.3901  0.4132 -0.6356
19845TIP3    H281027   3.549   2.979   2.207 -0.3773 -0.0924 -0.7207
19846TIP3   OH281028   1.169   4.328   2.565  0.2097 -0.2569  0.3772
19846TIP3    H181029   1.195   4.372   2.646  2.9085 -0.2245 -0.4014
19846TIP3    H281030   1.163   4.398   2.501 -1.7241 -0.3118  0.4450
19847TIP3   OH281031   4.665   1.648   5.433  0.3211  0.3939  0.6762
19847TIP3    H181032   4.673   1.700   5.353  1.8261 -0.1755  0.4284
19847TIP3    H281033   4.573   1.657   5.458 -0.3184  0.1761 -1.3991
19848TIP3   OH281034   1.672   2.948   3.054 -0.7218 -0.2362  0.3008
19848TIP3    H181035   1.638   3.035   3.032  0.1218 -0.2087 -1.0121
19848TIP3    H281036   1.599   2.904   3.097 -0.6649  1.6686  2.5321
19849TIP3   OH281037   5.274   2.732  14.154 -0.3644  1.2923  0.0805
19849TIP3    H181038   5.316   2.807  14.196  0.9798  0.0374  1.0811
19849TIP3    H281039   5.336   2.703  14.087 -0.8253  1.0221 -0.2360
19850TIP3   OH281040   0.036   3.983   0.456 -0.0501  0.0375  0.4246
19850TIP3    H181041   0.005   3.892   0.460  0.0203 -0.0222 -0.3443
19850TIP3    H281042   0.084   3.995   0.538 -0.6898 -0.3852  0.8774
19851TIP3   OH281043   0.494   3.929  16.704 -0.7196 -0.3037  0.0689
19851TIP3    H181044   0.519   4.019  16.722 -0.8556 -0.1524 -0.4737
19851TIP3    H281045   0.401   3.934  16.681 -1.0159 -0.7270  1.0888
19852TIP3   OH281046   1.905   2.391   0.061  0.1695 -0.1167  0.0369
19852TIP3    H181047   1.900   2.475   0.108 -1.0929  0.2902 -0.7797
19852TIP3    H281048   1.867   2.409  -0.025  1.1373 -1.2071 -0.6524
19853TIP3   OH281049   5.601   5.741   4.048 -0.3934  0.3275 -0.1915
19853TIP3    H181050   5.630   5.828   4.075  1.1043  0.2024 -1.2759
19853TIP3    H281051   5.551   5.755   3.968 -0.1766  0.1894 -0.3515
19854TIP3   OH281052   6.350   1.120   5.685 -0.5293  0.1517  0.0777
19854TIP3    H181053   6.417   1.187   5.675 -0.5689  1.0083  4.1697
19854TIP3    H281054   6.369   1.078   5.769 -1.7390 -3.6612 -1.3111
19855TIP3   OH281055   4.690   0.592  15.708  0.0075 -0.2682  0.0651
19855TIP3    H181056   4.649   0.519  15.663  0.4769 -2.3842  2.7758
19855TIP3    H281057   4.620   0.631  15.760  0.2691 -0.4185  0.5394
19856TIP3   OH281058   0.576   6.586   1.722  0.2527  0.7894  0.2815
19856TIP3    H181059   0.591   6.589   1.627  1.8271 -1.6741  0.3688
19856TIP3    H281060   0.522   6.508   1.736 -0.6871  1.6013  1.3668
19857TIP3   OH281061   0.459   0.148  14.472 -0.4193 -0.3948 -0.3756
19857TIP3    H181062   0.548   0.157  14.438 -0.0412  2.4816  1.1508
19857TIP3    H281063   0.464   0.076  14.535  0.8343 -0.2544 -0.3028
19858TIP3   OH281064   5.002   6.091  13.530  0.0104  0.0902  0.1567
19858TIP3    H181065   5.040   6.089  13.442  1.8198 -0.8729  0.9018
19858TIP3    H281066   5.063   6.145  13.581 -1.4584  1.3417  0.6728
19859TIP3   OH281067   4.011   1.426   1.372  0.2205  0.1319  0.1689
19859TIP3    H181068   4.014   1.333   1.391  0.2815 -0.4847 -2.5291
19859TIP3    H281069   4.092   1.461   1.410  0.0368 -0.7981  1.4896
19860TIP3   OH281070   1.710   4.635  11.894 -0.1978 -0.0534  0.0905
19860TIP3    H181071   1.769   4.663  11.823  0.3067 -2.0573 -0.3585
19860TIP3    H281072   1.766   4.631  11.971 -0.7884  2.3096  0.7128
19861TIP3   OH281073   1.318   0.846   4.294  0.1608 -0.6969 -0.2297
19861TIP3    H181074   1.318   0.816   4.385 -1.7110  0.5176  0.2192
19861TIP3    H281075   1.231   0.883   4.281  0.7558  0.1183 -2.2020
19862TIP3   OH281076   3.517   3.913  12.735 -0.8317 -0.4420 -0.0865
19862TIP3    H181077   3.604   3.883  12.710 -0.6159  1.4761 -1.9057
19862TIP3    H281078   3.524   4.009  12.737 -2.7475 -0.2700  0.3687
19863TIP3   OH281079   5.098   0.104  15.231  0.1891 -0.5750 -0.2986
19863TIP3    H181080   5.187   0.084  15.260  0.0715  1.0880  1.4294
19863TIP3    H281081   5.053   0.020  15.231  1.3424 -1.2194  0.3069
19864TIP3   OH281082   2.940   4.375  17.055 -0.3557  0.3465 -0.4980
19864TIP3    H181083   2.961   4.448  16.997 -1.1310  0.3338 -0.8109
19864TIP3    H281084   2.846   4.384  17.071 -0.6952 -1.2377 -1.4454
19865TIP3   OH281085   6.469   2.911   4.637 -0.1725  0.1145  0.0040
19865TIP3    H181086   6.428   2.826   4.622 -1.1234  0.6143 -0.3075
19865TIP3    H281087   6.519   2.900   4.717  1.0664 -1.2128 -0.9158
19866TIP3   OH281088   4.370   2.672  16.732 -0.0399 -0.7308  0.0150
19866TIP3    H181089   4.332   2.586  16.750  0.0794 -0.7622  0.1177
19866TIP3    H281090   4.294   2.728  16.715 -0.0890 -1.0008 -0.6992
19867TIP3   OH281091   3.211   3.699  13.425 -0.4054  0.0793 -0.2807
19867TIP3    H181092   3.256   3.718  13.507  0.9559  2.1649 -1.3981
19867TIP3    H281093   3.122   3.729  13.438  0.6047  3.6016 -0.5129
19868TIP3   OH281094   1.393   1.677  14.469  0.7854 -0.2054 -0.2589
19868TIP3    H181095   1.469   1.621  14.481 -0.4610 -1.8660  0.2248
19868TIP3    H281096   1.330   1.648  14.535 -0.3403  1.0278 -0.7298
19869TIP3   OH281097   3.482   0.249  12.888 -0.6628 -0.0501 -0.0881
19869TIP3    H181098   3.411   0.311  12.872 -0.9557  0.0447  1.4549
19869TIP3    H281099   3.455   0.200  12.966  0.5246 -0.6799 -0.0423
19870TIP3   OH281100   1.939   4.741   3.935 -0.0553  0.5244 -0.1672
19870TIP3    H181101   1.854   4.736   3.891 -0.1104  1.4627 -0.1937
19870TIP3    H281102   1.918   4.741   4.028 -0.1316  1.3039 -0.1775
19871TIP3   OH281103   5.501   1.333  11.032  0.2455 -0.7494  0.1589
19871TIP3    H181104   5.525   1.389  11.106  3.1444  0.6397 -1.6394
19871TIP3    H281105   5.585   1.298  11.001 -0.8764 -1.4873 -2.2746
19872TIP3   OH281106   6.716   4.215   3.590  0.5396 -0.3390  0.2177
19872TIP3    H181107   6.638   4.238   3.541  0.6483 -2.0364 -0.8472
19872TIP3    H281108   6.779   4.186   3.524  3.1123  3.3960  0.7367
19873TIP3   OH281109   2.565   5.909  16.319  0.5655 -0.4247 -0.1187
19873TIP3    H181110   2.528   5.885  16.234 -0.3162 -0.9663  0.4080
19873TIP3    H281111   2.625   5.981  16.299 -0.8423  0.5594 -0.9969
19874TIP3   OH281112   6.407   1.658  12.146 -0.2167 -0.0197  0.1260
19874TIP3    H181113   6.463   1.644  12.069 -1.7469  0.4967 -1.1301
19874TIP3    H281114   6.412   1.753  12.162  0.7868 -0.2323  1.2570
19875TIP3   OH281115   0.260   1.948   3.522  0.3570  0.2985 -0.3858
19875TIP3    H181116   0.343   1.939   3.568 -0.5274  1.5345  1.6252
19875TIP3    H281117   0.201   1.888   3.568 -0.2093  0.5085 -0.8228
19876TIP3   OH281118   1.484   6.548  13.084 -0.4389  0.0057 -0.2279
19876TIP3    H181119   1.520   6.620  13.033 -1.5962  1.2462  0.6440
19876TIP3    H281120   1.390   6.553  13.070 -0.5572 -1.3234 -0.0968
19877TIP3   OH281121   6.758   4.827  16.753  0.4595  0.6290  0.1336
19877TIP3    H181122   6.836   4.789  16.714 -0.7271 -0.9904 -0.7782
19877TIP3    H281123   6.744   4.909  16.705  1.2615  0.6453 -0.0756
19878TIP3   OH281124   5.106   6.627   5.558  0.7795  0.8215  0.1438
19878TIP3    H181125   5.031   6.652   5.503 -0.0514 -0.6139  0.5561
19878TIP3    H281126   5.116   6.699   5.619  0.6018  1.6534 -0.7834
19879TIP3   OH281127   5.495   4.287  12.483 -0.9497  0.6712 -0.5293
19879TIP3    H181128   5.576   4.307  12.435 -0.4960  0.7046  0.2355
19879TIP3    H281129   5.463   4.373  12.511 -0.2109  0.5279  0.8177
19880TIP3   OH281130   1.291   5.918  11.743 -0.9828  0.1764  0.2783
19880TIP3    H181131   1.241   5.837  11.758  0.5115 -0.7424  0.5534
19880TIP3    H281132   1.379   5.898  11.776 -0.2347  1.4925 -0.8147
19881TIP3   OH281133   6.121   2.503   3.208  0.3860  0.2194 -0.2664
19881TIP3    H181134   6.105   2.580   3.263  2.1520  1.0616 -0.8501
19881TIP3    H281135   6.214   2.506   3.188  0.6589 -2.4468  0.1919
19882TIP3   OH281136   0.943   0.305   2.942  0.5621 -0.1372 -0.4050
19882TIP3    H181137   1.023   0.287   2.893 -0.1335 -1.0920 -1.2456
19882TIP3    H281138   0.935   0.232   3.002 -1.3298 -1.8845 -2.5793
19883TIP3   OH281139   4.592   4.073  12.791  0.5076 -0.1918  0.1451
19883TIP3    H181140   4.684   4.075  12.765 -0.0508 -0.8413 -2.0959
19883TIP3    H281141   4.544   4.087  12.710 -1.3952 -0.8989  1.0968
19884TIP3   OH281142   3.157   4.080  13.868  0.0746  0.0210  0.0572
19884TIP3    H181143   3.080   4.112  13.915 -0.0223 -0.3030  0.1215
19884TIP3    H281144   3.182   4.152  13.811 -0.8794 -0.2124 -0.7014
19885TIP3   OH281145   1.052   6.557   2.413  0.1909 -0.0035 -0.5192
19885TIP3    H181146   1.023   6.637   2.458  1.0050  0.3388 -0.5813
19885TIP3    H281147   1.136   6.536   2.455  0.8867  0.2243 -1.7380
19886TIP3   OH281148   4.326   0.853   5.789  0.1886  0.1481  1.1384
19886TIP3    H181149   4.325   0.930   5.732 -0.0455  0.0159  0.9599
19886TIP3    H281150   4.308   0.888   5.877 -0.4256  0.2452  0.9830
19887TIP3   OH281151   1.471   4.954  11.583 -0.1230  0.1397 -0.4505
19887TIP3    H181152   1.390   4.985  11.624 -1.2534 -1.0010 -1.6991
19887TIP3    H281153   1.502   4.884  11.641 -0.5898 -0.0901 -0.4734
19888TIP3   OH281154   4.498   0.800  15.548 -0.0469 -0.4088 -0.1593
19888TIP3    H181155   4.494   0.762  15.635  1.8103  0.1034  0.1967
19888TIP3    H281156   4.497   0.725  15.489 -1.3539 -0.7564  0.2789
19889TIP3   OH281157   0.259   4.142  13.780 -0.9345  0.0340 -0.3614
19889TIP3    H181158   0.271   4.147  13.875 -1.5173  1.2896 -0.3269
19889TIP3    H281159   0.264   4.233  13.751 -1.2977 -0.2882 -1.4655
19890TIP3   OH281160   3.565   2.176  13.574  0.1370 -0.0087  0.5053
19890TIP3    H181161   3.579   2.259  13.529 -3.3257  1.6899  2.1653
19890TIP3    H281162   3.601   2.189  13.662 -0.6171 -0.1653  0.8440
19891TIP3   OH281163   4.624   5.876  14.219  0.1602  0.2140  0.3275
19891TIP3    H181164   4.561   5.905  14.285 -0.7294  1.0018 -0.8301
19891TIP3    H281165   4.686   5.949  14.211  0.9867 -0.3666  1.1177
19892TIP3   OH281166   6.108   2.194   2.197 -0.6407 -0.3110  0.0985
19892TIP3    H181167   6.088   2.207   2.290  1.1344  1.5426  0.2690
19892TIP3    H281168   6.083   2.276   2.155 -1.4396 -1.1374 -1.1029
19893TIP3   OH281169   1.718   3.090  13.869 -0.6907 -0.2049  0.1006
19893TIP3    H181170   1.703   3.069  13.961  1.4262 -0.4715  0.4517
19893TIP3    H281171   1.761   3.176  13.871 -0.9348 -0.0561 -0.6714
19894TIP3   OH281172   0.692   3.842   1.421 -0.4679 -0.0211 -0.0078
19894TIP3    H181173   0.734   3.852   1.506  0.2900  0.1706 -0.3998
19894TIP3    H281174   0.664   3.931   1.397  2.9019  0.7245 -1.7629
19895TIP3   OH281175   6.782   5.612  17.024 -0.5042  0.0820  0.0463
19895TIP3    H181176   6.779   5.575  16.936  0.7240 -0.8220  0.3557
19895TIP3    H281177   6.781   5.537  17.082 -0.1869  0.6162  0.7626
19896TIP3   OH281178   1.602   1.380   0.981  0.2780 -0.0372 -0.0702
19896TIP3    H181179   1.536   1.448   0.968 -0.1113 -0.3989 -0.0201
19896TIP3    H281180   1.633   1.393   1.071 -0.3635 -0.4119  0.2114
19897TIP3   OH281181   1.741   4.314  14.094  0.2695  0.3742 -0.1103
19897TIP3    H181182   1.698   4.264  14.025 -0.8383  1.2944 -0.1197
19897TIP3    H281183   1.834   4.296  14.082  0.0016 -0.4783 -1.0425
19898TIP3   OH281184   3.916   5.436  16.651 -0.4654 -0.5344 -0.1699
19898TIP3    H181185   4.000   5.453  16.607 -0.3754 -0.5037  0.0107
19898TIP3    H281186   3.873   5.521  16.654 -0.3098 -0.4637  0.1303
19899TIP3   OH281187   4.239   3.042  10.432 -0.0182 -0.2590  0.4382
19899TIP3    H181188   4.331   3.043  10.407 -0.6332  1.6629 -2.1809
19899TIP3    H281189   4.234   3.098  10.509  0.7175  2.0283 -1.0709
19900TIP3   OH281190   3.860   6.346  15.935  0.3837 -0.5544 -0.0242
19900TIP3    H181191   3.892   6.435  15.950 -0.7577 -0.2995  1.0409
19900TIP3    H281192   3.849   6.340  15.840  0.5639  0.4127 -0.1126
19901TIP3   OH281193   3.540   3.588  11.847  0.0857  0.7225  0.3432
19901TIP3    H181194   3.606   3.608  11.781 -1.1226 -3.6959 -2.6677
19901TIP3    H281195   3.575   3.511  11.893 -2.1290 -0.7359 -0.2466
19902TIP3   OH281196   5.080   6.394   1.915 -0.5620  0.1145 -0.1923
19902TIP3    H181197   5.071   6.400   1.820 -0.8613  1.3167 -0.1129
19902TIP3    H281198   5.159   6.342   1.930  1.4232  2.6691 -1.1584
19903TIP3   OH281199   0.689   4.605  12.800 -0.8608 -0.6065 -0.0059
19903TIP3    H181200   0.684   4.633  12.708 -0.8674  0.8033  0.4031
19903TIP3    H281201   0.755   4.661  12.839 -1.8754 -0.2080  1.1883
19904TIP3   OH281202   6.466   4.348  11.005 -0.0948  0.1029 -0.3600
19904TIP3    H181203   6.495   4.288  10.936 -1.5477  0.0123 -0.9449
19904TIP3    H281204   6.530   4.419  11.004  0.7999 -0.6907 -0.6987
19905TIP3   OH281205   0.406   3.839   1.094  0.0069 -0.2949  0.4953
19905TIP3    H181206   0.481   3.780   1.104 -0.7584 -1.1743  1.1877
19905TIP3    H281207   0.446   3.924   1.074  1.2174 -0.6335  1.3236
19906TIP3   OH281208   2.771   0.360  11.927 -0.6898 -0.3779 -0.4519
19906TIP3    H181209   2.839   0.424  11.906  0.4800 -1.2850  0.4760
19906TIP3    H281210   2.735   0.390  12.011  1.3585 -2.0216  1.1360
19907TIP3   OH281211   1.090   6.636  13.778  0.1394  0.1418 -0.2492
19907TIP3    H181212   1.093   6.601  13.868 -1.1041  1.6527  0.4351
19907TIP3    H281213   1.050   6.566  13.727 -0.9407 -0.0453  0.7909
19908TIP3   OH281214   0.112   1.858   0.403 -0.2286 -0.1022  0.2577
19908TIP3    H181215   0.033   1.906   0.428  0.3729  1.1139 -0.0654
19908TIP3    H281216   0.128   1.798   0.476 -1.8522 -0.9151 -0.0107
19909TIP3   OH281217   4.144   5.335  13.569  0.3565 -0.1837  0.4351
19909TIP3    H181218   4.236   5.361  13.566  0.4453 -0.6104 -1.4062
19909TIP3    H281219   4.100   5.395  13.509 -0.9439  1.2188  2.6504
19910TIP3   OH281220   3.948   5.963  11.766 -0.1053  0.2120 -0.6770
19910TIP3    H181221   3.921   5.997  11.851  0.5411 -1.2802  0.1560
19910TIP3    H281222   4.013   6.026  11.734  1.8587 -0.6754  1.3030
19911TIP3   OH281223   4.973   1.417   2.589 -0.2123 -0.8210 -0.1405
19911TIP3    H181224   5.020   1.334   2.585 -0.4601 -1.0636  1.2528
19911TIP3    H281225   5.042   1.483   2.602 -0.1976 -1.1910  2.0407
19912TIP3   OH281226   3.878   4.546   4.121 -0.4874  0.1716  0.1765
19912TIP3    H181227   3.899   4.463   4.165  0.9508 -0.4125 -1.4782
19912TIP3    H281228   3.801   4.526   4.068  0.5548 -0.5322 -1.1561
19913TIP3   OH281229   4.510   0.727  12.330  0.1938  0.0525  0.1681
19913TIP3    H181230   4.498   0.769  12.415  0.9506  0.8088 -0.0812
19913TIP3    H281231   4.605   0.730  12.315  0.1913 -1.1384 -0.1725
19914TIP3   OH281232   3.508   2.476   3.863 -0.1504  0.0164 -0.1939
19914TIP3    H181233   3.593   2.452   3.827 -1.7456 -1.1194 -3.7148
19914TIP3    H281234   3.515   2.568   3.885  2.7819 -0.7145  2.5596
19915TIP3   OH281235   0.614   2.007  15.407 -0.0613  0.0223 -0.2889
19915TIP3    H181236   0.681   2.057  15.360 -1.4062 -0.2115 -2.5837
19915TIP3    H281237   0.575   2.071  15.468  1.2844  0.5056  0.1059
19916TIP3   OH281238   5.798   1.016   4.037 -0.4153  0.4019  0.1656
19916TIP3    H181239   5.794   1.110   4.021 -1.8670  0.5122  1.0241
19916TIP3    H281240   5.717   0.981   4.000  0.6931 -0.7396 -1.3043
19917TIP3   OH281241   2.932   5.459  16.379  0.2010 -0.1020  0.5229
19917TIP3    H181242   3.014   5.423  16.412 -0.0515  0.5033  1.8850
19917TIP3    H281243   2.956   5.546  16.345  0.5267 -0.8653 -1.3177
19918TIP3   OH281244   3.208   0.382   5.254  0.2009 -0.7637  0.1832
19918TIP3    H181245   3.243   0.317   5.315  3.2273  0.5726  0.0301
19918TIP3    H281246   3.216   0.466   5.300 -1.3020 -0.1652 -0.5586
19919TIP3   OH281247   2.132   1.253  14.988 -0.6253 -0.4741 -0.2635
19919TIP3    H181248   2.146   1.158  14.983  0.6279 -0.2468 -1.7502
19919TIP3    H281249   2.161   1.286  14.903 -2.1708  1.1286 -0.2160
19920TIP3   OH281250   1.831   3.116   1.631  0.2563  0.2271 -0.6418
19920TIP3    H181251   1.736   3.117   1.616  0.4084  3.2703 -2.0301
19920TIP3    H281252   1.861   3.040   1.581 -1.2144  0.7085 -2.4102
19921TIP3   OH281253   6.525   1.803  16.017  0.1444  0.8566  0.2680
19921TIP3    H181254   6.466   1.737  15.982  0.2566  0.4677  0.8073
19921TIP3    H281255   6.590   1.817  15.948  0.7926 -0.4401  0.5935
19922TIP3   OH281256   0.405   4.762  12.343 -0.2732 -0.1112  0.1971
19922TIP3    H181257   0.476   4.714  12.301 -0.4136 -0.6502  0.5640
19922TIP3    H281258   0.419   4.853  12.318  0.0910 -0.3199 -0.3788
19923TIP3   OH281259   1.006   4.624  16.158 -0.1962 -0.2471 -0.0429
19923TIP3    H181260   0.983   4.563  16.088  0.2130  0.0523 -0.4445
19923TIP3    H281261   0.926   4.635  16.208 -0.7128  0.1479 -0.9282
19924TIP3   OH281262   1.142   1.118  14.589 -0.2500 -0.0237  0.2568
19924TIP3    H181263   1.237   1.117  14.601 -0.2929 -2.1457  0.7608
19924TIP3    H281264   1.127   1.191  14.529  1.7011  0.2833  0.0588
19925TIP3   OH281265   0.546   5.356  15.927 -0.0967  0.2952  0.2996
19925TIP3    H181266   0.572   5.366  16.019 -0.0853  1.0989  0.2075
19925TIP3    H281267   0.450   5.354  15.930 -0.0982 -1.1715  0.4721
19926TIP3   OH281268   0.275   4.200   1.135  0.0904 -0.0469  0.1526
19926TIP3    H181269   0.305   4.276   1.185 -0.8939 -0.2764  1.1187
19926TIP3    H281270   0.354   4.150   1.117  0.9841  1.8387 -1.6634
19927TIP3   OH281271   4.395   3.979  14.138 -0.0061  0.0554  0.4389
19927TIP3    H181272   4.441   3.962  14.220  1.4115  1.0084 -0.1103
19927TIP3    H281273   4.353   4.064  14.151 -0.4445 -0.1600  0.4451
19928TIP3   OH281274   1.740   3.066   3.577 -0.6657 -0.1238  0.0882
19928TIP3    H181275   1.720   2.986   3.529  1.5679  0.2331 -1.5806
19928TIP3    H281276   1.814   3.043   3.633 -0.4767  0.5812  0.1474
19929TIP3   OH281277   2.278   1.040   1.363  0.1511 -0.6674  0.1117
19929TIP3    H181278   2.313   1.119   1.404 -0.5074 -0.7212  0.7936
19929TIP3    H281279   2.290   0.971   1.428  0.4566 -1.0799 -0.3695
19930TIP3   OH281280   6.806   0.083   3.036  0.2038  0.1752  0.1083
19930TIP3    H181281   6.855   0.128   3.105 -1.4936  1.1748  0.7088
19930TIP3    H281282   6.858   0.098   2.956  0.0856  2.5764  0.4221
19931TIP3   OH281283   3.964   5.965  10.480 -0.5125  0.6800  0.9341
19931TIP3    H181284   4.045   5.916  10.494 -0.3778  0.8050  0.5954
19931TIP3    H281285   3.923   5.922  10.405 -0.6471  0.7629  0.9597
19932TIP3   OH281286   6.704   5.896  11.962  0.1429  0.0503 -0.4502
19932TIP3    H181287   6.654   5.842  12.023  1.1422 -0.0270  0.3134
19932TIP3    H281288   6.644   5.910  11.889 -0.1040 -2.2531 -0.7724
19933TIP3   OH281289   5.043   0.617  15.931  0.7743  0.1667 -0.3980
19933TIP3    H181290   5.114   0.682  15.926  1.0639 -0.1473 -0.4104
19933TIP3    H281291   4.983   0.641  15.861  0.2816  1.1233  0.3281
19934TIP3   OH281292   5.787   6.052  15.385 -0.1105 -0.2343 -0.1412
19934TIP3    H181293   5.704   6.080  15.423  1.0605  1.4032  1.4422
19934TIP3    H281294   5.791   5.958  15.401 -1.8786 -0.4293 -0.7341
19935TIP3   OH281295   3.892   1.896  17.192  0.3908  0.7951 -0.1730
19935TIP3    H181296   3.956   1.878  17.261 -1.3726  0.7970  1.5392
19935TIP3    H281297   3.823   1.947  17.235 -0.9011  0.5852 -1.8706
19936TIP3   OH281298   3.487   2.482  12.349 -0.4438  0.3841  0.1211
19936TIP3    H181299   3.551   2.463  12.280  0.5942  0.9109  0.9312
19936TIP3    H281300   3.539   2.503  12.426 -1.4658 -3.3818  2.0963
19937TIP3   OH281301   3.509   0.605  16.815  0.1566  0.4414 -0.2284
19937TIP3    H181302   3.505   0.682  16.871 -0.8667  0.3827 -0.1869
19937TIP3    H281303   3.451   0.542  16.858  1.5908 -0.6465  0.1635
19938TIP3   OH281304   5.752   5.236  12.131  0.5741 -0.9737  0.0132
19938TIP3    H181305   5.681   5.231  12.067  0.1667  0.2463  0.3503
19938TIP3    H281306   5.831   5.216  12.081  0.1536 -0.9748 -0.6600
19939TIP3   OH281307   1.262   0.283   6.056  0.1847 -0.2154  0.2059
19939TIP3    H181308   1.283   0.248   6.143 -0.3692  0.9216  0.8179
19939TIP3    H281309   1.281   0.377   6.063  0.2706 -0.1337 -0.9523
19940TIP3   OH281310   3.069   0.483   6.361  0.5975 -0.3113  0.4242
19940TIP3    H181311   3.150   0.533   6.352  1.0415 -0.8160  1.4416
19940TIP3    H281312   3.096   0.392   6.345 -0.2155 -0.2548 -1.5031
19941TIP3   OH281313   1.034   6.019  11.850 -0.4821  0.0210  0.7688
19941TIP3    H181314   1.085   5.993  11.773 -1.0381 -0.9632  0.7090
19941TIP3    H281315   0.976   5.944  11.866  0.1516 -0.1237  2.5940
19942TIP3   OH281316   1.534   5.879  11.882  0.3902  0.5771 -0.4203
19942TIP3    H181317   1.602   5.871  11.815  0.3570 -2.7228 -0.2392
19942TIP3    H281318   1.577   5.922  11.956  2.3072 -1.2969 -0.3669
19943TIP3   OH281319   1.212   3.661  16.193 -0.2261 -0.0755 -0.2578
19943TIP3    H181320   1.145   3.683  16.258 -0.2806  0.2520 -0.4238
19943TIP3    H281321   1.268   3.598  16.237  0.4406  1.0342  0.5293
19944TIP3   OH281322   2.451   0.056  15.883 -0.1827  0.5186  0.2326
19944TIP3    H181323   2.457   0.046  15.788 -0.0365 -1.5504  0.3956
19944TIP3    H281324   2.497  -0.020  15.917 -2.4764 -0.2437  1.9164
19945TIP3   OH281325   4.793   1.817  15.652  0.2405 -0.0396 -0.2378
19945TIP3    H181326   4.885   1.835  15.673  0.9947 -0.5598 -2.7222
19945TIP3    H281327   4.745   1.893  15.686  1.6633  0.5172  0.6066
19946TIP3   OH281328   0.128   6.466  15.571  0.3754 -0.5820 -0.0432
19946TIP3    H181329   0.200   6.495  15.627  0.1166 -0.9141  0.4698
19946TIP3    H281330   0.169   6.411  15.504  0.5797 -0.9036  0.3451
19947TIP3   OH281331   3.554   2.177   2.410  0.0337 -0.2169 -0.8985
19947TIP3    H181332   3.516   2.128   2.482  1.0852  0.2969  0.0316
19947TIP3    H281333   3.508   2.145   2.332 -0.7607 -1.1400 -0.0725
19948TIP3   OH281334   2.879   5.140   1.508  0.6379 -0.4298 -0.5444
19948TIP3    H181335   2.881   5.046   1.526 -0.2031 -0.4938 -0.7332
19948TIP3    H281336   2.947   5.154   1.442 -0.0770 -1.1099 -1.4385
19949TIP3   OH281337   6.215   6.016   1.269 -0.5573  0.1780 -0.3452
19949TIP3    H181338   6.134   6.058   1.298 -0.6201  0.6185 -1.1340
19949TIP3    H281339   6.192   5.973   1.186 -0.8071 -2.4479  0.9780
19950TIP3   OH281340   0.003   6.362   1.594 -0.6937 -0.3644 -0.1644
19950TIP3    H181341   0.032   6.313   1.518 -0.0817 -1.2420  0.6120
19950TIP3    H281342  -0.038   6.296   1.651 -1.8035  0.3938 -0.0376
19951TIP3   OH281343   3.318   5.009  12.660 -0.5399 -0.4169 -0.1259
19951TIP3    H181344   3.301   5.099  12.631  0.5560 -0.2997 -0.4522
19951TIP3    H281345   3.296   4.955  12.584  2.9657 -0.0627 -1.6195
19952TIP3   OH281346   0.548   2.845  12.231  0.6492 -0.0088  0.1647
19952TIP3    H181347   0.463   2.848  12.274  0.7305  0.0689  0.3191
19952TIP3    H281348   0.567   2.936  12.209 -0.6783 -0.2837 -2.5572
19953TIP3   OH281349   4.496   3.869  12.289  0.6559  0.0221  0.0098
19953TIP3    H181350   4.477   3.898  12.200 -0.3790 -2.3914 -0.6309
19953TIP3    H281351   4.496   3.773  12.284 -0.2535 -0.2019  2.7656
19954TIP3   OH281352   6.337   3.995  11.798  0.3465  0.0305 -0.0994
19954TIP3    H181353   6.322   4.041  11.880  0.7893 -1.3850  0.8134
19954TIP3    H281354   6.268   4.026  11.740  1.9886  3.6434 -0.3863
19955TIP3   OH281355   4.727   4.183   0.378 -0.5019 -0.0994  0.3707
19955TIP3    H181356   4.771   4.180   0.292  1.3938  1.0769  1.2210
19955TIP3    H281357   4.686   4.098   0.387  2.0555 -1.5135 -0.3433
19956TIP3   OH281358   3.707   4.706  10.837  0.4264  0.4325 -0.2666
19956TIP3    H181359   3.632   4.751  10.876 -0.2055  0.2399 -1.2133
19956TIP3    H281360   3.766   4.690  10.910 -0.2411  1.0089  0.4208
19957TIP3   OH281361   0.635   1.164   2.396 -0.4057  0.4425 -0.2155
19957TIP3    H181362   0.649   1.069   2.403 -0.5670  0.4408  0.1220
19957TIP3    H281363   0.617   1.192   2.486  3.2174  1.3953  0.3458
19958TIP3   OH281364   2.107   1.094  16.639 -0.1778  0.0106 -0.1732
19958TIP3    H181365   2.092   1.005  16.672 -3.1317  0.8845  1.2643
19958TIP3    H281366   2.176   1.129  16.695  0.2253 -1.0223 -0.0093
19959TIP3   OH281367   0.760   2.339  12.317  0.4555  0.0589 -0.3756
19959TIP3    H181368   0.702   2.262  12.317  2.4725 -1.5609  0.3993
19959TIP3    H281369   0.719   2.400  12.256 -2.1338 -0.8964  0.2380
19960TIP3   OH281370   2.768   2.056   5.797 -0.3237 -0.1778  0.2056
19960TIP3    H181371   2.856   2.020   5.793 -0.0852  0.4731 -0.9508
19960TIP3    H281372   2.771   2.134   5.742 -2.3735 -1.7582 -2.4088
19961TIP3   OH281373   3.740   4.119  16.571 -0.2570 -0.3533 -0.1354
19961TIP3    H181374   3.779   4.178  16.635 -1.3460 -0.2316  0.4330
19961TIP3    H281375   3.646   4.137  16.575 -0.3326 -0.1628 -1.9552
19962TIP3   OH281376   4.291   6.639   6.330 -0.2515 -0.0163  0.0697
19962TIP3    H181377   4.238   6.576   6.379 -0.4444  0.0053 -0.1120
19962TIP3    H281378   4.247   6.723   6.343 -0.1101  0.0476  0.1411
19963TIP3   OH281379   6.491   3.815   4.481 -0.1341 -0.9196  0.2939
19963TIP3    H181380   6.453   3.902   4.467  1.1944 -0.3505 -0.0068
19963TIP3    H281381   6.484   3.801   4.575  0.7527  0.0889  0.5404
19964TIP3   OH281382   3.323   2.244   5.633  0.2973 -0.0615  0.1479
19964TIP3    H181383   3.315   2.208   5.721 -1.5110 -1.4212 -0.5251
19964TIP3    H281384   3.246   2.300   5.623  1.1134  1.0445 -0.1727
19965TIP3   OH281385   3.529   4.964   0.409  0.0729 -0.3304  0.3530
19965TIP3    H181386   3.551   5.047   0.450  0.1878  0.3457 -1.0234
19965TIP3    H281387   3.469   4.921   0.471  0.3453  0.5787  1.2651
19966TIP3   OH281388   3.432   4.344  15.479  0.7649  0.2590  0.1015
19966TIP3    H181389   3.395   4.385  15.401 -0.5598 -0.5758  0.2758
19966TIP3    H281390   3.415   4.407  15.549  0.1627  0.1214  0.0802
19967TIP3   OH281391   0.951   6.117   1.329 -0.6728  0.1065  0.1618
19967TIP3    H181392   0.996   6.130   1.413 -0.5622 -0.6798  0.2327
19967TIP3    H281393   0.948   6.022   1.318 -0.7269  0.2031 -0.7101
19968TIP3   OH281394   1.894   1.780  16.340 -0.2573 -0.0990 -0.2491
19968TIP3    H181395   1.906   1.736  16.424 -0.9147 -1.2869 -0.7446
19968TIP3    H281396   1.830   1.849  16.359  1.5406  1.3750  0.7553
19969TIP3   OH281397   0.620   2.543  11.929  0.3979  0.2982 -0.0383
19969TIP3    H181398   0.655   2.458  11.955 -0.0083 -0.0188 -0.5194
19969TIP3    H281399   0.689   2.605  11.954 -0.1608  0.0868  2.2577
19970TIP3   OH281400   6.636   6.401   5.013  0.4962 -0.1321  0.3949
19970TIP3    H181401   6.593   6.403   5.099  0.5024  0.8893  0.3764
19970TIP3    H281402   6.573   6.440   4.953  0.6729 -0.4268  0.0104
19971TIP3   OH281403   6.720   3.681  12.829 -0.2179  0.0816  0.5430
19971TIP3    H181404   6.640   3.719  12.866 -0.1858  0.1253  0.5681
19971TIP3    H281405   6.783   3.684  12.901  0.1550  1.1106  0.2019
19972TIP3   OH281406   0.247   6.572   6.221  0.1370  0.3719 -0.1815
19972TIP3    H181407   0.261   6.563   6.315  1.8089 -2.9359 -0.5972
19972TIP3    H281408   0.335   6.583   6.184 -0.1660 -1.2109 -1.5009
19973TIP3   OH281409   1.747   6.627  15.100  0.3159 -0.1318 -0.6296
19973TIP3    H181410   1.723   6.558  15.162  1.2934 -0.3125 -0.4288
19973TIP3    H281411   1.840   6.613  15.083  0.0236 -0.2327 -2.3377
19974TIP3   OH281412   4.990   3.188   2.152 -0.2790 -0.0333  0.0786
19974TIP3    H181413   4.960   3.226   2.235  0.7081  1.5475 -0.2461
19974TIP3    H281414   5.074   3.148   2.173  0.7837  1.8044 -0.4321
19975TIP3   OH281415   2.911   6.194   5.056  0.1606 -0.2808 -0.5457
19975TIP3    H181416   2.924   6.287   5.077 -0.8591 -0.3608  0.5722
19975TIP3    H281417   2.974   6.176   4.987  2.0259  0.6648  0.8233
19976TIP3   OH281418   2.508   6.436   4.526  0.0208 -0.4487 -0.3143
19976TIP3    H181419   2.424   6.477   4.508 -0.3107 -1.2950 -0.7453
19976TIP3    H281420   2.573   6.500   4.496 -0.4522  0.4174  0.4861
19977TIP3   OH281421   0.632   2.148   0.578 -0.1440  0.0038 -0.1705
19977TIP3    H181422   0.579   2.068   0.571  1.4505 -1.1987  0.9102
19977TIP3    H281423   0.600   2.191   0.657 -1.6984  1.0199 -1.2977
19978TIP3   OH281424   4.162   2.824   4.397  0.2715 -0.3098 -0.2287
19978TIP3    H181425   4.174   2.833   4.491 -0.8335 -1.1353  0.0033
19978TIP3    H281426   4.083   2.771   4.387  0.2286 -0.0294 -1.6220
19979TIP3   OH281427   2.560   2.880  10.844 -0.3969  0.1378 -0.1105
19979TIP3    H181428   2.607   2.803  10.877 -1.8766 -1.5242 -1.5826
19979TIP3    H281429   2.569   2.946  10.912  3.0112 -0.4419  0.1711
19980TIP3   OH281430   4.314   2.660  12.564  0.8065  0.2982 -0.1270
19980TIP3    H181431   4.279   2.572  12.582 -0.1684  1.1279  2.5148
19980TIP3    H281432   4.399   2.644  12.524 -0.2197 -1.8145 -1.6696
19981TIP3   OH281433   3.042   0.915  10.945 -0.3150  0.0170  0.2291
19981TIP3    H181434   2.999   0.833  10.971 -0.6831  0.4064  0.8593
19981TIP3    H281435   3.010   0.931  10.856  0.4746 -0.9968 -0.2719
19982TIP3   OH281436   1.705   2.247   5.209  0.2159 -0.1214 -0.0142
19982TIP3    H181437   1.688   2.229   5.302 -1.5961 -0.0890 -0.2962
19982TIP3    H281438   1.639   2.313   5.186  0.5319 -0.2616 -1.3776
19983TIP3   OH281439   3.882   0.085  16.538  0.3824 -0.0454 -0.4796
19983TIP3    H181440   3.940   0.161  16.548  1.6039 -0.4937 -3.1539
19983TIP3    H281441   3.942   0.011  16.524 -0.8009 -0.9246 -1.0786
19984TIP3   OH281442   2.828   0.518   2.893 -0.6189 -0.8796  0.1042
19984TIP3    H181443   2.810   0.493   2.984  2.5830  2.1448  1.8023
19984TIP3    H281444   2.903   0.464   2.867  0.8689  0.7909  0.7248
19985TIP3   OH281445   2.398   0.045  14.145 -0.2519  0.1551 -0.2469
19985TIP3    H181446   2.486   0.013  14.165 -0.3438 -0.4390 -0.7784
19985TIP3    H281447   2.351  -0.031  14.112 -0.8994  0.5210 -0.1946
19986TIP3   OH281448   2.639   5.401  16.693 -0.1639  0.2769  0.9997
19986TIP3    H181449   2.648   5.467  16.625  1.0442 -0.8688 -0.0072
19986TIP3    H281450   2.721   5.351  16.690 -1.7162 -2.4780  0.3596
19987TIP3   OH281451   0.426   5.304  12.886  0.1758  0.0937 -0.1746
19987TIP3    H181452   0.454   5.213  12.884 -1.0637 -0.2954 -0.4899
19987TIP3    H281453   0.359   5.310  12.819 -0.8114  0.8849  0.8421
19988TIP3   OH281454   3.062   5.905  13.360  0.1217 -0.1350 -0.2425
19988TIP3    H181455   3.057   5.837  13.293  0.1735 -0.8942  0.5181
19988TIP3    H281456   2.971   5.926  13.379  0.0752 -0.9426  0.4697
19989TIP3   OH281457   5.640   4.963   1.556  0.2973  0.3008 -0.5034
19989TIP3    H181458   5.636   4.878   1.511  0.1297  0.0356 -0.0028
19989TIP3    H281459   5.553   4.975   1.593  0.1122  1.0301 -1.1644
19990TIP3   OH281460   1.025   3.571   3.447 -0.0342  0.0780 -0.3682
19990TIP3    H181461   1.060   3.623   3.375  1.2675 -0.8809 -0.4522
19990TIP3    H281462   0.952   3.623   3.481 -0.4167  0.7346 -2.1102
19991TIP3   OH281463   1.777   1.120   2.747  0.8456  0.5485  0.1287
19991TIP3    H181464   1.797   1.113   2.654 -0.0547  1.7542 -0.1919
19991TIP3    H281465   1.770   1.214   2.763  0.1263  0.3369  1.2096
19992TIP3   OH281466   6.699   6.256  11.915 -0.1755  0.1234  0.0392
19992TIP3    H181467   6.667   6.341  11.884 -1.4817 -0.4777 -0.3230
19992TIP3    H281468   6.621   6.210  11.945  0.4946 -0.9972  0.1305
19993TIP3   OH281469   6.429   1.485  15.417  0.1138 -0.2975 -0.1807
19993TIP3    H181470   6.336   1.506  15.407  0.1392 -0.0411  0.1110
19993TIP3    H281471   6.472   1.530  15.344 -0.1365 -1.4658 -1.0762
19994TIP3   OH281472   2.413   1.281   0.564 -0.2223 -0.4633  0.0391
19994TIP3    H181473   2.458   1.355   0.523  1.3422 -1.0488  0.6319
19994TIP3    H281474   2.322   1.289   0.534 -0.3730  2.2818  0.8825
19995TIP3   OH281475   5.378   2.410  14.384 -0.1033 -0.1091 -0.1958
19995TIP3    H181476   5.363   2.383  14.294  0.1283  1.2959 -0.6667
19995TIP3    H281477   5.389   2.327  14.432 -1.7340 -0.9337 -1.1574
19996TIP3   OH281478   6.060   1.555   2.151 -0.1673 -0.0769  0.0578
19996TIP3    H181479   6.023   1.543   2.238  0.0399 -0.3413  0.1111
19996TIP3    H281480   6.094   1.469   2.127 -1.7182 -0.4350 -0.9877
19997TIP3   OH281481   1.439   2.128  15.922  0.3171  0.6630 -0.0641
19997TIP3    H181482   1.494   2.052  15.939 -0.7116 -0.1794 -0.4305
19997TIP3    H281483   1.477   2.197  15.977 -0.1395 -0.7189  2.1411
19998TIP3   OH281484   0.444   3.633   6.123 -0.1839  0.5810  0.4203
19998TIP3    H181485   0.455   3.670   6.210 -1.6159  0.5838  0.6138
19998TIP3    H281486   0.378   3.688   6.081 -1.1666 -0.7546  0.1496
19999TIP3   OH281487   6.240   3.607  15.794  0.7308 -0.7116 -0.3952
19999TIP3    H181488   6.179   3.670  15.756  0.8356 -0.1023  0.4186
19999TIP3    H281489   6.300   3.584  15.723 -0.2219 -1.0527 -1.1045
20000TIP3   OH281490   4.296   6.499  13.925 -0.2046  0.3810 -0.1676
20000TIP3    H181491   4.375   6.524  13.974  0.1135 -0.7356 -0.0943
20000TIP3    H281492   4.321   6.511  13.833  0.0641 -0.0204 -0.1461
20001TIP3   OH281493   3.251   2.951   0.201  0.1181  0.3598 -0.2246
20001TIP3    H181494   3.232   2.968   0.109  1.2491  0.8190 -0.3850
20001TIP3    H281495   3.217   2.863   0.217 -1.8697  1.0104 -0.5326
20002TIP3   OH281496   6.038   2.471  13.625 -0.0003 -0.0927 -0.5396
20002TIP3    H181497   6.040   2.466  13.721 -2.1376 -2.4845 -0.5010
20002TIP3    H281498   6.121   2.511  13.601  1.6020 -1.4327  2.2470
20003TIP3   OH281499   2.318   1.838   3.875 -0.2727  0.7157 -0.2709
20003TIP3    H181500   2.289   1.895   3.946 -1.3943  1.2512 -1.1175
20003TIP3    H281501   2.250   1.770   3.869  0.1542  0.2950 -0.4058
20004TIP3   OH281502   3.447   1.715   1.274  0.6041 -0.2870 -0.5820
20004TIP3    H181503   3.531   1.737   1.234  0.1119 -0.1872 -1.5779
20004TIP3    H281504   3.413   1.798   1.308  1.8652 -0.6505  1.7482
20005TIP3   OH281505   1.649   6.490  14.514 -0.2768 -0.1346 -0.4479
20005TIP3    H181506   1.686   6.404  14.494 -0.6586 -0.2737 -0.5716
20005TIP3    H281507   1.624   6.484  14.606  0.4982  0.1437 -0.2108
20006TIP3   OH281508   2.646   5.767  12.962  0.0144 -0.4595 -0.1031
20006TIP3    H181509   2.605   5.840  13.008 -0.0731  2.3887 -4.1589
20006TIP3    H281510   2.700   5.725  13.029 -1.4359  2.0603  2.9652
20007TIP3   OH281511   6.635   4.736   0.424 -0.2617 -0.4010 -0.2877
20007TIP3    H181512   6.701   4.684   0.470  0.3961  0.2384 -0.4949
20007TIP3    H281513   6.557   4.729   0.480 -0.1569 -1.4950 -0.2530
20008TIP3   OH281514   5.441   2.933  11.663  0.3602 -0.1930  0.4074
20008TIP3    H181515   5.522   2.974  11.692  0.7463 -1.4325  1.1546
20008TIP3    H281516   5.373   2.999  11.677  1.4687  1.6282 -2.1004
20009TIP3   OH281517   4.596   0.261   4.994 -0.2327  0.1431  0.0080
20009TIP3    H181518   4.610   0.196   5.063  0.1355  1.3413  1.0841
20009TIP3    H281519   4.521   0.312   5.024 -2.1658 -1.2847 -2.0123
20010TIP3   OH281520   0.133   6.540   1.271  0.5371 -0.0995  0.1550
20010TIP3    H181521   0.144   6.631   1.241 -1.4770 -0.0730 -0.6343
20010TIP3    H281522   0.176   6.488   1.203 -1.2856  0.1382 -1.2756
20011TIP3   OH281523   3.070   0.976  14.931 -0.0082  0.0619  0.0347
20011TIP3    H181524   3.031   0.965  15.018  2.0437 -2.4038  0.7709
20011TIP3    H281525   3.026   0.911  14.876  0.0690  0.2749 -0.2852
20012TIP3   OH281526   4.283   4.040  13.131 -0.0855 -0.2271  0.9886
20012TIP3    H181527   4.222   4.111  13.111  0.9429  0.4470  0.1691
20012TIP3    H281528   4.286   3.988  13.051  1.6654  0.7089  0.3820
20013TIP3   OH281529   5.743   1.539  14.107 -0.0277  0.7262 -0.0382
20013TIP3    H181530   5.746   1.468  14.170 -0.5867 -0.1704 -0.9890
20013TIP3    H281531   5.723   1.617  14.159  2.2139  0.5148  1.2427
20014TIP3   OH281532   2.138   4.720  11.769  0.1298  0.1287 -0.2052
20014TIP3    H181533   2.219   4.689  11.730  0.4373  0.8000 -0.1106
20014TIP3    H281534   2.166   4.783  11.835 -0.4464 -0.0237  0.1935
20015TIP3   OH281535   6.016   2.234  13.138  0.0286 -0.2783 -0.0110
20015TIP3    H181536   6.064   2.182  13.203 -0.4179 -2.2609 -1.1837
20015TIP3    H281537   6.057   2.321  13.141  1.3549 -0.9112  1.4589
20016TIP3   OH281538   1.991   0.740   4.172 -0.4023 -0.0249  0.0236
20016TIP3    H181539   2.064   0.740   4.234 -0.4844 -0.0653  0.1213
20016TIP3    H281540   1.956   0.651   4.175  1.1176 -0.7456 -1.9212
20017TIP3   OH281541   2.172   1.892  11.574 -0.1590 -0.0408 -0.2344
20017TIP3    H181542   2.166   1.941  11.656 -0.5666 -1.6733  0.7576
20017TIP3    H281543   2.187   1.802  11.601 -1.6008 -0.8520 -1.8976
20018TIP3   OH281544   1.778   6.163  16.010  0.3641  0.3978 -0.0991
20018TIP3    H181545   1.806   6.173  16.101  1.7959  0.4459 -0.5274
20018TIP3    H281546   1.723   6.084  16.011  1.3588 -0.3173  0.6117
20019TIP3   OH281547   4.091   4.072   3.810  0.2482 -0.0777  0.0528
20019TIP3    H181548   4.112   4.146   3.754 -0.2576  1.0535  1.3101
20019TIP3    H281549   4.024   4.105   3.869 -0.2179 -1.6423  0.4427
20020TIP3   OH281550   0.086   3.741  13.557  0.5663 -0.8598 -0.1664
20020TIP3    H181551   0.129   3.689  13.488 -0.3875 -2.4319  0.3638
20020TIP3    H281552   0.138   3.723  13.636  0.6126 -0.4802 -0.1090
20021TIP3   OH281553   3.999   3.724   1.320 -0.1617  0.1113 -0.0567
20021TIP3    H181554   3.949   3.642   1.323 -1.2093  0.6355 -1.9594
20021TIP3    H281555   4.067   3.712   1.387 -2.9466 -0.4937  2.9167
20022TIP3   OH281556   6.136   0.670   1.368 -0.8483 -0.4335 -0.3470
20022TIP3    H181557   6.201   0.630   1.309 -0.6796 -1.7905  0.6969
20022TIP3    H281558   6.157   0.634   1.454 -2.4220 -0.1748  0.1755
20023TIP3   OH281559   0.056   5.596  11.321  0.0962  0.0057  0.2704
20023TIP3    H181560  -0.033   5.615  11.291 -0.7824 -1.6016  1.6980
20023TIP3    H281561   0.044   5.558  11.408  2.2176 -0.0019  0.6021
20024TIP3   OH281562   5.713   2.246  16.421  0.4855  0.2104 -0.4835
20024TIP3    H181563   5.785   2.305  16.442  1.9440 -1.2415 -1.2502
20024TIP3    H281564   5.645   2.303  16.386  1.2079  1.6240  0.3330
20025TIP3   OH281565   5.086   6.020  11.895  0.9128  0.6914 -0.0975
20025TIP3    H181566   5.109   5.997  11.804  0.5826 -0.7133  0.1486
20025TIP3    H281567   4.991   6.028  11.894  0.9264  0.8787  0.0931
20026TIP3   OH281568   1.777   4.253   5.914  0.9520 -0.4475 -0.0661
20026TIP3    H181569   1.693   4.220   5.884  1.2318 -0.1162 -1.2470
20026TIP3    H281570   1.763   4.272   6.007 -0.1506 -0.7748 -0.1502
20027TIP3   OH281571   0.714   5.780   0.948  0.7889 -0.2761  1.2914
20027TIP3    H181572   0.669   5.728   0.881 -0.8989  2.1589  0.3856
20027TIP3    H281573   0.656   5.776   1.024 -0.6859  2.1818  0.3985
20028TIP3   OH281574   1.967   2.591  13.281  0.7465 -0.2123  0.8343
20028TIP3    H181575   1.929   2.659  13.226  0.1006 -0.9055  0.4068
20028TIP3    H281576   1.960   2.626  13.370 -1.3075 -0.4495  0.8328
20029TIP3   OH281577   5.300   2.474  11.043 -0.2604 -0.2729  0.6151
20029TIP3    H181578   5.373   2.421  11.074  0.7322  0.4829 -0.3677
20029TIP3    H281579   5.339   2.536  10.981 -1.5868  0.7556  0.7533
20030TIP3   OH281580   3.019   0.009  14.782 -0.1837 -0.5866  0.1587
20030TIP3    H181581   3.069  -0.001  14.863 -0.2342 -3.1664 -0.0597
20030TIP3    H281582   2.983  -0.078  14.765  0.7726 -0.4566 -3.2468
20031TIP3   OH281583   1.080   2.522  12.841  0.1688 -0.0698 -0.1215
20031TIP3    H181584   1.063   2.501  12.749 -1.7798  0.8599 -0.0126
20031TIP3    H281585   1.064   2.440  12.888  2.7653 -1.0180 -0.6972
20032TIP3   OH281586   2.353   6.228   5.442  0.2573  0.7565  0.0341
20032TIP3    H181587   2.275   6.226   5.386  0.9181 -0.8506 -0.8944
20032TIP3    H281588   2.409   6.295   5.403  0.4154  0.1327 -0.8126
20033TIP3   OH281589   6.250   4.256  16.270  0.3129 -0.4909  0.7329
20033TIP3    H181590   6.268   4.253  16.364 -0.9731  0.1409  1.0286
20033TIP3    H281591   6.183   4.189  16.256 -1.3397  1.0553  0.7663
20034TIP3   OH281592   4.650   4.573  12.436  0.1379  0.8945  0.4166
20034TIP3    H181593   4.628   4.636  12.368  1.4046  0.0280 -0.8530
20034TIP3    H281594   4.638   4.488  12.395  2.6279  0.3661  0.6581
20035TIP3   OH281595   5.186   3.824  16.705 -0.0572  0.4732 -0.5966
20035TIP3    H181596   5.231   3.874  16.637  0.5065 -0.6621 -1.0792
20035TIP3    H281597   5.168   3.888  16.774  1.3600  1.1758 -0.8482
20036TIP3   OH281598   6.128   1.259  10.257  0.1673 -0.5320 -0.2666
20036TIP3    H181599   6.033   1.259  10.247 -0.1994 -1.0008  2.3348
20036TIP3    H281600   6.153   1.167  10.258  0.6593 -0.4118 -0.9701
20037TIP3   OH281601   6.620   5.607   3.057 -0.1717  0.3000 -0.2958
20037TIP3    H181602   6.576   5.524   3.039  0.0966  0.0068  0.3494
20037TIP3    H281603   6.695   5.582   3.112  0.0637  0.9361 -0.3271
20038TIP3   OH281604   1.120   1.751   3.654  0.4448  0.3600 -0.0834
20038TIP3    H181605   1.130   1.845   3.670 -0.9039  0.3676  0.8108
20038TIP3    H281606   1.204   1.725   3.616  1.5057  1.5812  1.2869
20039TIP3   OH281607   2.919   4.977   4.675 -0.6096 -0.5145  0.2101
20039TIP3    H181608   2.962   4.954   4.757  0.4568  0.6279  0.0092
20039TIP3    H281609   2.979   4.948   4.607 -0.6521  0.1135 -0.1064
20040TIP3   OH281610   1.790   2.143  12.612 -0.2157  0.3187 -0.3145
20040TIP3    H181611   1.697   2.163  12.625  0.0291  1.1952  0.1514
20040TIP3    H281612   1.836   2.206  12.667  0.5930 -2.0974  1.9747
20041TIP3   OH281613   3.650   0.381   4.124  0.4919 -0.7600  0.2274
20041TIP3    H181614   3.602   0.445   4.176  1.3936  0.8045 -0.8246
20041TIP3    H281615   3.722   0.354   4.182  0.7576  0.0180  0.2706
20042TIP3   OH281616   3.319   0.844  11.007  0.2880  0.2727  0.2230
20042TIP3    H181617   3.233   0.881  10.989  0.2179  0.5705  1.1310
20042TIP3    H281618   3.324   0.766  10.951 -1.2362 -0.6940  1.3549
20043TIP3   OH281619   0.526   0.172   2.400  0.0072 -0.0965  0.4005
20043TIP3    H181620   0.507   0.130   2.316  2.8970 -0.6965 -0.0460
20043TIP3    H281621   0.477   0.120   2.464 -0.1562 -1.2784 -0.6455
20044TIP3   OH281622   2.087   1.719   5.523 -0.7506 -0.1280  0.8605
20044TIP3    H181623   2.147   1.651   5.552 -0.8545 -1.3860 -1.5837
20044TIP3    H281624   2.108   1.731   5.430 -1.6130  2.2774  0.9125
20045TIP3   OH281625   4.120   3.373   5.878 -0.5285  0.7692 -0.6303
20045TIP3    H181626   4.208   3.395   5.907  0.2695 -1.5609 -1.1622
20045TIP3    H281627   4.114   3.278   5.886 -3.0362  0.8698 -0.5210
20046TIP3   OH281628   6.176   0.740  16.888  0.6674  0.1804 -0.4929
20046TIP3    H181629   6.191   0.655  16.846 -0.3578  0.4514 -1.4470
20046TIP3    H281630   6.087   0.735  16.922  1.1975  0.2702  0.9944
20047TIP3   OH281631   5.827   6.611   4.331  0.0150 -0.0151  0.3074
20047TIP3    H181632   5.895   6.552   4.364 -1.2455 -1.2007  0.8735
20047TIP3    H281633   5.845   6.617   4.237  2.8467  2.3582  0.8476
20048TIP3   OH281634   3.743   5.662   5.401 -0.3842  0.7763  0.0009
20048TIP3    H181635   3.750   5.754   5.428 -0.2405  0.7389  0.0926
20048TIP3    H281636   3.746   5.613   5.483  0.0523  0.6603 -0.0827
20049TIP3   OH281637   5.147   3.994   3.009 -0.3465  0.3525 -0.3069
20049TIP3    H181638   5.187   3.934   2.946 -0.4198  0.0699 -0.0888
20049TIP3    H281639   5.074   4.034   2.961 -0.0457  0.5793 -0.5826
20050TIP3   OH281640   0.353   5.467   1.229 -0.1715  0.2905  0.2535
20050TIP3    H181641   0.263   5.495   1.242 -1.4317 -3.4016  0.5690
20050TIP3    H281642   0.355   5.430   1.141  0.1609 -2.1771  1.2012
20051TIP3   OH281643   4.237   1.125  11.047 -0.3954 -0.6158  0.4148
20051TIP3    H181644   4.294   1.170  11.110  0.3894  0.5169 -1.0476
20051TIP3    H281645   4.284   1.045  11.025  0.2198 -0.1133 -0.1191
20052TIP3   OH281646   0.049   6.836   3.384 -0.3299  0.1311  0.2649
20052TIP3    H181647  -0.008   6.906   3.416 -1.3733 -0.1250 -0.9755
20052TIP3    H281648   0.004   6.755   3.408 -0.1507 -0.0895 -0.1343
20053TIP3   OH281649   0.005   2.350   3.426 -0.3926  0.0369 -0.8384
20053TIP3    H181650  -0.044   2.307   3.497  0.9825 -4.2741 -2.2206
20053TIP3    H281651   0.077   2.395   3.471 -2.2929  1.6840  0.7562
20054TIP3   OH281652   4.855   4.082   5.788 -0.0385  0.4447  0.3352
20054TIP3    H181653   4.921   4.039   5.842  0.5033 -1.1728 -1.5043
20054TIP3    H281654   4.904   4.146   5.737 -0.1188  0.2111 -0.0382
20055TIP3   OH281655   4.920   2.660   0.901 -0.4887  0.7508  0.8746
20055TIP3    H181656   4.905   2.741   0.852 -0.0337  0.4933  0.2828
20055TIP3    H281657   4.846   2.604   0.878  0.6699 -0.1070 -1.1549
20056TIP3   OH281658   3.383   2.111  14.195  0.0971  0.3603  0.2677
20056TIP3    H181659   3.364   2.155  14.112 -0.5721  0.1019  0.2725
20056TIP3    H281660   3.350   2.171  14.262 -2.8129 -0.9946  0.2178
20057TIP3   OH281661   2.074   1.720  12.633  0.1811 -0.0701  0.1070
20057TIP3    H181662   2.022   1.764  12.565  0.2503 -0.9826 -0.5611
20057TIP3    H281663   2.099   1.637  12.593 -0.2425 -0.8773  1.4611
20058TIP3   OH281664   2.089   1.966  16.690  0.6204  0.1480  0.3323
20058TIP3    H181665   2.079   1.918  16.608  0.0718 -1.5477  1.3443
20058TIP3    H281666   2.150   1.914  16.742  1.5021  1.5559  0.7525
20059TIP3   OH281667   5.476   2.639  16.985  0.2285  0.1831 -0.4967
20059TIP3    H181668   5.473   2.700  16.911 -0.7308  0.5361 -0.1824
20059TIP3    H281669   5.489   2.694  17.062 -2.9244  0.3211  0.0712
20060TIP3   OH281670   0.411   3.078   0.977 -0.5529 -0.0596 -0.6667
20060TIP3    H181671   0.412   3.174   0.971  0.5758  0.0328  0.5664
20060TIP3    H281672   0.458   3.058   1.058 -0.1423 -1.6880 -1.2586
20061TIP3   OH281673   4.867   3.920   1.933  0.0660 -0.6404  0.5554
20061TIP3    H181674   4.888   3.833   1.966 -0.7957 -1.3808 -0.7505
20061TIP3    H281675   4.886   3.979   2.006 -0.1740 -2.0095  1.7733
20062TIP3   OH281676   3.069   5.044   0.261  0.4037 -0.0167  0.2150
20062TIP3    H181677   3.065   4.984   0.188 -0.3049 -0.8766  0.9351
20062TIP3    H281678   3.161   5.070   0.267  1.0459 -2.2301  0.8178
20063TIP3   OH281679   5.610   5.352  13.506 -0.0425 -0.2356 -0.6363
20063TIP3    H181680   5.683   5.352  13.568 -0.8981  1.5316  0.4572
20063TIP3    H281681   5.585   5.260  13.498  0.0283 -0.5310  1.7809
20064TIP3   OH281682   0.745   6.130   6.472  0.3598  0.3444  0.0415
20064TIP3    H181683   0.742   6.225   6.482 -3.0436  0.5235 -1.3311
20064TIP3    H281684   0.810   6.114   6.404 -0.7326  1.9744 -1.4768
20065TIP3   OH281685   0.064   1.942  11.197 -0.0858 -0.4623  0.6627
20065TIP3    H181686   0.072   1.865  11.142  1.1103 -1.2584  1.8918
20065TIP3    H281687   0.009   1.914  11.271  2.8230 -1.1868  2.7311
20066TIP3   OH281688   1.627   2.696   0.772 -0.0927 -0.1148  0.1334
20066TIP3    H181689   1.710   2.742   0.782  0.1023 -0.8874  2.7351
20066TIP3    H281690   1.649   2.604   0.784 -1.0462 -0.5458 -1.1786
20067TIP3   OH281691   0.300   0.944   2.529  0.2447  0.2423  0.1946
20067TIP3    H181692   0.234   1.004   2.564 -0.0661  0.2392 -0.3797
20067TIP3    H281693   0.255   0.897   2.459  0.1662 -1.4411  1.3443
20068TIP3   OH281694   2.092   1.188   5.470  0.2574  0.4770 -0.3724
20068TIP3    H181695   2.002   1.188   5.437  0.0798  1.1326  0.1155
20068TIP3    H281696   2.135   1.258   5.422 -0.3092  2.2555  1.5784
20069TIP3   OH281697   3.592   1.448  11.205 -0.3249  0.2760  0.2642
20069TIP3    H181698   3.670   1.486  11.246  0.0469 -1.2410  1.0093
20069TIP3    H281699   3.621   1.423  11.118  0.6223 -2.0646  1.1869
20070TIP3   OH281700   3.868   0.942  15.472 -0.0273 -0.5248  0.1710
20070TIP3    H181701   3.929   0.869  15.481  0.2703 -0.6627 -2.2393
20070TIP3    H281702   3.827   0.928  15.386 -2.3853  0.3837  1.0712
20071TIP3   OH281703   0.232   2.977   2.746  0.4186 -0.2319  0.9517
20071TIP3    H181704   0.264   3.056   2.789 -0.0514  1.2310 -1.2279
20071TIP3    H281705   0.284   2.971   2.666 -0.4996 -1.3719  0.4093
20072TIP3   OH281706   3.562   4.190   0.027  0.4961 -0.2749 -0.7697
20072TIP3    H181707   3.584   4.185   0.120 -0.4433  0.5203 -0.4868
20072TIP3    H281708   3.471   4.161   0.022  0.8792 -1.4155 -1.6140
20073TIP3   OH281709   2.408   3.064   5.420  0.3421 -0.3953  0.1953
20073TIP3    H181710   2.376   2.991   5.366 -0.8341  0.1839  0.0940
20073TIP3    H281711   2.478   3.103   5.367  0.4074 -0.9251 -0.1250
20074TIP3   OH281712   2.439   4.213   3.018 -0.4061  0.4990 -0.5796
20074TIP3    H181713   2.518   4.202   2.966  0.2898 -0.2569  0.5983
20074TIP3    H281714   2.387   4.278   2.970  0.9398  1.0312 -1.3506
20075TIP3   OH281715   2.853   5.618   0.132 -0.3390 -0.1466  0.1001
20075TIP3    H181716   2.787   5.626   0.062  0.4927  0.7708 -0.6087
20075TIP3    H281717   2.845   5.527   0.162 -1.9423 -0.0472  0.0607
20076TIP3   OH281718   5.646   5.342   0.711 -0.4097 -0.3829 -0.0579
20076TIP3    H181719   5.737   5.366   0.692 -0.2092  0.0524  1.3591
20076TIP3    H281720   5.601   5.425   0.725 -0.4504 -0.6606  1.6523
20077TIP3   OH281721   3.270   0.086   0.176 -0.3002  0.0270 -0.0626
20077TIP3    H181722   3.209   0.058   0.108 -1.8602 -1.9954  1.9779
20077TIP3    H281723   3.305   0.004   0.212  0.9698  1.0342  1.0968
20078TIP3   OH281724   6.245   1.071  14.732 -0.1738 -0.1091 -0.1235
20078TIP3    H181725   6.230   1.163  14.710  1.2960 -0.0105 -0.8565
20078TIP3    H281726   6.277   1.032  14.650  0.1997 -1.0321  0.4532
20079TIP3   OH281727   1.375   2.097  12.451 -0.3525  0.8694  0.4034
20079TIP3    H181728   1.302   2.045  12.483 -1.9784  1.7140 -1.6678
20079TIP3    H281729   1.340   2.186  12.445 -0.0122  0.8954 -2.8411
20080TIP3   OH281730   1.929   1.120   2.069 -0.0304 -0.2521 -0.1022
20080TIP3    H181731   1.916   1.037   2.115 -0.6631 -0.0082  0.1708
20080TIP3    H281732   1.989   1.098   1.997 -1.0001 -1.1925 -0.6685
20081TIP3   OH281733   1.295   5.005   4.589 -0.0861 -0.0867  0.4024
20081TIP3    H181734   1.327   4.973   4.504  1.5957  0.0971  0.9429
20081TIP3    H281735   1.345   4.956   4.654 -0.2073  0.9240  1.2771
20082TIP3   OH281736   1.068   6.055  17.198 -0.5228  0.0377  0.4160
20082TIP3    H181737   1.153   6.044  17.240  0.5441 -0.3158 -1.7232
20082TIP3    H281738   1.052   6.149  17.201  0.5461  0.2577 -0.2195
20083TIP3   OH281739   3.508   3.170  15.484 -0.4186 -0.5767  0.4920
20083TIP3    H181740   3.483   3.157  15.575 -1.2509  1.0234  0.5301
20083TIP3    H281741   3.448   3.237  15.452  0.0517 -0.8938 -1.1539
20084TIP3   OH281742   4.158   1.495   1.835  0.3470 -0.4491 -0.8241
20084TIP3    H181743   4.226   1.550   1.796 -0.8727  1.8028 -0.0045
20084TIP3    H281744   4.182   1.488   1.927  0.2806 -0.9539 -0.8452
20085TIP3   OH281745   4.128   4.682  14.770  0.0841 -0.4122 -0.0632
20085TIP3    H181746   4.040   4.720  14.769  0.5077  0.6544 -1.8465
20085TIP3    H281747   4.119   4.602  14.822 -2.2889 -1.1214 -1.4051
20086TIP3   OH281748   2.233   4.141   3.869 -0.3542  0.2208 -0.2442
20086TIP3    H181749   2.239   4.223   3.917 -1.9183  0.6424 -0.6983
20086TIP3    H281750   2.140   4.134   3.845 -0.4788 -2.1996  0.7033
20087TIP3   OH281751   4.376   1.193   3.667  0.2203 -0.3712  0.7492
20087TIP3    H181752   4.373   1.118   3.607  1.2763  1.1287 -1.3338
20087TIP3    H281753   4.350   1.158   3.751  1.3472 -3.2460  0.0169
20088TIP3   OH281754   6.332   3.530   5.754  0.4881  0.6118  0.3583
20088TIP3    H181755   6.366   3.532   5.843  0.2891  0.8305  0.4305
20088TIP3    H281756   6.257   3.589   5.756  0.1407  0.1768  0.1838
20089TIP3   OH281757   4.320   6.444   6.088  0.1099  0.0255  0.1501
20089TIP3    H181758   4.278   6.494   6.157  0.8284  2.8322 -1.3150
20089TIP3    H281759   4.379   6.506   6.045 -0.4198 -1.4848 -3.0944
20090TIP3   OH281760   1.445   0.024   0.719  0.1138  0.0151 -0.5209
20090TIP3    H181761   1.354  -0.004   0.727  0.7018 -1.6249  1.1728
20090TIP3    H281762   1.453   0.098   0.779  0.2785 -1.0525  0.8520
20091TIP3   OH281763   5.981   6.315  16.062 -0.0530  0.3460  0.1012
20091TIP3    H181764   5.964   6.398  16.107  0.2134  0.1091  0.6469
20091TIP3    H281765   5.895   6.285  16.032 -0.5093 -0.3901  2.0174
20092TIP3   OH281766   3.492   1.306   6.643 -0.2241 -0.0516 -0.0187
20092TIP3    H181767   3.454   1.392   6.624 -0.0420  0.2524  0.9717
20092TIP3    H281768   3.504   1.305   6.737 -0.0211 -1.0903 -0.0457
20093TIP3   OH281769   5.315   0.207   5.459 -0.6050  0.2456  0.2258
20093TIP3    H181770   5.366   0.253   5.525  0.2035 -0.0576 -0.1831
20093TIP3    H281771   5.266   0.276   5.414 -0.9263  0.4854  0.9245
20094TIP3   OH281772   3.260   2.234  13.964  0.4729 -0.1184  0.5246
20094TIP3    H181773   3.270   2.284  13.882 -1.0879 -1.7384 -0.7368
20094TIP3    H281774   3.170   2.250  13.991  0.2134 -1.5104  0.5689
20095TIP3   OH281775   5.165   3.716  12.585 -0.4462  0.1911  0.5314
20095TIP3    H181776   5.172   3.654  12.657 -0.6162  0.0682  0.4419
20095TIP3    H281777   5.205   3.671  12.510  0.8211  0.7758  0.8302
20096TIP3   OH281778   5.654   4.020  12.611 -0.5517  1.0554  0.3758
20096TIP3    H181779   5.652   3.995  12.519 -1.2230  1.5561  0.2520
20096TIP3    H281780   5.566   4.052  12.630  0.2112  3.2819  0.5306
20097TIP3   OH281781   0.113   3.400  16.273  0.1942  0.1793  1.2189
20097TIP3    H181782   0.107   3.404  16.369  1.4388 -0.9070  1.3717
20097TIP3    H281783   0.042   3.341  16.247  1.0908 -1.1546  1.6819
20098TIP3   OH281784   1.667   5.419   5.082 -0.0281  0.1198  0.2800
20098TIP3    H181785   1.715   5.424   5.165  0.0344  0.4385  0.2278
20098TIP3    H281786   1.619   5.502   5.078 -0.1642  0.0307  0.0794
20099TIP3   OH281787   1.490   4.174  11.432  0.3043  0.3079 -0.5243
20099TIP3    H181788   1.492   4.249  11.373 -1.9613  0.9411  0.1110
20099TIP3    H281789   1.417   4.121  11.401 -2.9199  2.0922  3.1980
20100TIP3   OH281790   5.175   0.751  14.121 -0.5988 -0.2786  0.1071
20100TIP3    H181791   5.270   0.759  14.116 -0.8405  2.9648 -2.1220
20100TIP3    H281792   5.154   0.675  14.066  0.6053  0.4700 -1.4648
20101TIP3   OH281793   6.812   4.069   1.651  0.1654 -0.1765 -0.7622
20101TIP3    H181794   6.796   4.074   1.746  1.3850 -2.0214 -0.4133
20101TIP3    H281795   6.747   4.128   1.613 -2.4100 -1.6650  1.0230
20102TIP3   OH281796   6.669   4.505   2.072  0.1698  0.6899  0.1228
20102TIP3    H181797   6.652   4.491   2.165 -0.3097  1.0816  0.1010
20102TIP3    H281798   6.739   4.443   2.051 -1.4212 -1.1969  0.1509
20103TIP3   OH281799   2.253   6.512   4.479  0.0739 -0.2916  0.1496
20103TIP3    H181800   2.207   6.447   4.426 -1.3473 -0.0016  0.9729
20103TIP3    H281801   2.241   6.594   4.432 -0.3562 -0.2030  0.4015
20104TIP3   OH281802   5.794   0.648   3.234  0.7883 -0.1808 -0.0611
20104TIP3    H181803   5.802   0.553   3.236  0.6300 -0.1923  0.0767
20104TIP3    H281804   5.869   0.678   3.183 -0.6622 -0.5481 -2.5535
20105TIP3   OH281805   6.051   2.894  11.671 -0.4806  0.3102  0.0770
20105TIP3    H181806   6.068   2.802  11.650  1.6731  0.9280 -1.1645
20105TIP3    H281807   6.108   2.912  11.746  0.1941  0.9928 -0.5910
20106TIP3   OH281808   1.778   4.998  11.382 -0.4678 -0.3225  0.2150
20106TIP3    H181809   1.823   5.006  11.298 -2.2069 -0.3886 -0.7815
20106TIP3    H281810   1.807   5.074  11.433  0.3570 -0.1052 -0.5606
20107TIP3   OH281811   2.367   0.172  13.092 -0.4255  0.2382 -0.4711
20107TIP3    H181812   2.303   0.105  13.069 -0.8271  0.3089  0.3957
20107TIP3    H281813   2.393   0.210  13.008  0.5092 -1.6140 -1.0521
20108TIP3   OH281814   6.250   2.938  11.866  0.2789 -0.3346  0.0760
20108TIP3    H181815   6.312   2.902  11.802  0.3206 -0.7895  0.3610
20108TIP3    H281816   6.274   2.894  11.948 -0.3225 -0.3986  0.2217
20109TIP3   OH281817   2.353   3.200   1.964 -0.0899 -0.3572 -0.8572
20109TIP3    H181818   2.369   3.203   1.869  1.6912 -1.0503 -0.6293
20109TIP3    H281819   2.438   3.174   2.001 -1.3675 -2.4605  0.7689
20110TIP3   OH281820   2.814   0.224   2.378 -0.6854  0.1859 -0.0722
20110TIP3    H181821   2.873   0.283   2.424 -0.6232  0.8467 -0.9729
20110TIP3    H281822   2.835   0.236   2.285 -1.2382 -0.6491 -0.3210
20111TIP3   OH281823   4.570   3.293  12.119 -0.2340  0.4342 -0.1339
20111TIP3    H181824   4.583   3.273  12.026 -1.0550  1.1470 -0.4186
20111TIP3    H281825   4.498   3.355  12.120 -1.6489 -1.1469  1.1500
20112TIP3   OH281826   0.529   3.641  15.173  0.0089  0.3168 -0.3903
20112TIP3    H181827   0.531   3.573  15.105 -0.7243  0.5410 -0.6488
20112TIP3    H281828   0.505   3.720  15.125  1.4813  0.9128 -0.2042
20113TIP3   OH281829   4.869   3.950   0.004 -0.0719 -0.0641  0.6096
20113TIP3    H181830   4.856   3.963  -0.090  0.7415 -1.0603  0.3538
20113TIP3    H281831   4.832   3.864   0.022  0.2009 -0.0781  1.1147
20114TIP3   OH281832   1.154   5.505  13.994 -0.0006  0.1722 -0.2187
20114TIP3    H181833   1.178   5.475  13.906 -1.9313  0.9285 -1.0432
20114TIP3    H281834   1.155   5.601  13.988  0.5302  0.2530  0.8120
20115TIP3   OH281835   4.722   1.011  11.262  0.1403  0.0273 -0.0551
20115TIP3    H181836   4.809   0.976  11.280  0.1245  0.7183  1.5325
20115TIP3    H281837   4.724   1.101  11.295 -1.5414 -0.3348  1.1768
20116TIP3   OH281838   0.280   5.919   2.300  0.0839  0.0520  0.1697
20116TIP3    H181839   0.184   5.924   2.306 -0.2403 -2.6107 -1.1307
20116TIP3    H281840   0.310   5.930   2.390 -1.2094  3.0668  0.3586
20117TIP3   OH281841   0.606   1.095  14.700 -0.2090  0.2940 -0.0032
20117TIP3    H181842   0.585   1.089  14.793 -0.5208 -0.9484 -0.1320
20117TIP3    H281843   0.693   1.055  14.692 -0.2103  0.3369 -0.2514
20118TIP3   OH281844   1.502   0.753  12.135 -0.2120 -0.1667  0.1335
20118TIP3    H181845   1.494   0.810  12.059  1.4422  0.1013  0.1136
20118TIP3    H281846   1.514   0.813  12.209  0.2948 -0.4420  0.2850
20119TIP3   OH281847   2.371   0.237   2.832  0.2644 -0.2792 -0.6356
20119TIP3    H181848   2.404   0.324   2.858  1.0053  0.4667 -3.6991
20119TIP3    H281849   2.288   0.255   2.789  0.0540 -1.1925 -0.6226
20120TIP3   OH281850   3.206   0.087  17.094  0.3287 -0.3323  0.0323
20120TIP3    H181851   3.180   0.078  17.003  1.5826 -0.3589 -0.3419
20120TIP3    H281852   3.223   0.180  17.105 -0.5491 -0.2170  0.4527
20121TIP3   OH281853   1.184   1.532  15.649 -0.2080  0.7036  0.1353
20121TIP3    H181854   1.262   1.587  15.663  0.1643  0.3380 -0.4267
20121TIP3    H281855   1.187   1.510  15.556 -1.2221  1.0236  0.0157
20122TIP3   OH281856   1.992   5.051   2.019 -0.4868  0.2640 -0.4260
20122TIP3    H181857   1.993   4.959   1.990  0.4338  0.2197 -0.2818
20122TIP3    H281858   1.966   5.047   2.111 -0.7042  0.1696 -0.4911
20123TIP3   OH281859   5.442   1.643  10.728 -0.1968  0.0465  0.2065
20123TIP3    H181860   5.504   1.575  10.700 -1.0929 -0.6447 -0.1292
20123TIP3    H281861   5.479   1.725  10.693  0.0932 -0.4642 -0.7334
20124TIP3   OH281862   0.215   4.359   4.980 -0.0895  0.1707  0.0070
20124TIP3    H181863   0.184   4.278   5.021 -2.3320  1.0701  0.2432
20124TIP3    H281864   0.268   4.401   5.048  0.0541 -0.5226  0.3343
20125TIP3   OH281865   5.775   3.309   5.585 -0.1118 -0.0234  0.1815
20125TIP3    H181866   5.863   3.276   5.603  0.9892  1.3035 -2.2198
20125TIP3    H281867   5.763   3.294   5.491 -1.8728  1.1295  0.1876
20126TIP3   OH281868   3.144   6.342   4.347  0.0477  0.5790 -0.1599
20126TIP3    H181869   3.184   6.275   4.402 -0.6700 -0.6318 -1.0582
20126TIP3    H281870   3.133   6.300   4.262 -2.5784  0.9995 -0.1207
20127TIP3   OH281871   1.282   6.380   1.936  0.2800 -0.0377 -0.0115
20127TIP3    H181872   1.239   6.301   1.903  0.1351  0.0718 -0.0832
20127TIP3    H281873   1.365   6.348   1.972  0.5626 -0.1269 -0.7295
20128TIP3   OH281874   1.653   6.064  13.250  0.2286  0.1983 -0.1679
20128TIP3    H181875   1.676   5.979  13.287  1.2931  0.8579  0.7709
20128TIP3    H281876   1.620   6.115  13.324  0.4935  0.8935 -0.5131
20129TIP3   OH281877   4.688   2.299   0.985  0.1278 -0.2578  0.2924
20129TIP3    H181878   4.612   2.251   0.952 -0.1317 -1.1986  2.1325
20129TIP3    H281879   4.715   2.250   1.063  2.3909  0.2837 -0.0992
20130TIP3   OH281880   6.246   0.566   0.804 -0.4940 -0.1560  0.1659
20130TIP3    H181881   6.226   0.483   0.845  1.3811 -0.1222  1.2673
20130TIP3    H281882   6.215   0.557   0.714 -0.9420 -1.7816  0.4648
20131TIP3   OH281883   4.168   0.246   2.721  0.6540  0.2581 -0.0735
20131TIP3    H181884   4.155   0.178   2.787  2.2580 -0.1040 -0.0920
20131TIP3    H281885   4.082   0.289   2.714 -2.2586 -4.9070 -3.6717
20132TIP3   OH281886   3.390   5.619   4.762 -0.2502  0.3739  0.8723
20132TIP3    H181887   3.433   5.558   4.703 -1.4875 -0.2621  0.6055
20132TIP3    H281888   3.457   5.639   4.828  0.8697  0.4384 -0.2361
20133TIP3   OH281889   1.197   2.518  16.136  0.1887 -0.0770 -0.8439
20133TIP3    H181890   1.255   2.590  16.161 -0.1149 -0.3412  0.7807
20133TIP3    H281891   1.149   2.551  16.061  1.2804  0.7594 -1.2093
20134TIP3   OH281892   1.444   0.504   3.824 -0.0305  0.2304 -0.8177
20134TIP3    H181893   1.456   0.599   3.832 -0.7419  0.6955 -3.9497
20134TIP3    H281894   1.531   0.471   3.800  0.2606  0.0169  0.4574
20135TIP3   OH281895   1.015   4.310   2.851 -0.2347  0.0989 -0.1009
20135TIP3    H181896   1.066   4.267   2.919 -1.2541 -0.8813  0.0864
20135TIP3    H281897   1.071   4.380   2.819  1.0661 -0.7047  0.3338
20136TIP3   OH281898   4.360   3.097  15.821 -0.0900  0.2542 -0.6013
20136TIP3    H181899   4.450   3.121  15.798 -0.4002 -0.8178 -3.3632
20136TIP3    H281900   4.313   3.180  15.828  0.5173  0.7766 -2.1478
20137TIP3   OH281901   5.237   0.139  14.466  0.0302 -0.9648  0.1190
20137TIP3    H181902   5.291   0.217  14.475 -1.2854 -0.1609  1.6507
20137TIP3    H281903   5.285   0.070  14.512  0.3622 -0.5918  0.3313
20138TIP3   OH281904   1.418   0.015  13.500  1.1730  0.1369 -0.0947
20138TIP3    H181905   1.408  -0.040  13.578  1.4358 -0.6497 -0.6163
20138TIP3    H281906   1.405   0.104  13.533  0.7813 -0.2229  0.7615
20139TIP3   OH281907   2.466   3.145  12.072  0.2590 -0.3131 -0.0870
20139TIP3    H181908   2.448   3.234  12.040 -0.9901 -0.4949  0.0716
20139TIP3    H281909   2.463   3.091  11.993  0.2452 -0.3276 -0.0758
20140TIP3   OH281910   3.059   3.874  15.842 -0.3739  0.2539 -0.5784
20140TIP3    H181911   3.076   3.892  15.749 -0.7949  0.2308 -0.6634
20140TIP3    H281912   3.037   3.781  15.845  0.1416  0.1361 -0.3791
20141TIP3   OH281913   5.213   4.059  14.029  0.4037 -0.1997 -0.5092
20141TIP3    H181914   5.249   3.981  13.987  0.1897 -0.4952 -0.1458
20141TIP3    H281915   5.174   4.028  14.110 -1.8843 -0.1551 -1.4934
20142TIP3   OH281916   5.466   0.061  14.936  0.2470  0.1557 -0.1002
20142TIP3    H181917   5.530  -0.010  14.940  2.4413  1.9815 -0.5335
20142TIP3    H281918   5.449   0.083  15.028 -0.0600 -0.5655  0.0228
20143TIP3   OH281919   5.437   6.702  16.554 -0.0206 -0.2126 -0.2562
20143TIP3    H181920   5.485   6.626  16.585 -1.1327 -0.3943  1.1249
20143TIP3    H281921   5.386   6.670  16.480 -1.4262 -1.1781  1.0626
20144TIP3   OH281922   1.324   0.904  14.391  0.9936  0.3919 -0.4108
20144TIP3    H181923   1.363   0.948  14.466 -1.2451  2.8540 -0.5595
20144TIP3    H281924   1.230   0.908  14.406  0.5612 -0.9890 -2.3220
20145TIP3   OH281925   0.265   0.774   3.457 -0.1823 -0.0475 -0.4697
20145TIP3    H181926   0.226   0.803   3.539 -0.7852 -1.5922 -0.1708
20145TIP3    H281927   0.202   0.711   3.422  0.5206 -0.1296 -1.6356
20146TIP3   OH281928   0.049   4.388   1.957 -0.2067 -0.0297  0.5621
20146TIP3    H181929   0.142   4.376   1.971 -0.1309  0.8543  0.8990
20146TIP3    H281930   0.043   4.424   1.868 -0.2392 -0.1945  0.4968
20147TIP3   OH281931   6.322   1.664   5.608 -0.1208 -0.2110  0.6399
20147TIP3    H181932   6.347   1.641   5.697  0.9807  3.7625  1.5650
20147TIP3    H281933   6.375   1.608   5.552 -1.3136 -3.2728  2.3462
20148TIP3   OH281934   0.743   4.867  12.897 -1.3387  0.2461  0.3597
20148TIP3    H181935   0.706   4.941  12.946  0.9291  2.7532 -1.3608
20148TIP3    H281936   0.802   4.909  12.834 -1.1091 -3.0184 -1.7930
20149TIP3   OH281937   3.478   1.254  14.998 -0.2284  0.0171 -0.0214
20149TIP3    H181938   3.393   1.227  15.035  0.7387  0.9839  3.2884
20149TIP3    H281939   3.540   1.243  15.070  1.7075  3.1797 -0.9906
20150TIP3   OH281940   2.751   3.477   5.426  0.3986 -0.1331  0.1312
20150TIP3    H181941   2.736   3.391   5.466 -0.1626  0.1148  0.4730
20150TIP3    H281942   2.683   3.533   5.464  0.6176  0.4073 -0.2596
20151TIP3   OH281943   1.701   4.235   3.314  0.2797 -0.4602 -0.0019
20151TIP3    H181944   1.622   4.204   3.270 -0.8992  0.1383  1.6045
20151TIP3    H281945   1.710   4.326   3.285 -1.0991  0.2785  1.6564
20152TIP3   OH281946   4.737   4.715   1.543  0.5455  0.2771 -0.1735
20152TIP3    H181947   4.746   4.647   1.475 -1.1986  0.2465 -0.4252
20152TIP3    H281948   4.810   4.774   1.527  0.6665 -0.1992 -1.5615
20153TIP3   OH281949   4.340   6.717  16.274  0.2428 -0.2471  0.0174
20153TIP3    H181950   4.316   6.684  16.361 -0.8670  0.4757  0.0087
20153TIP3    H281951   4.435   6.729  16.279 -0.0144  1.6697  1.8236
20154TIP3   OH281952   3.634   3.275  12.940 -0.1203  0.2268 -0.2268
20154TIP3    H181953   3.545   3.301  12.915 -0.3242 -0.2009  0.0477
20154TIP3    H281954   3.667   3.349  12.991 -0.1498  0.5826 -0.7166
20155TIP3   OH281955   4.156   3.198   0.234 -0.0925 -0.1229 -0.2967
20155TIP3    H181956   4.061   3.207   0.245 -0.1485 -0.3069 -0.6136
20155TIP3    H281957   4.194   3.251   0.304 -0.4321 -0.2926  0.0132
20156TIP3   OH281958   3.259   0.848   3.548 -0.1337 -0.1027  0.5278
20156TIP3    H181959   3.319   0.775   3.536 -0.8068 -0.3859 -1.3711
20156TIP3    H281960   3.173   0.806   3.558 -0.8498  0.3740 -2.6280
20157TIP3   OH281961   3.642   1.967  12.065  0.3524  1.1700 -0.0864
20157TIP3    H181962   3.660   1.910  12.141 -0.2163  1.4617  0.2746
20157TIP3    H281963   3.667   1.914  11.989 -1.4938 -0.1322  0.1525
20158TIP3   OH281964   3.337   3.103  15.920  0.4363  0.5781  0.3566
20158TIP3    H181965   3.361   3.073  16.008  1.2910 -1.3847 -0.4642
20158TIP3    H281966   3.279   3.034  15.887 -1.0450  2.0003 -0.1276
20159TIP3   OH281967   5.754   0.028  13.128 -0.4611  0.3935  0.0515
20159TIP3    H181968   5.700   0.086  13.182 -2.7243 -1.4148 -0.1443
20159TIP3    H281969   5.785   0.084  13.057 -1.0662  1.7731  0.8226
20160TIP3   OH281970   5.729   0.053   3.653 -0.7027  0.2379 -0.2559
20160TIP3    H181971   5.703   0.143   3.675 -0.6679 -0.0655  1.1012
20160TIP3    H281972   5.816   0.043   3.692 -0.8965 -0.5299 -0.0060
20161TIP3   OH281973   1.312   5.843   6.463 -0.3075 -0.0993  0.1298
20161TIP3    H181974   1.245   5.910   6.453 -1.1775 -1.1811 -1.8892
20161TIP3    H281975   1.293   5.780   6.394  2.3488 -0.8521 -0.0137
20162TIP3   OH281976   5.265   3.706  11.422 -0.7633 -0.3684 -0.9308
20162TIP3    H181977   5.306   3.675  11.342 -4.0007 -2.7844 -1.9068
20162TIP3    H281978   5.337   3.726  11.481  1.7160 -1.5143 -3.3778
20163TIP3   OH281979   6.625   6.196  14.173  0.1646  0.0536  0.0936
20163TIP3    H181980   6.676   6.219  14.095  0.1267  0.9388  0.3207
20163TIP3    H281981   6.538   6.176  14.141  0.4264 -0.6453 -0.2049
20164TIP3   OH281982   2.138   0.226  11.864 -0.1935  0.6168 -0.1825
20164TIP3    H181983   2.211   0.182  11.907 -0.4325  0.6137  0.2217
20164TIP3    H281984   2.108   0.164  11.798  0.4882  0.8191 -0.6887
20165TIP3   OH281985   2.781   5.007  11.780 -0.0706 -0.6247  0.7149
20165TIP3    H181986   2.717   4.937  11.791 -0.4797 -0.2911  0.5125
20165TIP3    H281987   2.775   5.058  11.860 -1.6655  0.6892 -0.1810
20166TIP3   OH281988   2.784   6.432   4.168  0.4732 -0.1530 -0.2963
20166TIP3    H181989   2.785   6.436   4.264  0.4587 -0.6705 -0.2767
20166TIP3    H281990   2.746   6.347   4.147  0.1950  0.0844 -0.7691
20167TIP3   OH281991   3.881   0.511   2.385  0.3563  0.7686  0.2124
20167TIP3    H181992   3.928   0.554   2.315 -3.0139  1.0283 -2.1079
20167TIP3    H281993   3.830   0.442   2.342  0.1225 -0.8383  2.8026
20168TIP3   OH281994   5.525   5.889   4.884  0.3516 -0.2217 -0.6180
20168TIP3    H181995   5.442   5.843   4.882  0.3929 -0.2838 -0.9530
20168TIP3    H281996   5.540   5.909   4.976  0.3887 -0.9756 -0.4570
20169TIP3   OH281997   6.439   6.705   4.103  0.0520  0.1681 -0.1353
20169TIP3    H181998   6.410   6.795   4.116 -0.3759  0.0399 -0.1677
20169TIP3    H281999   6.363   6.661   4.063  0.7560  0.1539 -1.5273
20170TIP3   OH282000   1.119   0.598  12.225  0.2970 -0.0993  0.7181
20170TIP3    H182001   1.041   0.589  12.280 -0.3966 -0.0646 -0.2353
20170TIP3    H282002   1.092   0.565  12.140  1.7982 -1.5326  0.7491
20171TIP3   OH282003   3.120   5.776  11.088  0.8474  0.1017  0.5222
20171TIP3    H182004   3.209   5.742  11.101  0.5672 -2.0563 -2.1724
20171TIP3    H282005   3.127   5.827  11.007 -0.5216 -0.9027 -0.2576
20172TIP3   OH282006   3.541   1.071  15.247  0.1535  0.3193  0.0956
20172TIP3    H182007   3.604   1.000  15.258  0.4803  0.6313  0.2948
20172TIP3    H282008   3.470   1.033  15.196  0.6346  0.0398 -0.3789
20173TIP3   OH282009   6.525   5.612  11.750 -0.3831 -0.3761 -0.7539
20173TIP3    H182010   6.446   5.558  11.743 -0.0643 -1.0136  0.2793
20173TIP3    H282011   6.579   5.567  11.816  1.5130 -0.7952 -2.4835
20174TIP3   OH282012   2.346   2.867   5.952 -0.0005 -0.1989 -0.0051
20174TIP3    H182013   2.284   2.846   6.022  0.7233  1.6176  1.2336
20174TIP3    H282014   2.429   2.831   5.982 -0.1462 -1.6070 -1.1392
20175TIP3   OH282015   3.522   1.128   4.674 -0.2965 -0.2003 -0.4517
20175TIP3    H182016   3.536   1.036   4.696 -0.8147 -0.4662 -1.2048
20175TIP3    H282017   3.427   1.137   4.666 -0.3634  0.7195  0.9108
20176TIP3   OH282018   5.963   4.341   3.343 -0.0934  0.6256  0.6154
20176TIP3    H182019   5.999   4.409   3.399  1.3626  1.6352 -1.4249
20176TIP3    H282020   6.039   4.293   3.310 -0.9441 -0.4187  0.0871
20177TIP3   OH282021   1.081   0.611  11.046  0.3611 -0.3017  0.3525
20177TIP3    H182022   1.101   0.562  10.967  2.9698 -1.0039  1.3153
20177TIP3    H282023   1.116   0.557  11.117 -1.3912  0.5510  1.9570
20178TIP3   OH282024   0.613   1.932   1.947  0.6169 -0.3304 -0.0506
20178TIP3    H182025   0.527   1.913   1.911  0.0701  1.0228  0.4692
20178TIP3    H282026   0.668   1.949   1.870  0.0089  0.3740 -0.3427
20179TIP3   OH282027   2.174   5.166   0.838 -0.1620  0.0727  0.1543
20179TIP3    H182028   2.247   5.190   0.782  0.5083  0.3722  1.1172
20179TIP3    H282029   2.125   5.247   0.851  1.8095  0.9801  2.9857
20180TIP3   OH282030   6.187   6.437  12.167 -0.0476 -0.1003 -0.0420
20180TIP3    H182031   6.220   6.519  12.129  1.3717 -0.3357  0.6169
20180TIP3    H282032   6.157   6.462  12.254 -1.7201  0.1190 -0.6544
20181TIP3   OH282033   6.623   2.464   2.751  0.1551 -0.4130 -0.2119
20181TIP3    H182034   6.602   2.530   2.685  0.6705 -0.3646 -0.3343
20181TIP3    H282035   6.556   2.475   2.818 -0.0163 -0.0535 -0.4405
20182TIP3   OH282036   0.291   3.306  13.045  0.4962 -0.7446  0.0555
20182TIP3    H182037   0.331   3.388  13.074  0.7385 -1.2245  1.1156
20182TIP3    H282038   0.312   3.301  12.952 -0.6928  1.0594 -0.3644
20183TIP3   OH282039   1.863   5.140   0.243 -0.2394  0.0629 -0.1363
20183TIP3    H182040   1.777   5.107   0.269  0.3864 -0.8590  0.8737
20183TIP3    H282041   1.871   5.224   0.288  0.0902 -0.6863  1.2727
20184TIP3   OH282042   1.553   2.964  16.982 -0.2335 -0.7883  0.4886
20184TIP3    H182043   1.505   2.946  17.063 -1.3897 -1.1133 -0.2373
20184TIP3    H282044   1.512   2.906  16.917 -0.5726  0.7594 -0.7374
20185TIP3   OH282045   2.318   4.215  10.510 -0.0461  0.0752 -0.0721
20185TIP3    H182046   2.297   4.125  10.483 -2.1890  0.2776  0.6844
20185TIP3    H282047   2.345   4.206  10.601  0.2010  0.1428 -0.1398
20186TIP3   OH282048   1.284   3.430  11.430 -0.8009 -0.4895  0.3831
20186TIP3    H182049   1.285   3.374  11.508  0.2706  0.2533  0.9292
20186TIP3    H282050   1.369   3.473  11.430 -1.0182 -0.0177 -0.8813
20187TIP3   OH282051   1.182   0.853  16.173  0.4862 -0.6095 -0.2917
20187TIP3    H182052   1.252   0.788  16.166  0.6202 -0.4937 -0.0640
20187TIP3    H282053   1.130   0.823  16.247 -0.1397 -1.1028 -0.9264
20188TIP3   OH282054   6.281   5.653   5.616 -0.0446 -0.8221 -0.1005
20188TIP3    H182055   6.346   5.722   5.599  0.0976 -0.1730  2.6757
20188TIP3    H282056   6.329   5.589   5.669 -1.7552  0.0488  2.6979
20189TIP3   OH282057   0.133   0.318  11.987 -0.0308  0.2189  0.0039
20189TIP3    H182058   0.139   0.255  11.916  1.3156  0.5891 -0.2437
20189TIP3    H282059   0.086   0.272  12.057  0.0619 -0.6978 -0.5326
20190TIP3   OH282060   5.045   6.575  12.044  0.3954 -0.1576 -0.0713
20190TIP3    H182061   5.120   6.544  11.994  1.0889 -0.2175  0.9720
20190TIP3    H282062   5.011   6.649  11.994  0.7815 -0.5057 -0.8575
20191TIP3   OH282063   1.925   2.793   4.316  0.5068  0.5088  0.5385
20191TIP3    H182064   1.931   2.698   4.311 -1.5868  0.3430  0.2186
20191TIP3    H282065   1.922   2.822   4.225  1.5820  0.9414  0.6279
20192TIP3   OH282066   5.463   2.162  14.186 -0.6106  0.8792  0.0473
20192TIP3    H182067   5.546   2.157  14.139  0.0625 -2.2300  1.3227
20192TIP3    H282068   5.486   2.153  14.278 -2.2553  1.4988  0.5561
20193TIP3   OH282069   4.220   1.389  16.444 -0.4327 -0.3961  0.2466
20193TIP3    H182070   4.307   1.387  16.403  0.4152  0.2493  1.9025
20193TIP3    H282071   4.162   1.422  16.376  0.9583  0.8511 -0.3868
20194TIP3   OH282072   4.710   4.676   0.407  1.0753  0.6779  0.1100
20194TIP3    H182073   4.677   4.603   0.460 -0.4669  0.7317 -0.7250
20194TIP3    H282074   4.690   4.651   0.316  1.1189  1.8429 -0.2391
20195TIP3   OH282075   4.387   4.540  17.119  0.6719  0.0543  0.6199
20195TIP3    H182076   4.359   4.628  17.093  0.4411 -0.1315  0.2363
20195TIP3    H282077   4.395   4.492  17.037  0.6635 -0.3273  0.8398
20196TIP3   OH282078   1.183   3.340   5.606 -0.0458  0.2471  0.3076
20196TIP3    H182079   1.150   3.417   5.653 -0.5224 -0.8523  1.8656
20196TIP3    H282080   1.266   3.319   5.650 -0.2036 -0.4546  0.2820
20197TIP3   OH282081   1.682   4.574  12.872  0.0051  0.2861  0.1945
20197TIP3    H182082   1.731   4.492  12.861 -0.3351  0.2336 -0.9870
20197TIP3    H282083   1.750   4.641  12.879  0.2700  0.0856 -0.3833
20198TIP3   OH282084   3.065   5.179   2.822 -0.0236 -0.3353 -0.4680
20198TIP3    H182085   3.094   5.201   2.734 -0.2403 -0.3940 -0.5552
20198TIP3    H282086   2.992   5.238   2.839 -0.4665 -0.8330 -0.6222
20199TIP3   OH282087   4.341   4.218  12.015 -0.0485 -0.2648  0.9904
20199TIP3    H182088   4.428   4.194  11.984 -0.1330  0.0637  0.4879
20199TIP3    H282089   4.294   4.246  11.936 -0.2419  0.6577  1.4284
20200TIP3   OH282090   0.231   5.683  16.763 -0.5240 -0.3637 -0.0295
20200TIP3    H182091   0.178   5.605  16.746 -0.5429 -0.2868 -0.3220
20200TIP3    H282092   0.176   5.756  16.736 -0.2099 -0.2917 -0.4959
20201TIP3   OH282093   6.251   1.561   1.846  0.5700 -0.0968  0.3750
20201TIP3    H182094   6.335   1.593   1.880 -0.1891 -0.0960  2.3812
20201TIP3    H282095   6.185   1.614   1.891 -0.5353 -0.5330 -0.6885
20202TIP3   OH282096   4.492   2.540  15.830  0.6157 -0.3038  0.3808
20202TIP3    H182097   4.420   2.602  15.819 -0.4832 -1.8048 -1.5145
20202TIP3    H282098   4.488   2.516  15.923 -0.0442  1.0965  0.7507
20203TIP3   OH282099   6.090   6.512   4.394 -0.2131  0.3758 -0.5290
20203TIP3    H182100   6.176   6.499   4.434 -0.0303 -0.3815 -1.1499
20203TIP3    H282101   6.095   6.600   4.355  0.7440 -0.1447 -1.6600
20204TIP3   OH282102   6.352   4.562  12.435  0.2236  0.0716  0.0473
20204TIP3    H182103   6.383   4.497  12.371 -0.9115  1.4870 -2.0789
20204TIP3    H282104   6.270   4.525  12.469  0.0155 -0.0167 -0.5309
20205TIP3   OH282105   3.961   1.189  11.024  0.5753 -1.3689  0.4328
20205TIP3    H182106   4.046   1.146  11.024  0.0493 -2.6228 -2.2176
20205TIP3    H282107   3.964   1.250  10.950 -0.9049 -1.7317  0.0231
20206TIP3   OH282108   3.525   3.925   1.677 -0.5884  0.9968  0.2819
20206TIP3    H182109   3.541   3.923   1.583 -1.3177  0.0007  0.1593
20206TIP3    H282110   3.544   3.836   1.707 -2.2819  0.7421  0.7074
20207TIP3   OH282111   0.585   2.626   2.790  0.0090 -0.0872  0.4289
20207TIP3    H182112   0.576   2.538   2.826 -1.6136  0.4213  1.3861
20207TIP3    H282113   0.556   2.684   2.860 -0.1211  1.1321 -0.5890
20208TIP3   OH282114   4.315   5.582   2.823  0.3292  0.1901 -0.5674
20208TIP3    H182115   4.376   5.579   2.896  1.0171  0.3369 -1.1183
20208TIP3    H282116   4.274   5.668   2.829  1.0097  0.5402 -0.8410
20209TIP3   OH282117   4.503   0.185  11.206  0.1411  0.0791  0.3419
20209TIP3    H182118   4.549   0.258  11.164 -0.3618  1.3231  1.8793
20209TIP3    H282119   4.555   0.165  11.284 -0.0942 -0.7831  0.2967
20210TIP3   OH282120   3.888   5.866   3.151 -0.2422  0.3962  0.4068
20210TIP3    H182121   3.970   5.883   3.104 -0.8557  0.1800 -0.7894
20210TIP3    H282122   3.861   5.952   3.183  0.8203  0.3551  1.4637
20211TIP3   OH282123   6.073   5.197  11.134  0.3883 -0.2254 -0.0104
20211TIP3    H182124   6.134   5.218  11.063  0.4434  0.0488  0.1162
20211TIP3    H282125   6.014   5.272  11.139 -0.3478 -0.7622 -0.5343
20212TIP3   OH282126   3.014   1.274  12.144 -0.4722 -0.4845  0.4703
20212TIP3    H182127   2.977   1.356  12.113 -1.1692 -0.2911  1.7519
20212TIP3    H282128   3.012   1.216  12.068  2.5330  1.4136 -1.2588
20213TIP3   OH282129   0.259   5.673  15.759 -0.3784 -0.4404  0.0157
20213TIP3    H182130   0.353   5.677  15.739 -0.3564 -1.5820 -0.1797
20213TIP3    H282131   0.252   5.704  15.849 -0.0145  1.1327 -0.4640
20214TIP3   OH282132   3.182   6.437  11.213 -0.5601  0.4343 -0.1733
20214TIP3    H182133   3.114   6.443  11.146  0.1092  1.9530 -0.7500
20214TIP3    H282134   3.248   6.501  11.187  1.4035 -1.3919  0.0590
20215TIP3   OH282135   4.524   6.410   2.513  0.1974 -0.5089 -0.3236
20215TIP3    H182136   4.495   6.339   2.455  2.8545 -1.3726 -0.7253
20215TIP3    H282137   4.472   6.485   2.486  0.0470 -1.3571 -2.6159
20216TIP3   OH282138   2.099   0.743  16.945  0.0647 -0.3323  0.2721
20216TIP3    H182139   2.149   0.771  16.868  0.4032  1.9493  1.2661
20216TIP3    H282140   2.162   0.694  16.997  0.1010 -1.0231 -0.3927
20217TIP3   OH282141   2.032   4.536   4.888  0.1490 -0.3370 -0.1360
20217TIP3    H182142   2.026   4.440   4.882 -1.0461 -0.2034 -1.7901
20217TIP3    H282143   2.073   4.562   4.806 -3.8723  0.8117 -2.0495
20218TIP3   OH282144   0.002   5.549  13.683 -0.1073 -0.8083  0.5166
20218TIP3    H182145  -0.070   5.611  13.686 -0.7201 -1.5268  1.1208
20218TIP3    H282146   0.020   5.537  13.590 -1.1140 -1.0038  0.3391
20219TIP3   OH282147   5.437   1.802   5.397  0.3043 -0.7073 -0.4983
20219TIP3    H182148   5.405   1.809   5.487  0.4703  1.4196 -0.5478
20219TIP3    H282149   5.498   1.729   5.398 -0.5559 -1.4461  0.8325
20220TIP3   OH282150   0.085   4.522  10.502 -0.2055 -0.0623  0.0924
20220TIP3    H182151   0.019   4.557  10.442  0.6373  1.3225 -0.0706
20220TIP3    H282152   0.160   4.501  10.447 -0.3888 -1.3685  0.3161
20221TIP3   OH282153   5.278   5.179  12.177 -0.0294  0.1309 -0.2054
20221TIP3    H182154   5.323   5.250  12.133 -0.5014  1.1233  0.8701
20221TIP3    H282155   5.346   5.113  12.192  0.4047  0.3273 -1.2449
20222TIP3   OH282156   2.933   0.630  13.330  0.3466  0.0595 -0.7492
20222TIP3    H182157   3.015   0.635  13.380 -0.1544 -0.9282  0.2266
20222TIP3    H282158   2.882   0.705  13.360 -0.2720 -0.9584  0.8786
20223TIP3   OH282159   2.765   5.554  14.253  0.1474  0.8685  0.7145
20223TIP3    H182160   2.669   5.557  14.255  0.0943 -0.3526  2.4968
20223TIP3    H282161   2.793   5.634  14.298 -0.0328  1.1669  0.2970
20224TIP3   OH282162   6.649   5.947   4.118  1.0538  0.0621  0.4493
20224TIP3    H182163   6.573   5.922   4.066 -0.3530  0.2946  2.2677
20224TIP3    H282164   6.719   5.890   4.087 -0.2860 -1.2871 -0.2307
20225TIP3   OH282165   2.922   6.274   5.919  0.6153  0.1669  0.7455
20225TIP3    H182166   2.870   6.320   5.853  0.4718 -0.2153  0.5953
20225TIP3    H282167   2.889   6.308   6.003 -0.0245 -0.2379  0.6595
20226TIP3   OH282168   4.256   0.470  12.975  0.1725 -0.9454 -0.1335
20226TIP3    H182169   4.217   0.394  13.019  0.2290  0.4028  2.4421
20226TIP3    H282170   4.195   0.491  12.904 -1.9830 -1.0303  1.5926
20227TIP3   OH282171   0.875   3.917  16.173 -0.1821 -0.6022 -0.3534
20227TIP3    H182172   0.838   3.975  16.107 -0.6605 -2.7044 -2.0661
20227TIP3    H282173   0.917   3.847  16.122  1.1877 -1.2717  1.5835
20228TIP3   OH282174   6.169   0.140  12.000  0.6912 -0.4112 -0.0462
20228TIP3    H182175   6.092   0.196  11.994 -0.5497 -2.0967 -0.5797
20228TIP3    H282176   6.189   0.115  11.910 -0.5539 -3.0391  0.2985
20229TIP3   OH282177   3.757   0.760   4.781  0.3107 -0.2920 -0.4685
20229TIP3    H182178   3.852   0.761   4.785  0.4793 -0.5214 -2.9652
20229TIP3    H282179   3.729   0.779   4.870  2.6843  0.4325  0.1854
20230TIP3   OH282180   4.762   0.172  12.377 -0.3439  0.2970  0.1840
20230TIP3    H182181   4.791   0.132  12.459 -1.5568 -0.2485  0.3799
20230TIP3    H282182   4.807   0.122  12.309  2.9576  2.5668  0.4532
20231TIP3   OH282183   1.252   0.459   1.880 -0.4667  0.2258 -0.0943
20231TIP3    H182184   1.215   0.371   1.872  2.0429 -0.8329 -0.9253
20231TIP3    H282185   1.193   0.504   1.940 -0.2549 -2.9700  2.8057
20232TIP3   OH282186   4.659   1.777   3.571 -0.7607 -0.3527 -0.0611
20232TIP3    H182187   4.643   1.850   3.511  0.0269  0.5660  0.8142
20232TIP3    H282188   4.746   1.746   3.548 -0.7617 -0.4865  0.1172
20233TIP3   OH282189   5.653   2.062   0.874 -0.0936 -0.3744 -0.2774
20233TIP3    H182190   5.575   2.116   0.862  1.5598  1.9625 -1.3909
20233TIP3    H282191   5.643   2.024   0.961 -3.2714 -1.6941 -1.0767
20234TIP3   OH282192   3.783   6.450  14.652  0.3259  0.1523  0.1346
20234TIP3    H182193   3.707   6.494  14.688 -0.8717 -0.5947 -1.3321
20234TIP3    H282194   3.817   6.510  14.585  2.1855  1.2845  1.9832
20235TIP3   OH282195   5.852   0.694  10.790 -0.0342 -0.0490 -0.5237
20235TIP3    H182196   5.770   0.743  10.790 -0.2040 -0.3174  0.2457
20235TIP3    H282197   5.827   0.606  10.762 -0.5879 -0.9957  2.6100
20236TIP3   OH282198   0.294   3.578   1.227 -0.7367  0.0626 -0.0644
20236TIP3    H182199   0.248   3.609   1.149 -1.4226 -1.2274 -0.2018
20236TIP3    H282200   0.381   3.617   1.220 -0.7572 -0.0832 -1.5207
20237TIP3   OH282201   3.666   3.971   4.150 -0.8549 -0.6348  0.5339
20237TIP3    H182202   3.593   3.928   4.105 -1.1787 -1.7162  2.0376
20237TIP3    H282203   3.743   3.946   4.099 -1.4718  0.4319 -1.0102
20238TIP3   OH282204   5.902   2.816   4.231  0.4628 -0.1580 -0.6758
20238TIP3    H182205   5.943   2.857   4.306 -1.8555  0.7635  0.1752
20238TIP3    H282206   5.920   2.722   4.242  0.0490 -0.0534  1.1050
20239TIP3   OH282207   4.842   1.350   4.864 -0.3651 -0.2772 -0.6316
20239TIP3    H182208   4.767   1.292   4.854  0.3727 -1.3475 -0.0992
20239TIP3    H282209   4.918   1.293   4.853  0.3812  0.5732 -0.0080
20240TIP3   OH282210   2.856   3.696  12.273  0.1277 -0.4354 -0.0145
20240TIP3    H182211   2.926   3.734  12.326 -0.2219  0.6782 -0.3336
20240TIP3    H282212   2.900   3.632  12.217  0.8972  0.2947 -0.2543
20241TIP3   OH282213   1.772   5.724  14.424  0.3658  0.4610 -0.2643
20241TIP3    H182214   1.825   5.673  14.486  2.6286  0.3002 -2.1598
20241TIP3    H282215   1.789   5.815  14.447 -0.2027  0.4065  0.4059
20242TIP3   OH282216   0.619   3.851  10.885 -0.3018  0.8568  0.2406
20242TIP3    H182217   0.571   3.879  10.962  0.8388  0.4415  1.1404
20242TIP3    H282218   0.558   3.863  10.812 -1.0543  2.2104  1.0607
20243TIP3   OH282219   1.878   4.622   4.418 -0.2126 -0.7551 -0.1208
20243TIP3    H182220   1.860   4.531   4.393 -0.9367 -0.8325  0.6321
20243TIP3    H282221   1.797   4.651   4.461  0.9508 -0.6522  2.1339
20244TIP3   OH282222   2.903   3.690  11.121  0.4719  0.3541 -0.5183
20244TIP3    H182223   2.885   3.653  11.035 -1.6716 -0.6782  0.2873
20244TIP3    H282224   2.879   3.782  11.113 -1.0177 -0.0183 -0.7313
20245TIP3   OH282225   2.055   5.706   0.852  0.0158 -0.0667  0.0213
20245TIP3    H182226   2.136   5.721   0.899 -1.5384  1.5671  2.4231
20245TIP3    H282227   2.025   5.794   0.827 -1.6312 -0.4718  0.4074
20246TIP3   OH282228   4.743   6.039  12.886 -1.1487 -0.3040  0.3634
20246TIP3    H182229   4.800   6.114  12.869  0.1171 -1.1175  0.7724
20246TIP3    H282230   4.684   6.068  12.956 -2.2023  1.0119 -1.0172
20247TIP3   OH282231   0.761   0.205  14.684  0.4808 -0.3477 -0.0252
20247TIP3    H182232   0.696   0.202  14.754  0.2157 -1.0431 -0.3001
20247TIP3    H282233   0.795   0.295  14.687  2.5883 -1.0771  2.9447
20248TIP3   OH282234   6.646   5.598  14.022 -0.0264 -0.7923 -0.0370
20248TIP3    H182235   6.613   5.528  13.967  0.7483 -0.8511 -0.4516
20248TIP3    H282236   6.571   5.626  14.074 -0.4645 -1.5862 -0.2244
20249TIP3   OH282237   3.481   4.201   4.335  1.0891 -0.1916 -0.0623
20249TIP3    H182238   3.497   4.151   4.415  1.6204  2.0942  1.3472
20249TIP3    H282239   3.417   4.268   4.361  1.4418  0.7354 -1.4635
20250TIP3   OH282240   4.894   0.751  15.746 -0.0856 -0.2729 -0.1161
20250TIP3    H182241   4.826   0.684  15.737 -0.3816  0.1139 -0.7519
20250TIP3    H282242   4.856   0.830  15.710  0.7339 -0.0721 -0.5775
20251TIP3   OH282243   6.093   4.231   0.151 -0.1178 -0.1956 -0.2220
20251TIP3    H182244   6.140   4.169   0.095  0.1224 -1.3318  1.1646
20251TIP3    H282245   6.145   4.234   0.231 -0.7718  0.9191  0.1817
20252TIP3   OH282246   4.483   4.567   0.299 -0.0713  0.1071 -0.2356
20252TIP3    H182247   4.524   4.595   0.218  0.5949 -1.4797 -0.4762
20252TIP3    H282248   4.410   4.628   0.311 -0.2088  0.3455 -2.0366
20253TIP3   OH282249   0.771   3.540  16.211 -0.8495 -0.2675 -0.1303
20253TIP3    H182250   0.745   3.592  16.286  0.0259 -0.7273  0.5123
20253TIP3    H282251   0.740   3.589  16.135 -0.4537  0.9480  0.4731
20254TIP3   OH282252   5.733   2.383   2.352 -0.2689  0.5136  0.0305
20254TIP3    H182253   5.665   2.406   2.415  0.6267 -1.8905  2.0521
20254TIP3    H282254   5.813   2.421   2.389 -0.1078  1.2146 -1.0125
20255TIP3   OH282255   2.468   0.451   0.690  0.3151  0.5223 -0.1320
20255TIP3    H182256   2.494   0.435   0.781  0.4499  2.7303  0.2579
20255TIP3    H282257   2.391   0.507   0.697  1.2755  2.0585 -1.3665
20256TIP3   OH282258   4.055   0.614   5.645  0.4473  0.1936 -0.9332
20256TIP3    H182259   4.073   0.540   5.703 -0.5766 -0.2844 -1.2074
20256TIP3    H282260   3.987   0.582   5.586  1.8987  0.4672 -2.8235
20257TIP3   OH282261   0.414   5.259   1.406  0.4082  0.1593  0.0674
20257TIP3    H182262   0.327   5.222   1.399  0.4594 -0.2689  1.3345
20257TIP3    H282263   0.410   5.341   1.357 -0.8784  0.4345  0.5907
20258TIP3   OH282264   4.846   1.177   4.343  0.1186  0.1366 -0.6854
20258TIP3    H182265   4.931   1.143   4.314  0.1359  1.1031 -1.8210
20258TIP3    H282266   4.868   1.236   4.415  0.6095  1.6796 -2.0485
20259TIP3   OH282267   4.807   2.269  15.341  0.5838  0.0345  0.4456
20259TIP3    H182268   4.736   2.207  15.359  1.0433 -0.6984 -0.1819
20259TIP3    H282269   4.790   2.300  15.252  1.0390 -0.1491  0.2894
20260TIP3   OH282270   6.032   0.253   1.701  0.0395 -0.3062 -0.4116
20260TIP3    H182271   6.049   0.181   1.763  1.0806  1.9771  2.1502
20260TIP3    H282272   6.038   0.211   1.615  1.4234 -3.1346  0.9024
20261TIP3   OH282273   5.455   5.875  12.737  0.1640 -0.1315 -0.5655
20261TIP3    H182274   5.449   5.827  12.819  0.8061 -0.0915 -0.4971
20261TIP3    H282275   5.409   5.957  12.753  0.2727 -0.1327 -0.2545
20262TIP3   OH282276   1.859   6.598  13.053  0.7893 -0.0166 -0.6435
20262TIP3    H182277   1.858   6.534  13.124 -0.6150  0.7869  0.1043
20262TIP3    H282278   1.843   6.546  12.974  1.0727 -0.7609 -0.2265
20263TIP3   OH282279   2.134   1.051  14.408 -0.2321  0.2858 -0.3768
20263TIP3    H182280   2.124   1.091  14.322  0.9205 -0.2005 -0.7638
20263TIP3    H282281   2.209   1.096  14.447  0.2823 -0.6103 -0.3056
20264TIP3   OH282282   5.411   1.879   3.506 -0.0597 -0.0714  0.2855
20264TIP3    H182283   5.496   1.881   3.461  0.3478 -2.0814  0.8951
20264TIP3    H282284   5.350   1.846   3.440 -0.1297  0.1423  0.2406
20265TIP3   OH282285   6.082   3.456  16.299 -0.5061 -0.1866 -0.0165
20265TIP3    H182286   6.138   3.394  16.346 -0.5423 -0.2847 -0.1005
20265TIP3    H282287   6.141   3.503  16.241 -0.7295 -1.4278 -1.3155
20266TIP3   OH282288   5.979   0.362   0.797 -0.5137  0.1230  0.6347
20266TIP3    H182289   5.994   0.409   0.716  0.4260 -2.4006 -0.7711
20266TIP3    H282290   5.889   0.331   0.791 -0.6955  0.5857  0.9319
20267TIP3   OH282291   5.717   1.545  13.820 -0.5952  0.3236  1.1547
20267TIP3    H182292   5.700   1.536  13.914  0.5229  0.1992  1.3495
20267TIP3    H282293   5.706   1.457  13.786  2.1624 -0.3233  1.7203
20268TIP3   OH282294   4.015   4.504  13.398 -0.4737  0.2120  0.1469
20268TIP3    H182295   4.098   4.458  13.390 -1.2023 -1.1314 -0.0217
20268TIP3    H282296   4.023   4.554  13.480  0.8595  0.9493 -0.4013
20269TIP3   OH282297   2.409   2.602  12.110 -0.1233  0.1399  0.6394
20269TIP3    H182298   2.425   2.692  12.083  0.2651 -0.3978 -1.0788
20269TIP3    H282299   2.473   2.551  12.060 -0.3525 -1.0900  1.5654
20270TIP3   OH282300   3.967   3.948  15.526 -0.0062 -0.3828 -0.4294
20270TIP3    H182301   4.039   3.982  15.578 -1.4970  1.3659  0.5821
20270TIP3    H282302   3.996   3.958  15.435  0.7158  0.9988 -0.0600
20271TIP3   OH282303   1.380   3.039  15.270 -0.3189 -0.1121 -0.2857
20271TIP3    H182304   1.453   3.019  15.211 -0.4900 -0.8517 -0.2673
20271TIP3    H282305   1.384   2.970  15.337  0.3230  1.1427  1.0018
20272TIP3   OH282306   3.899   3.336   3.891  0.7860  0.1252  0.2091
20272TIP3    H182307   3.854   3.369   3.813  1.7906 -1.0491 -0.9191
20272TIP3    H282308   3.870   3.245   3.897  2.0509 -0.2964  0.1635
20273TIP3   OH282309   5.381   2.442  10.488  0.0670 -0.1527  0.2048
20273TIP3    H182310   5.367   2.411  10.399  0.6342  1.4292 -0.4607
20273TIP3    H282311   5.300   2.419  10.535 -1.5757  1.7323 -1.5081
20274TIP3   OH282312   5.402   2.524  12.157 -0.1626  0.3573  0.9350
20274TIP3    H182313   5.493   2.494  12.150  0.2573  1.5050  1.1820
20274TIP3    H282314   5.405   2.616  12.130 -1.4195  0.1603  0.0472
20275LIG      O82315   1.740   5.108  12.035  0.5422  0.4499  0.2941
20275LIG     C182316   1.623   5.097  12.112  0.0843 -0.0153  1.0561
20275LIG     C282317   1.620   5.216  12.208  0.2327  0.9904 -0.1182
20275LIG     C382318   1.505   5.114  12.013 -0.3581  0.4517  0.0301
20275LIG     H182319   1.613   4.993  12.152 -2.5204 -1.2570 -2.2342
20275LIG     H282320   1.631   5.313  12.155  3.0199  0.1057 -1.3137
20275LIG     H382321   1.697   5.187  12.283  0.8436  0.8689 -0.7780
20275LIG     H482322   1.521   5.197  12.256  0.5998  1.6422  0.9216
20275LIG     H582323   1.503   5.033  11.937  0.3351  2.6369 -2.4499
20275LIG     H682324   1.519   5.210  11.959  0.4353 -0.0526 -0.6690
20275LIG     H782325   1.409   5.099  12.068  0.6564 -4.2801  0.9051
20275LIG     H882326   1.718   5.161  11.958 -1.9307  0.8669  1.1842
   6.84945   6.84945  17.19861
